 128 128   0   0
  0.2044346E+02  0.1546773E-08  0.1546773E-08  0.1546773E-08  0.5000000E-15
  1.000000000000000E-004
  CAR 
 potpaw_PBE@./ARUN.APL1ZEROSTATE         
      9.34358239     -7.04018152  301      5.86203256      1.00000000
     -7.040  0.0000E+00  0.0000E+00
     -6.986  0.0000E+00  0.0000E+00
     -6.931  0.0000E+00  0.0000E+00
     -6.876  0.0000E+00  0.0000E+00
     -6.822  0.0000E+00  0.0000E+00
     -6.767  0.0000E+00  0.0000E+00
     -6.713  0.0000E+00  0.0000E+00
     -6.658  0.0000E+00  0.0000E+00
     -6.603  0.0000E+00  0.0000E+00
     -6.549  0.0000E+00  0.0000E+00
     -6.494  0.0000E+00  0.0000E+00
     -6.439  0.0000E+00  0.0000E+00
     -6.385  0.0000E+00  0.0000E+00
     -6.330  0.2033E-05  0.1110E-06
     -6.276  0.4566E+01  0.2494E+00
     -6.221  0.1139E-01  0.2500E+00
     -6.166  0.4169E-01  0.2523E+00
     -6.112  0.1941E+02  0.1312E+01
     -6.057  0.2568E+02  0.2715E+01
     -6.003  0.1019E+02  0.3271E+01
     -5.948  0.8046E+01  0.3710E+01
     -5.893  0.2713E+01  0.3858E+01
     -5.839  0.7937E+01  0.4292E+01
     -5.784  0.1638E+02  0.5187E+01
     -5.729  0.4562E+01  0.5436E+01
     -5.675  0.2047E+02  0.6554E+01
     -5.620  0.3946E+02  0.8709E+01
     -5.566  0.4252E+02  0.1103E+02
     -5.511  0.3238E+02  0.1280E+02
     -5.456  0.2433E+02  0.1413E+02
     -5.402  0.5782E+01  0.1444E+02
     -5.347  0.2529E+01  0.1458E+02
     -5.293  0.7648E+01  0.1500E+02
     -5.238  0.4667E+01  0.1525E+02
     -5.183  0.1646E+02  0.1615E+02
     -5.129  0.4301E+02  0.1850E+02
     -5.074  0.4674E+02  0.2106E+02
     -5.020  0.4521E+02  0.2352E+02
     -4.965  0.4986E+02  0.2625E+02
     -4.910  0.1887E+02  0.2728E+02
     -4.856  0.1913E+02  0.2832E+02
     -4.801  0.2718E+02  0.2981E+02
     -4.746  0.2398E+02  0.3112E+02
     -4.692  0.3873E+02  0.3323E+02
     -4.637  0.2708E+02  0.3471E+02
     -4.583  0.5300E+02  0.3761E+02
     -4.528  0.3146E+02  0.3932E+02
     -4.473  0.3142E+02  0.4104E+02
     -4.419  0.2766E+02  0.4255E+02
     -4.364  0.1276E+02  0.4325E+02
     -4.310  0.2095E+02  0.4439E+02
     -4.255  0.4221E+02  0.4670E+02
     -4.200  0.6950E+02  0.5049E+02
     -4.146  0.6153E+02  0.5385E+02
     -4.091  0.5677E+02  0.5695E+02
     -4.036  0.4531E+02  0.5943E+02
     -3.982  0.5763E+02  0.6257E+02
     -3.927  0.4214E+02  0.6488E+02
     -3.873  0.5031E+02  0.6762E+02
     -3.818  0.5464E+02  0.7061E+02
     -3.763  0.6092E+02  0.7393E+02
     -3.709  0.4920E+02  0.7662E+02
     -3.654  0.3510E+02  0.7854E+02
     -3.600  0.2652E+02  0.7999E+02
     -3.545  0.2208E+02  0.8119E+02
     -3.490  0.4412E+02  0.8360E+02
     -3.436  0.6532E+02  0.8717E+02
     -3.381  0.6207E+02  0.9056E+02
     -3.327  0.4506E+02  0.9302E+02
     -3.272  0.3960E+02  0.9518E+02
     -3.217  0.3482E+02  0.9708E+02
     -3.163  0.3571E+02  0.9903E+02
     -3.108  0.3577E+02  0.1010E+03
     -3.053  0.4704E+02  0.1036E+03
     -2.999  0.4765E+02  0.1062E+03
     -2.944  0.4029E+02  0.1084E+03
     -2.890  0.3163E+02  0.1101E+03
     -2.835  0.3089E+02  0.1118E+03
     -2.780  0.3537E+02  0.1137E+03
     -2.726  0.3000E+02  0.1153E+03
     -2.671  0.3629E+02  0.1173E+03
     -2.617  0.2882E+02  0.1189E+03
     -2.562  0.4286E+02  0.1212E+03
     -2.507  0.1981E+02  0.1223E+03
     -2.453  0.7812E+01  0.1227E+03
     -2.398  0.5204E-04  0.1228E+03
     -2.344  0.4577E+01  0.1230E+03
     -2.289  0.4656E+01  0.1233E+03
     -2.234  0.2140E+02  0.1244E+03
     -2.180  0.1969E+02  0.1255E+03
     -2.125  0.1929E+02  0.1266E+03
     -2.070  0.3086E+02  0.1282E+03
     -2.016  0.3300E+02  0.1300E+03
     -1.961  0.2107E+02  0.1312E+03
     -1.907  0.1944E+02  0.1323E+03
     -1.852  0.5062E+01  0.1325E+03
     -1.797  0.6335E+01  0.1329E+03
     -1.743  0.6892E+01  0.1332E+03
     -1.688  0.5494E+01  0.1336E+03
     -1.634  0.1344E+02  0.1343E+03
     -1.579  0.1501E+02  0.1351E+03
     -1.524  0.3994E+02  0.1373E+03
     -1.470  0.4582E+02  0.1398E+03
     -1.415  0.3780E+02  0.1419E+03
     -1.360  0.4937E+02  0.1445E+03
     -1.306  0.4831E+02  0.1472E+03
     -1.251  0.5177E+02  0.1500E+03
     -1.197  0.6000E+02  0.1533E+03
     -1.142  0.6577E+02  0.1569E+03
     -1.087  0.6920E+02  0.1607E+03
     -1.033  0.6643E+02  0.1643E+03
     -0.978  0.7366E+02  0.1683E+03
     -0.924  0.5809E+02  0.1715E+03
     -0.869  0.6748E+02  0.1752E+03
     -0.814  0.4688E+02  0.1777E+03
     -0.760  0.4880E+02  0.1804E+03
     -0.705  0.6293E+02  0.1838E+03
     -0.651  0.4279E+02  0.1862E+03
     -0.596  0.3075E+02  0.1878E+03
     -0.541  0.3082E+02  0.1895E+03
     -0.487  0.1341E+02  0.1903E+03
     -0.432  0.1605E+02  0.1911E+03
     -0.377  0.3820E+02  0.1932E+03
     -0.323  0.5156E+02  0.1960E+03
     -0.268  0.4306E+02  0.1984E+03
     -0.214  0.5835E+02  0.2016E+03
     -0.159  0.3964E+02  0.2037E+03
     -0.104  0.5539E+02  0.2068E+03
     -0.050  0.3331E+02  0.2086E+03
      0.005  0.4624E+02  0.2111E+03
      0.059  0.3117E+02  0.2128E+03
      0.114  0.1707E+02  0.2137E+03
      0.169  0.8879E+01  0.2142E+03
      0.223  0.6390E+01  0.2146E+03
      0.278  0.1923E+02  0.2156E+03
      0.333  0.2188E+02  0.2168E+03
      0.387  0.2979E+02  0.2185E+03
      0.442  0.2501E+02  0.2198E+03
      0.496  0.1864E+02  0.2208E+03
      0.551  0.3221E+02  0.2226E+03
      0.606  0.1521E+02  0.2234E+03
      0.660  0.2833E+02  0.2250E+03
      0.715  0.1074E+02  0.2256E+03
      0.769  0.2156E+02  0.2267E+03
      0.824  0.1810E+02  0.2277E+03
      0.879  0.3899E+00  0.2278E+03
      0.933  0.1828E+02  0.2287E+03
      0.988  0.2454E+02  0.2301E+03
      1.042  0.2092E+02  0.2312E+03
      1.097  0.3456E+02  0.2331E+03
      1.152  0.2815E+02  0.2347E+03
      1.206  0.1518E+02  0.2355E+03
      1.261  0.3053E+02  0.2372E+03
      1.316  0.2959E+02  0.2388E+03
      1.370  0.3675E+02  0.2408E+03
      1.425  0.3560E+02  0.2427E+03
      1.479  0.6324E+02  0.2462E+03
      1.534  0.7973E+02  0.2505E+03
      1.589  0.9489E+02  0.2557E+03
      1.643  0.8326E+02  0.2603E+03
      1.698  0.6982E+02  0.2641E+03
      1.752  0.6070E+02  0.2674E+03
      1.807  0.4377E+02  0.2698E+03
      1.862  0.4240E+02  0.2721E+03
      1.916  0.2497E+02  0.2735E+03
      1.971  0.2031E+02  0.2746E+03
      2.026  0.2205E+02  0.2758E+03
      2.080  0.6460E+02  0.2793E+03
      2.135  0.1017E+03  0.2848E+03
      2.189  0.1027E+03  0.2905E+03
      2.244  0.1304E+03  0.2976E+03
      2.299  0.1204E+03  0.3041E+03
      2.353  0.1215E+03  0.3108E+03
      2.408  0.9855E+02  0.3162E+03
      2.462  0.6347E+02  0.3196E+03
      2.517  0.4958E+02  0.3223E+03
      2.572  0.3121E+02  0.3240E+03
      2.626  0.3520E+02  0.3260E+03
      2.681  0.5153E+02  0.3288E+03
      2.735  0.9746E+02  0.3341E+03
      2.790  0.9557E+02  0.3393E+03
      2.845  0.9594E+02  0.3446E+03
      2.899  0.8168E+02  0.3490E+03
      2.954  0.1110E+03  0.3551E+03
      3.009  0.1033E+03  0.3607E+03
      3.063  0.8578E+02  0.3654E+03
      3.118  0.8942E+02  0.3703E+03
      3.172  0.6702E+02  0.3740E+03
      3.227  0.7945E+02  0.3783E+03
      3.282  0.8881E+02  0.3831E+03
      3.336  0.1003E+03  0.3886E+03
      3.391  0.1030E+03  0.3942E+03
      3.445  0.9493E+02  0.3994E+03
      3.500  0.7511E+02  0.4035E+03
      3.555  0.8791E+02  0.4083E+03
      3.609  0.6739E+02  0.4120E+03
      3.664  0.8592E+02  0.4167E+03
      3.718  0.6567E+02  0.4203E+03
      3.773  0.9184E+02  0.4253E+03
      3.828  0.8997E+02  0.4302E+03
      3.882  0.7591E+02  0.4344E+03
      3.937  0.8701E+02  0.4391E+03
      3.992  0.5770E+02  0.4423E+03
      4.046  0.6138E+02  0.4456E+03
      4.101  0.6205E+02  0.4490E+03
      4.155  0.7690E+02  0.4532E+03
      4.210  0.7141E+02  0.4571E+03
      4.265  0.6679E+02  0.4608E+03
      4.319  0.7408E+02  0.4648E+03
      4.374  0.7072E+02  0.4687E+03
      4.428  0.7705E+02  0.4729E+03
      4.483  0.7798E+02  0.4771E+03
      4.538  0.5326E+02  0.4800E+03
      4.592  0.5983E+02  0.4833E+03
      4.647  0.5059E+02  0.4861E+03
      4.702  0.4404E+02  0.4885E+03
      4.756  0.4372E+02  0.4909E+03
      4.811  0.2362E+02  0.4922E+03
      4.865  0.2183E+02  0.4933E+03
      4.920  0.4280E+02  0.4957E+03
      4.975  0.3931E+02  0.4978E+03
      5.029  0.3858E+02  0.4999E+03
      5.084  0.3112E+02  0.5016E+03
      5.138  0.2992E+02  0.5033E+03
      5.193  0.8753E+01  0.5037E+03
      5.248  0.7292E-11  0.5038E+03
      5.302  0.4025E+01  0.5040E+03
      5.357  0.2004E+02  0.5051E+03
      5.411  0.1368E+02  0.5058E+03
      5.466  0.2838E+02  0.5074E+03
      5.521  0.1495E+02  0.5082E+03
      5.575  0.3646E+02  0.5102E+03
      5.630  0.1564E+02  0.5110E+03
      5.685  0.4143E+01  0.5112E+03
      5.739  0.2046E+01  0.5114E+03
      5.794  0.7359E+01  0.5118E+03
      5.848  0.4328E+01  0.5120E+03
      5.903  0.0000E+00  0.5120E+03
      5.958  0.0000E+00  0.5120E+03
      6.012  0.0000E+00  0.5120E+03
      6.067  0.3142E-11  0.5120E+03
      6.121  0.3377E+01  0.5122E+03
      6.176  0.1760E+02  0.5131E+03
      6.231  0.1854E+02  0.5142E+03
      6.285  0.3453E+01  0.5143E+03
      6.340  0.2913E+02  0.5159E+03
      6.395  0.1604E+02  0.5168E+03
      6.449  0.3728E+02  0.5188E+03
      6.504  0.2435E+02  0.5202E+03
      6.558  0.1070E+02  0.5208E+03
      6.613  0.1342E+02  0.5215E+03
      6.668  0.1786E+02  0.5225E+03
      6.722  0.3368E+02  0.5243E+03
      6.777  0.3563E+02  0.5263E+03
      6.831  0.3471E+02  0.5282E+03
      6.886  0.3229E+02  0.5299E+03
      6.941  0.3240E+02  0.5317E+03
      6.995  0.4437E+02  0.5341E+03
      7.050  0.4544E+02  0.5366E+03
      7.104  0.3846E+02  0.5387E+03
      7.159  0.2310E+02  0.5400E+03
      7.214  0.2817E+02  0.5415E+03
      7.268  0.5363E+02  0.5444E+03
      7.323  0.6358E+02  0.5479E+03
      7.378  0.8073E+02  0.5523E+03
      7.432  0.7572E+02  0.5564E+03
      7.487  0.1107E+03  0.5625E+03
      7.541  0.7958E+02  0.5668E+03
      7.596  0.8234E+02  0.5713E+03
      7.651  0.8361E+02  0.5759E+03
      7.705  0.8125E+02  0.5803E+03
      7.760  0.9659E+02  0.5856E+03
      7.814  0.8924E+02  0.5905E+03
      7.869  0.9218E+02  0.5955E+03
      7.924  0.1075E+03  0.6014E+03
      7.978  0.8793E+02  0.6062E+03
      8.033  0.8853E+02  0.6110E+03
      8.087  0.8618E+02  0.6157E+03
      8.142  0.6074E+02  0.6190E+03
      8.197  0.8903E+02  0.6239E+03
      8.251  0.9195E+02  0.6289E+03
      8.306  0.8104E+02  0.6334E+03
      8.361  0.7305E+02  0.6373E+03
      8.415  0.7532E+02  0.6415E+03
      8.470  0.3277E+02  0.6432E+03
      8.524  0.3708E+01  0.6434E+03
      8.579  0.1145E+01  0.6435E+03
      8.634  0.9009E+01  0.6440E+03
      8.688  0.0000E+00  0.6440E+03
      8.743  0.0000E+00  0.6440E+03
      8.797  0.0000E+00  0.6440E+03
      8.852  0.0000E+00  0.6440E+03
      8.907  0.0000E+00  0.6440E+03
      8.961  0.0000E+00  0.6440E+03
      9.016  0.0000E+00  0.6440E+03
      9.071  0.0000E+00  0.6440E+03
      9.125  0.0000E+00  0.6440E+03
      9.180  0.0000E+00  0.6440E+03
      9.234  0.0000E+00  0.6440E+03
      9.289  0.0000E+00  0.6440E+03
      9.344  0.0000E+00  0.6440E+03
