 vasp.5.4.4.18Apr17-6-g9f103f2a35 (build Nov 08 2017 09:05:29) complex          
  
 executed on          Intel_17.33 date 2020.07.18  23:33:58
 running on   32 total cores
 distrk:  each k-point on   32 cores,    1 groups
 distr:  one band on NCORES_PER_BAND=  16 cores,    2 groups


--------------------------------------------------------------------------------------------------------


 INCAR:
 POTCAR:   PAW_PBE Si 05Jan2001                   

 ----------------------------------------------------------------------------- 
|                                                                             |
|           W    W    AA    RRRRR   N    N  II  N    N   GGGG   !!!           |
|           W    W   A  A   R    R  NN   N  II  NN   N  G    G  !!!           |
|           W    W  A    A  R    R  N N  N  II  N N  N  G       !!!           |
|           W WW W  AAAAAA  RRRRR   N  N N  II  N  N N  G  GGG   !            |
|           WW  WW  A    A  R   R   N   NN  II  N   NN  G    G                |
|           W    W  A    A  R    R  N    N  II  N    N   GGGG   !!!           |
|                                                                             |
|      For optimal performance we recommend to set                            |
|        NCORE= 4 - approx SQRT( number of cores)                             |
|      NCORE specifies how many cores store one orbital (NPAR=cpu/NCORE).     |
|      This setting can  greatly improve the performance of VASP for DFT.     |
|      The default,   NCORE=1            might be grossly inefficient         |
|      on modern multi-core architectures or massively parallel machines.     |
|      Do your own testing !!!!                                               |
|      Unfortunately you need to use the default for GW and RPA calculations. |
|      (for HF NCORE is supported but not extensively tested yet)             |
|                                                                             |
 ----------------------------------------------------------------------------- 

 POTCAR:   PAW_PBE Si 05Jan2001                   
   VRHFIN =Si: s2p2                                                             
   LEXCH  = PE                                                                  
   EATOM  =   103.0669 eV,    7.5752 Ry                                         
                                                                                
   TITEL  = PAW_PBE Si 05Jan2001                                                
   LULTRA =        F    use ultrasoft PP ?                                      
   IUNSCR =        1    unscreen: 0-lin 1-nonlin 2-no                           
   RPACOR =    1.500    partial core radius                                     
   POMASS =   28.085; ZVAL   =    4.000    mass and valenz                      
   RCORE  =    1.900    outmost cutoff radius                                   
   RWIGS  =    2.480; RWIGS  =    1.312    wigner-seitz radius (au A)           
   ENMAX  =  245.345; ENMIN  =  184.009 eV                                      
   ICORE  =        2    local potential                                         
   LCOR   =        T    correct aug charges                                     
   LPAW   =        T    paw PP                                                  
   EAUG   =  322.069                                                            
   DEXC   =    -.007                                                            
   RMAX   =    2.944    core radius for proj-oper                               
   RAUG   =    1.300    factor for augmentation sphere                          
   RDEP   =    1.993    radius for radial grids                                 
   QCUT   =   -4.246; QGAM   =    8.493    optimization parameters              
                                                                                
   Description                                                                  
     l     E      TYP  RCUT    TYP  RCUT                                        
     0   .000     23  1.900                                                     
     0   .000     23  1.900                                                     
     1   .000     23  1.900                                                     
     1   .000     23  1.900                                                     
     2   .000      7  1.900                                                     
  local pseudopotential read in
  partial core-charges read in
  atomic valenz-charges read in
  non local Contribution for L=           0  read in
    real space projection operators read in
  non local Contribution for L=           0  read in
    real space projection operators read in
  non local Contribution for L=           1  read in
    real space projection operators read in
  non local Contribution for L=           1  read in
    real space projection operators read in
    PAW grid and wavefunctions read in
 
   number of l-projection  operators is LMAX  =           4
   number of lm-projection operators is LMMAX =           8
 

 ----------------------------------------------------------------------------- 
|                                                                             |
|  ADVICE TO THIS USER RUNNING 'VASP/VAMP'   (HEAR YOUR MASTER'S VOICE ...):  |
|                                                                             |
|      You have a (more or less) 'large supercell' and for larger cells       |
|      it might be more efficient to use real space projection operators      |
|      So try LREAL= Auto  in the INCAR   file.                               |
|      Mind: If you want to do a very accurate calculations keep the          |
|      reciprocal projection scheme          (i.e. LREAL=.FALSE.)             |
|                                                                             |
 ----------------------------------------------------------------------------- 

 PAW_PBE Si 05Jan2001                   :
 energy of atom  1       EATOM= -103.0669
 kinetic energy error for atom=    0.0006 (will be added to EATOM!!)
 
 
 POSCAR: kk                                      
  positions in direct lattice
  No initial velocities read in
 exchange correlation table for  LEXCH =        8
   RHO(1)=    0.500       N(1)  =     2000
   RHO(2)=  100.500       N(2)  =     4000
 


--------------------------------------------------------------------------------------------------------


 ion  position               nearest neighbor table
   1  0.007  0.998  0.990-  77 2.29 113 2.31  65 2.35  68 2.47
   2  0.254  0.993  0.000-  78 2.24  66 2.38 114 2.41  65 2.47
   3  0.503  0.006  0.998-  67 2.24  79 2.31  66 2.33 115 2.42
   4  0.757  1.000  0.001-  68 2.25  80 2.39 116 2.41  67 2.63
   5  0.008  0.255  0.999-  69 2.37  72 2.41 117 2.45  65 2.53
   6  0.251  0.237  0.009-  70 2.28  66 2.28  69 2.31 118 2.43
   7  0.511  0.243  0.995-  67 2.23  71 2.37 119 2.43  70 2.67
   8  0.751  0.244  0.006-  68 2.27  72 2.29 120 2.39  71 2.53
   9  0.987  0.506  0.013-  76 2.22  73 2.26  69 2.37 121 2.52
  10  0.247  0.503  0.003- 122 2.41  74 2.42  73 2.42  70 2.45
  11  0.506  0.504  0.998- 123 2.33  71 2.34  75 2.41  74 2.58
  12  0.754  0.498  0.998-  75 2.29  72 2.38  76 2.42 124 2.44
  13  0.999  0.749  0.009-  80 2.25  77 2.30  73 2.42 125 2.42
  14  0.254  0.749  0.996-  74 2.21 126 2.29  78 2.44  77 2.50
  15  0.499  0.749  0.000- 127 2.27  75 2.36  78 2.42  79 2.47
  16  0.739  0.749  0.010-  76 2.23  79 2.30  80 2.44 128 2.46
  17  0.003  0.991  0.256-  93 2.31  84 2.36  81 2.38  65 2.40
  18  0.249  0.999  0.253-  94 2.26  81 2.28  82 2.31  66 2.43
  19  0.509  0.995  0.244-  95 2.26  67 2.27  82 2.38  83 2.46
  20  0.751  0.999  0.240-  68 2.27  83 2.31  96 2.40  84 2.69
  21  0.999  0.261  0.247-  88 2.32  69 2.35  85 2.47  81 2.51
  22  0.238  0.253  0.264-  85 2.19  86 2.27  82 2.45  70 2.49
  23  0.495  0.254  0.244-  71 2.25  86 2.37  83 2.46  87 2.48
  24  0.735  0.236  0.270-  84 2.15  87 2.30  88 2.47  72 2.73
  25  0.988  0.500  0.258-  89 2.27  85 2.35  73 2.35  92 2.38
  26  0.255  0.497  0.248-  74 2.28  86 2.31  90 2.40  89 2.54
  27  0.497  0.511  0.245-  90 2.24  91 2.26  75 2.32  87 2.54
  28  0.752  0.491  0.246-  88 2.20  91 2.32  92 2.39  76 2.41
  29  0.002  0.740  0.249-  89 2.17  96 2.30  77 2.32  93 2.39
  30  0.260  0.746  0.244-  78 2.22  90 2.27  94 2.50  93 2.51
  31  0.510  0.747  0.243-  79 2.28  95 2.35  91 2.44  94 2.51
  32  0.746  0.755  0.243-  95 2.26  92 2.29  96 2.35  80 2.37
  33  0.989  0.013  0.507- 100 2.28  97 2.36 109 2.41  81 2.53
  34  0.244  0.008  0.505-  97 2.31  98 2.36 110 2.53  82 2.55
  35  0.488  0.010  0.495-  98 2.22  83 2.30  99 2.42 111 2.62
  36  0.746  0.007  0.496-  84 2.27  99 2.29 100 2.43 112 2.54
  37  0.007  0.246  0.497-  85 2.22 101 2.24  97 2.25 104 2.43
  38  0.239  0.256  0.496- 101 2.29  86 2.30  98 2.49 102 2.54
  39  0.500  0.258  0.503-  87 2.26 103 2.28 102 2.42  99 2.63
  40  0.749  0.253  0.489- 103 2.28  88 2.37 100 2.40 104 2.45
  41  0.998  0.500  0.489-  89 2.34 101 2.44 108 2.46 105 2.70
  42  0.271  0.493  0.503- 102 2.21 106 2.29 105 2.54  90 2.54
  43  0.498  0.500  0.503- 107 2.35 106 2.42  91 2.46 103 2.52
  44  0.765  0.498  0.500- 108 2.23 104 2.25  92 2.52 107 2.61
  45  0.997  0.754  0.493- 112 2.29 105 2.30  93 2.31 109 2.43
  46  0.250  0.755  0.494-  94 2.27 110 2.42 106 2.47 109 2.49
  47  0.494  0.756  0.512- 110 2.16 111 2.23 107 2.43  95 2.65
  48  0.752  0.751  0.497- 108 2.38 112 2.39 111 2.41  96 2.49
  49  0.997  0.003  0.753- 113 2.24 116 2.25  97 2.35 125 2.40
  50  0.259  0.993  0.757- 126 2.25  98 2.35 114 2.36 113 2.43
  51  0.501  0.996  0.748- 114 2.18  99 2.30 127 2.38 115 2.54
  52  0.752  0.981  0.762- 128 2.23 115 2.28 116 2.39 100 2.47
  53  0.016  0.245  0.753- 117 2.22 113 2.40 101 2.45 120 2.50
  54  0.256  0.242  0.754- 118 2.28 114 2.35 102 2.40 117 2.41
  55  0.503  0.253  0.753- 103 2.29 119 2.36 115 2.36 118 2.42
  56  0.749  0.255  0.739- 119 2.30 104 2.40 120 2.49 116 2.53
  57  0.008  0.492  0.747- 117 2.19 105 2.42 121 2.46 124 2.47
  58  0.238  0.492  0.760- 121 2.30 106 2.30 122 2.34 118 2.39
  59  0.495  0.510  0.737- 107 2.17 122 2.33 119 2.36 123 2.50
  60  0.747  0.508  0.753- 124 2.25 123 2.30 108 2.31 120 2.58
  61  0.005  0.752  0.740- 109 2.28 121 2.29 125 2.42 128 2.46
  62  0.247  0.755  0.754- 126 2.25 125 2.40 110 2.49 122 2.57
  63  0.508  0.740  0.750- 111 2.25 123 2.26 127 2.37 126 2.59
  64  0.742  0.754  0.751- 128 2.33 127 2.33 112 2.34 124 2.35
  65  0.059  0.055  0.066-   1 2.35  17 2.40   2 2.47   5 2.53
  66  0.319  0.057  0.061-   6 2.28   3 2.33   2 2.38  18 2.43
  67  0.549  0.068  0.065-   7 2.23   3 2.24  19 2.27   4 2.63
  68  0.812  0.064  0.060-   4 2.25   8 2.27  20 2.27   1 2.47
  69  0.069  0.319  0.062-   6 2.31  21 2.35   5 2.37   9 2.37
  70  0.300  0.310  0.067-   6 2.28  10 2.45  22 2.49   7 2.67
  71  0.550  0.320  0.066-  23 2.25  11 2.34   7 2.37   8 2.53
  72  0.818  0.309  0.053-   8 2.29  12 2.38   5 2.41  24 2.73
  73  0.056  0.557  0.071-   9 2.26  25 2.35  10 2.42  13 2.42
  74  0.302  0.574  0.068-  14 2.21  26 2.28  10 2.42  11 2.58
  75  0.573  0.563  0.062-  12 2.29  27 2.32  15 2.36  11 2.41
  76  0.812  0.573  0.056-   9 2.22  16 2.23  28 2.41  12 2.42
  77  0.056  0.818  0.066-   1 2.29  13 2.30  29 2.32  14 2.50
  78  0.308  0.816  0.069-  30 2.22   2 2.24  15 2.42  14 2.44
  79  0.557  0.823  0.063-  31 2.28  16 2.30   3 2.31  15 2.47
  80  0.822  0.811  0.056-  13 2.25  32 2.37   4 2.39  16 2.44
  81  0.068  0.063  0.308-  18 2.28  17 2.38  21 2.51  33 2.53
  82  0.320  0.060  0.304-  18 2.31  19 2.38  22 2.45  34 2.55
  83  0.569  0.060  0.314-  35 2.30  20 2.31  23 2.46  19 2.46
  84  0.817  0.069  0.317-  24 2.15  36 2.27  17 2.36  20 2.69
  85  0.066  0.315  0.322-  22 2.19  37 2.22  25 2.35  21 2.47
  86  0.307  0.314  0.313-  22 2.27  38 2.30  26 2.31  23 2.37
  87  0.553  0.310  0.325-  39 2.26  24 2.30  23 2.48  27 2.54
  88  0.815  0.317  0.301-  28 2.20  21 2.32  40 2.37  24 2.47
  89  0.054  0.569  0.303-  29 2.17  25 2.27  41 2.34  26 2.54
  90  0.320  0.566  0.302-  27 2.24  30 2.27  26 2.40  42 2.54
  91  0.569  0.554  0.309-  27 2.26  28 2.32  31 2.44  43 2.46
  92  0.800  0.574  0.302-  32 2.29  25 2.38  28 2.39  44 2.52
  93  0.061  0.808  0.310-  45 2.31  17 2.31  29 2.39  30 2.51
  94  0.312  0.821  0.314-  18 2.26  46 2.27  30 2.50  31 2.51
  95  0.567  0.817  0.302-  19 2.26  32 2.26  31 2.35  47 2.65
  96  0.820  0.809  0.300-  29 2.30  32 2.35  20 2.40  48 2.49
  97  0.061  0.068  0.567-  37 2.25  34 2.31  49 2.35  33 2.36
  98  0.313  0.060  0.571-  35 2.22  50 2.35  34 2.36  38 2.49
  99  0.566  0.050  0.566-  36 2.29  51 2.30  35 2.42  39 2.63
 100  0.809  0.065  0.568-  33 2.28  40 2.40  36 2.43  52 2.47
 101  0.058  0.308  0.561-  37 2.24  38 2.29  41 2.44  53 2.45
 102  0.308  0.320  0.564-  42 2.21  54 2.40  39 2.42  38 2.54
 103  0.569  0.300  0.572-  39 2.28  40 2.28  55 2.29  43 2.52
 104  0.815  0.321  0.549-  44 2.25  56 2.40  37 2.43  40 2.45
 105  0.071  0.572  0.557-  45 2.30  57 2.42  42 2.54  41 2.70
 106  0.307  0.561  0.579-  42 2.29  58 2.30  43 2.42  46 2.47
 107  0.558  0.564  0.565-  59 2.17  43 2.35  47 2.43  44 2.61
 108  0.804  0.563  0.571-  44 2.23  60 2.31  48 2.38  41 2.46
 109  0.053  0.822  0.560-  61 2.28  33 2.41  45 2.43  46 2.49
 110  0.324  0.809  0.558-  47 2.16  46 2.42  62 2.49  34 2.53
 111  0.562  0.803  0.572-  47 2.23  63 2.25  48 2.41  35 2.62
 112  0.817  0.806  0.566-  45 2.29  64 2.34  48 2.39  36 2.54
 113  0.067  0.056  0.807-  49 2.24   1 2.31  53 2.40  50 2.43
 114  0.329  0.056  0.809-  51 2.18  54 2.35  50 2.36   2 2.41
 115  0.574  0.066  0.807-  52 2.28  55 2.36   3 2.42  51 2.54
 116  0.819  0.055  0.810-  49 2.25  52 2.39   4 2.41  56 2.53
 117  0.066  0.318  0.806-  57 2.19  53 2.22  54 2.41   5 2.45
 118  0.312  0.303  0.817-  54 2.28  58 2.39  55 2.42   6 2.43
 119  0.567  0.324  0.803-  56 2.30  55 2.36  59 2.36   7 2.43
 120  0.819  0.304  0.816-   8 2.39  56 2.49  53 2.50  60 2.58
 121  0.057  0.570  0.813-  61 2.29  58 2.30  57 2.46   9 2.52
 122  0.311  0.552  0.813-  59 2.33  58 2.34  10 2.41  62 2.57
 123  0.565  0.561  0.813-  63 2.26  60 2.30  11 2.33  59 2.50
 124  0.813  0.568  0.805-  60 2.25  64 2.35  12 2.44  57 2.47
 125  0.057  0.813  0.818-  49 2.40  62 2.40  61 2.42  13 2.42
 126  0.304  0.816  0.815-  50 2.25  62 2.25  14 2.29  63 2.59
 127  0.557  0.808  0.820-  15 2.27  64 2.33  63 2.37  51 2.38
 128  0.811  0.804  0.815-  52 2.23  64 2.33  16 2.46  61 2.46
 
  LATTYP: Found a face centered cubic cell.
 ALAT       =    21.8746673814
  
  Lattice vectors:
  
 A1 = (   0.0000000000,  10.9373336907,  10.9373336907)
 A2 = (  10.9373336907,   0.0000000000,  10.9373336907)
 A3 = (  10.9373336907,  10.9373336907,   0.0000000000)


Analysis of symmetry for initial positions (statically):
=====================================================================
 Subroutine PRICEL returns:
 Original cell was already a primitive cell.
 

 Routine SETGRP: Setting up the symmetry group for a 
 face centered cubic supercell.


 Subroutine GETGRP returns: Found  1 space group operations
 (whereof  1 operations were pure point group operations)
 out of a pool of 48 trial point group operations.


The static configuration has the point symmetry C_1 .


Analysis of symmetry for dynamics (positions and initial velocities):
=====================================================================
 Subroutine PRICEL returns:
 Original cell was already a primitive cell.
 

 Routine SETGRP: Setting up the symmetry group for a 
 face centered cubic supercell.


 Subroutine GETGRP returns: Found  1 space group operations
 (whereof  1 operations were pure point group operations)
 out of a pool of 48 trial point group operations.


The dynamic configuration has the point symmetry C_1 .


 Subroutine INISYM returns: Found  1 space group operations
 (whereof  1 operations are pure point group operations),
 and found     1 'primitive' translations

 
 
 KPOINTS: KPOINTS File, automatically generated by

Automatic generation of k-mesh.
Space group operators:
 irot       det(A)        alpha          n_x          n_y          n_z        tau_x        tau_y        tau_z
    1     1.000000     0.000001     1.000000     0.000000     0.000000     0.000000     0.000000     0.000000
 
 Subroutine IBZKPT returns following result:
 ===========================================
 
 Found      8 irreducible k-points:
 
 Following reciprocal coordinates:
            Coordinates               Weight
  0.000000  0.000000  0.000000      1.000000
  0.500000  0.000000  0.000000      1.000000
  0.000000  0.500000  0.000000      1.000000
  0.500000  0.500000  0.000000      1.000000
  0.000000  0.000000  0.500000      1.000000
  0.500000  0.000000  0.500000      1.000000
  0.000000  0.500000  0.500000      1.000000
  0.500000  0.500000  0.500000      1.000000
 
 Following cartesian coordinates:
            Coordinates               Weight
  0.000000  0.000000  0.000000      1.000000
 -0.022857  0.022857  0.022857      1.000000
  0.022857 -0.022857  0.022857      1.000000
  0.000000  0.000000  0.045715      1.000000
  0.022857  0.022857 -0.022857      1.000000
  0.000000  0.045715  0.000000      1.000000
  0.045715  0.000000  0.000000      1.000000
  0.022857  0.022857  0.022857      1.000000
 


--------------------------------------------------------------------------------------------------------




 Dimension of arrays:
   k-points           NKPTS =      8   k-points in BZ     NKDIM =      8   number of bands    NBANDS=    322
   number of dos      NEDOS =    301   number of ions     NIONS =    128
   non local maximal  LDIM  =      4   non local SUM 2l+1 LMDIM =      8
   total plane-waves  NPLWV = ******
   max r-space proj   IRMAX =      1   max aug-charges    IRDMAX= 176811
   dimension x,y,z NGX =   120 NGY =  120 NGZ =  120
   dimension x,y,z NGXF=   240 NGYF=  240 NGZF=  240
   support grid    NGXF=   480 NGYF=  480 NGZF=  480
   ions per type =             128
   NGX,Y,Z   is equivalent  to a cutoff of  12.90, 12.90, 12.90 a.u.
   NGXF,Y,Z  is equivalent  to a cutoff of  25.80, 25.80, 25.80 a.u.

 SYSTEM =  potpaw_PBE@./ARUN.APL1ZEROSTATE         
 POSCAR =  kk                                      

 Startparameter for this run:
   NWRITE =      2    write-flag & timer
   PREC   = accura    normal or accurate (medium, high low for compatibility)
   ISTART =      0    job   : 0-new  1-cont  2-samecut
   ICHARG =      2    charge: 1-file 2-atom 10-const
   ISPIN  =      1    spin polarized calculation?
   LNONCOLLINEAR =      F non collinear calculations
   LSORBIT =      F    spin-orbit coupling
   INIWAV =      1    electr: 0-lowe 1-rand  2-diag
   LASPH  =      F    aspherical Exc in radial PAW
   METAGGA=      F    non-selfconsistent MetaGGA calc.

 Electronic Relaxation 1
   ENCUT  =  500.0 eV  36.75 Ry    6.06 a.u.  28.20 28.20 28.20*2*pi/ulx,y,z
   ENINI  =  500.0     initial cutoff
   ENAUG  =  322.1 eV  augmentation charge cutoff
   NELM   =    120;   NELMIN=  4; NELMDL= -5     # of ELM steps 
   EDIFF  = 0.1E-07   stopping-criterion for ELM
   LREAL  =      F    real-space projection
   NLSPLINE    = F    spline interpolate recip. space projectors
   LCOMPAT=      F    compatible to vasp.4.4
   GGA_COMPAT  = T    GGA compatible to vasp.4.4-vasp.4.6
   LMAXPAW     = -100 max onsite density
   LMAXMIX     =    2 max onsite mixed and CHGCAR
   VOSKOWN=      0    Vosko Wilk Nusair interpolation
   ROPT   =    0.00000
 Ionic relaxation
   EDIFFG = 0.1E-06   stopping-criterion for IOM
   NSW    =      0    number of steps for IOM
   NBLOCK =      1;   KBLOCK =      1    inner block; outer block 
   IBRION =     -1    ionic relax: 0-MD 1-quasi-New 2-CG
   NFREE  =      0    steps in history (QN), initial steepest desc. (CG)
   ISIF   =      2    stress and relaxation
   IWAVPR =     10    prediction:  0-non 1-charg 2-wave 3-comb
   ISYM   =      2    0-nonsym 1-usesym 2-fastsym
   LCORR  =      T    Harris-Foulkes like correction to forces

   POTIM  = 0.5000    time-step for ionic-motion
   TEIN   =    0.0    initial temperature
   TEBEG  =    0.0;   TEEND  =   0.0 temperature during run
   SMASS  =  -3.00    Nose mass-parameter (am)
   estimated Nose-frequenzy (Omega)   =  0.10E-29 period in steps =****** mass=  -0.547E-26a.u.
   SCALEE = 1.0000    scale energy and forces
   NPACO  =    256;   APACO  = 16.0  distance and # of slots for P.C.
   PSTRESS=    0.0 pullay stress

  Mass of Ions in am
   POMASS =  28.09
  Ionic Valenz
   ZVAL   =   4.00
  Atomic Wigner-Seitz radii
   RWIGS  =  -1.00
  virtual crystal weights 
   VCA    =   1.00
   NELECT =     512.0000    total number of electrons
   NUPDOWN=      -1.0000    fix difference up-down

 DOS related values:
   EMIN   =  10.00;   EMAX   =-10.00  energy-range for DOS
   EFERMI =   0.00
   ISMEAR =     0;   SIGMA  =   0.01  broadening in eV -4-tet -1-fermi 0-gaus

 Electronic relaxation 2 (details)
   IALGO  =     38    algorithm
   LDIAG  =      T    sub-space diagonalisation (order eigenvalues)
   LSUBROT=      F    optimize rotation matrix (better conditioning)
   TURBO    =      0    0=normal 1=particle mesh
   IRESTART =      0    0=no restart 2=restart with 2 vectors
   NREBOOT  =      0    no. of reboots
   NMIN     =      0    reboot dimension
   EREF     =   0.00    reference energy to select bands
   IMIX   =      4    mixing-type and parameters
     AMIX     =   0.40;   BMIX     =  1.00
     AMIX_MAG =   1.60;   BMIX_MAG =  1.00
     AMIN     =   0.10
     WC   =   100.;   INIMIX=   1;  MIXPRE=   1;  MAXMIX= -45

 Intra band minimization:
   WEIMIN = 0.0000     energy-eigenvalue tresh-hold
   EBREAK =  0.78E-11  absolut break condition
   DEPER  =   0.30     relativ break condition  

   TIME   =   0.40     timestep for ELM

  volume/ion in A,a.u.               =      20.44       137.96
  Fermi-wavevector in a.u.,A,eV,Ry     =   0.950408  1.796010 12.289804  0.903275
  Thomas-Fermi vector in A             =   2.078782
 
 Write flags
   LWAVE        =      F    write WAVECAR
   LDOWNSAMPLE  =      F    k-point downsampling of WAVECAR
   LCHARG       =      F    write CHGCAR
   LVTOT        =      F    write LOCPOT, total local potential
   LVHAR        =      F    write LOCPOT, Hartree potential only
   LELF         =      F    write electronic localiz. function (ELF)
   LORBIT       =      0    0 simple, 1 ext, 2 COOP (PROOUT), +10 PAW based schemes


 Dipole corrections
   LMONO  =      F    monopole corrections only (constant potential shift)
   LDIPOL =      F    correct potential (dipole corrections)
   IDIPOL =      0    1-x, 2-y, 3-z, 4-all directions 
   EPSILON=  1.0000000 bulk dielectric constant

 Exchange correlation treatment:
   GGA     =    --    GGA type
   LEXCH   =     8    internal setting for exchange type
   VOSKOWN=      0    Vosko Wilk Nusair interpolation
   LHFCALC =     F    Hartree Fock is set to
   LHFONE  =     F    Hartree Fock one center treatment
   AEXX    =    0.0000 exact exchange contribution

 Linear response parameters
   LEPSILON=     F    determine dielectric tensor
   LRPA    =     F    only Hartree local field effects (RPA)
   LNABLA  =     F    use nabla operator in PAW spheres
   LVEL    =     F    velocity operator in full k-point grid
   LINTERFAST=   F  fast interpolation
   KINTER  =     0    interpolate to denser k-point grid
   CSHIFT  =0.1000    complex shift for real part using Kramers Kronig
   OMEGAMAX=  -1.0    maximum frequency
   DEG_THRESHOLD= 0.2000000E-02 threshold for treating states as degnerate
   RTIME   =   -0.100 relaxation time in fs
  (WPLASMAI=    0.000 imaginary part of plasma frequency in eV, 0.658/RTIME)
   DFIELD  = 0.0000000 0.0000000 0.0000000 field for delta impulse in time
 
 Orbital magnetization related:
   ORBITALMAG=     F  switch on orbital magnetization
   LCHIMAG   =     F  perturbation theory with respect to B field
   DQ        =  0.001000  dq finite difference perturbation B field
   LLRAUG    =     F  two centre corrections for induced B field



--------------------------------------------------------------------------------------------------------


 Static calculation
 charge density and potential will be updated during run
 non-spin polarized calculation
 Variant of blocked Davidson
 Davidson routine will perform the subspace rotation
 perform sub-space diagonalisation
    after iterative eigenvector-optimisation
 modified Broyden-mixing scheme, WC =      100.0
 initial mixing is a Kerker type mixing with AMIX =  0.4000 and BMIX =      1.0000
 Hartree-type preconditioning will be used
 using additional bands           66
 reciprocal scheme for non local part
 use partial core corrections
 calculate Harris-corrections to forces 
   (improved forces if not selfconsistent)
 use gradient corrections 
 use of overlap-Matrix (Vanderbilt PP)
 Gauss-broadening in eV      SIGMA  =   0.01


--------------------------------------------------------------------------------------------------------


  energy-cutoff  :      500.00
  volume of cell :     2616.76
      direct lattice vectors                 reciprocal lattice vectors
     0.000000000 10.937333691 10.937333691    -0.045714981  0.045714981  0.045714981
    10.937333691  0.000000000 10.937333691     0.045714981 -0.045714981  0.045714981
    10.937333691 10.937333691  0.000000000     0.045714981  0.045714981 -0.045714981

  length of vectors
    15.467725642 15.467725642 15.467725642     0.079180669  0.079180669  0.079180669


 
 k-points in units of 2pi/SCALE and weight: KPOINTS File, automatically generated by
   0.00000000  0.00000000  0.00000000       0.125
  -0.02285749  0.02285749  0.02285749       0.125
   0.02285749 -0.02285749  0.02285749       0.125
   0.00000000  0.00000000  0.04571498       0.125
   0.02285749  0.02285749 -0.02285749       0.125
   0.00000000  0.04571498  0.00000000       0.125
   0.04571498  0.00000000  0.00000000       0.125
   0.02285749  0.02285749  0.02285749       0.125
 
 k-points in reciprocal lattice and weights: KPOINTS File, automatically generated by
   0.00000000  0.00000000  0.00000000       0.125
   0.50000000  0.00000000  0.00000000       0.125
   0.00000000  0.50000000  0.00000000       0.125
   0.50000000  0.50000000  0.00000000       0.125
   0.00000000  0.00000000  0.50000000       0.125
   0.50000000  0.00000000  0.50000000       0.125
   0.00000000  0.50000000  0.50000000       0.125
   0.50000000  0.50000000  0.50000000       0.125
 
 position of ions in fractional coordinates (direct lattice) 
   0.00720760  0.99812169  0.98954894
   0.25440279  0.99295618  0.00006751
   0.50290375  0.00556601  0.99764674
   0.75749848  0.99995497  0.00070159
   0.00768271  0.25487242  0.99906934
   0.25060078  0.23706038  0.00930126
   0.51110296  0.24286245  0.99540408
   0.75062939  0.24384651  0.00560427
   0.98671119  0.50573734  0.01273541
   0.24698312  0.50343484  0.00278714
   0.50592918  0.50366101  0.99793529
   0.75374970  0.49755860  0.99762484
   0.99941884  0.74858664  0.00948061
   0.25376809  0.74885202  0.99621620
   0.49868257  0.74926479  0.00001714
   0.73907041  0.74861653  0.00951792
   0.00348192  0.99094021  0.25588343
   0.24858265  0.99908432  0.25342297
   0.50861568  0.99535937  0.24393477
   0.75141504  0.99863779  0.23966055
   0.99873123  0.26126909  0.24716506
   0.23849100  0.25254195  0.26373478
   0.49459481  0.25431229  0.24415885
   0.73505274  0.23643613  0.26951563
   0.98820555  0.50046785  0.25758998
   0.25459712  0.49662142  0.24772800
   0.49743436  0.51103994  0.24522854
   0.75246398  0.49101616  0.24577896
   0.00179969  0.74007694  0.24877606
   0.26039597  0.74590658  0.24350347
   0.51042102  0.74650694  0.24262235
   0.74579293  0.75493396  0.24273530
   0.98882630  0.01285310  0.50727655
   0.24366516  0.00847809  0.50513741
   0.48798016  0.01001142  0.49452600
   0.74648595  0.00651197  0.49582123
   0.00702504  0.24591821  0.49694887
   0.23900690  0.25614284  0.49551537
   0.49977012  0.25841858  0.50312539
   0.74859538  0.25339329  0.48865769
   0.99751743  0.50049662  0.48871013
   0.27117165  0.49288414  0.50264053
   0.49830080  0.49961985  0.50302711
   0.76496950  0.49819035  0.49964983
   0.99704035  0.75354374  0.49301743
   0.25023762  0.75493998  0.49410192
   0.49410459  0.75571897  0.51222220
   0.75237568  0.75082409  0.49683845
   0.99722468  0.00259240  0.75317086
   0.25886668  0.99270656  0.75718565
   0.50136019  0.99609380  0.74799218
   0.75189440  0.98076730  0.76246688
   0.01641905  0.24480519  0.75317519
   0.25587098  0.24225507  0.75350093
   0.50296226  0.25258358  0.75280277
   0.74856494  0.25515586  0.73880918
   0.00813302  0.49163575  0.74710509
   0.23840309  0.49220269  0.76008040
   0.49476568  0.51004299  0.73683097
   0.74650947  0.50797622  0.75341164
   0.00516198  0.75150016  0.73999967
   0.24695106  0.75482908  0.75449598
   0.50817804  0.73991465  0.74985494
   0.74187008  0.75350557  0.75146187
   0.05861423  0.05521511  0.06628607
   0.31857574  0.05661005  0.06079076
   0.54933459  0.06774290  0.06549018
   0.81158926  0.06427036  0.06001758
   0.06884454  0.31910068  0.06152867
   0.29965330  0.31023109  0.06689569
   0.55020260  0.31957654  0.06582174
   0.81816332  0.30907983  0.05345526
   0.05550832  0.55709178  0.07126388
   0.30205988  0.57447016  0.06812774
   0.57255996  0.56332869  0.06236864
   0.81171829  0.57252046  0.05593688
   0.05561529  0.81777946  0.06560239
   0.30755759  0.81573995  0.06850211
   0.55715732  0.82309879  0.06335825
   0.82169758  0.81124515  0.05587901
   0.06796162  0.06253192  0.30799352
   0.32006253  0.06019129  0.30351577
   0.56898948  0.06012770  0.31353579
   0.81749692  0.06854644  0.31660759
   0.06553863  0.31545920  0.32156200
   0.30744863  0.31361930  0.31332334
   0.55343525  0.31046597  0.32459541
   0.81529882  0.31680619  0.30135601
   0.05350353  0.56868435  0.30320563
   0.32006025  0.56595436  0.30248406
   0.56916309  0.55366262  0.30879413
   0.80036311  0.57397830  0.30244968
   0.06135727  0.80799550  0.31040532
   0.31238643  0.82050221  0.31419683
   0.56670927  0.81673402  0.30233409
   0.81977180  0.80903143  0.30018256
   0.06082251  0.06778426  0.56690491
   0.31297784  0.05960334  0.57111313
   0.56606856  0.05037644  0.56571200
   0.80858404  0.06453163  0.56828077
   0.05802090  0.30779217  0.56119983
   0.30834043  0.31950593  0.56395109
   0.56944427  0.29982423  0.57175530
   0.81484961  0.32142229  0.54863694
   0.07102013  0.57249175  0.55684741
   0.30725862  0.56069817  0.57858868
   0.55845839  0.56353725  0.56496883
   0.80402065  0.56281843  0.57097838
   0.05272451  0.82240955  0.56030140
   0.32354867  0.80913645  0.55793112
   0.56241163  0.80348254  0.57217602
   0.81658500  0.80583386  0.56639213
   0.06729239  0.05621499  0.80673552
   0.32923946  0.05641980  0.80947228
   0.57385905  0.06592340  0.80655168
   0.81910624  0.05472073  0.81003683
   0.06551667  0.31801129  0.80567949
   0.31172041  0.30300809  0.81715650
   0.56724070  0.32370349  0.80347392
   0.81888222  0.30399619  0.81621848
   0.05709965  0.57044768  0.81321410
   0.31133371  0.55167824  0.81286240
   0.56466922  0.56081739  0.81330155
   0.81282024  0.56780359  0.80480953
   0.05694699  0.81275346  0.81768039
   0.30355760  0.81577320  0.81490182
   0.55737915  0.80786575  0.81997502
   0.81105002  0.80437524  0.81525670
 
 position of ions in cartesian coordinates  (Angst):
  21.73981694 10.90185880 10.99562191
  10.86103148  2.78322662 13.64278132
  10.97247264 16.41202136  5.56130343
  10.94451471  8.29268717 19.22185490
  13.71477939 11.01118307  2.87165303
   2.69453949  2.84263532  5.33371281
  13.54333422 16.47717016  8.24637132
   2.72832636  8.27117990 10.87691476
   5.67070945 10.93128095 16.32340761
   5.53671869  2.73182068  8.20757159
  16.42345977 16.44826748 11.04222477
  16.35332024 19.15536778 13.68597649
   8.29123452 11.03467000 19.11851932
  19.08639344 13.67149536 10.96599072
   8.19514650  5.45444514 13.64921680
   8.29196949  8.18756041 16.27132855
  13.63692620  2.83676533 10.87632662
  13.69909009  5.49060296 13.64614995
  13.55457358  8.23089541 16.44947701
  13.54368219 10.83972447 19.14091180
   5.56091400 13.62678352 13.78104404
   5.64669090  5.49301100  5.37059128
   5.45194519  8.07999531  8.19104692
   5.53376318 10.98729945 10.62549797
   8.29113152 13.62568145 16.28211774
   8.14119796  5.49409747  8.21632783
   8.27156072  8.12275197 11.03001989
   8.05857408 10.91811607 13.60035723
  10.81541523  2.74063068  8.11415226
  10.82150787  5.51131625 11.00626681
  10.81843720  8.23628666 13.74744056
  10.91184155 10.81186311 16.41395078
   5.68883154 16.36337617 10.95570182
   5.61758418  8.18990360  2.75777484
   5.51829409 10.74599774  5.44670009
   5.49418578 13.58752808  8.23578948
   8.12498519  5.51213086  2.76652471
   8.22113670  8.03371524  5.41561799
   8.32926060 10.96900294  8.29256289
   8.11605913 13.53224969 10.95908441
  10.81928429 16.25536681 16.38427950
  10.88838547  8.46344202  8.35673306
  10.96628436 10.95185752 10.91459114
  10.91371103 13.83156359 13.81560082
  13.63405546 16.29725912 19.14672232
  13.66118802  8.14108989 10.99396275
  13.86789562 11.00653191 13.66973731
  13.64610155 13.66307174 16.44099749
   8.26603493 19.14466013 10.93533305
  19.13915502 11.11290331 13.68887415
  19.07565036 13.66458381 16.37815403
  19.06633394 16.56307461 18.95069917
  10.91524439  8.41730900  2.85709663
  10.89091558 11.03983736  5.44817078
  10.99624600 13.73472114  8.26365699
  10.87132729 16.26790705 10.97802938
  13.54852188  8.26029120  5.46613779
  13.69663797 10.92074710  7.99087919
  13.63747656 13.47038348 10.98992767
  13.79621996 16.40513776 13.72072863
  16.31303144  8.15008167  8.27586637
  16.50799188 10.95316042 10.95680367
  16.29410717 13.75952648 13.65080624
  16.46033108 16.33306982 16.35542240
   1.32889895  1.36607633  1.24498948
   1.28405179  4.14925796  4.10353216
   1.45721469  6.72454364  6.74918240
   1.35937866  9.53305486  9.57956898
   4.16307027  1.42593538  4.24308636
   4.12476144  4.00906860  6.67050912
   4.21522963  6.73766375  9.51306469
   3.96516727  9.53318332 12.32903449
   6.87253555  1.38654986  6.70021167
   7.02830767  4.04886547  9.58690150
   6.84346044  6.94442595 12.42359312
   6.87364760  9.48983412 15.13988109
   9.66184208  1.32579830  9.55260982
   9.67125053  4.11309043 12.28588006
   9.69547647  6.78678584 15.09632163
   9.48402635  9.59834805 17.86003954
   4.05256038  4.11194678  1.42725135
   3.97798544  6.82028384  4.15896288
   4.08688237  9.65247345  6.88086463
   4.21255814 12.40407944  9.69095196
   6.96731338  4.23384871  4.16710038
   6.85708083  6.78959022  6.79282721
   6.94587821  9.60331431  9.44877588
   6.76104621 12.21322643 12.38221023
   9.53615160  3.90144710  6.80507644
   9.49840074  6.80897486  9.69063745
   9.43297734  9.60251105 12.28071947
   9.58578533 12.06183153 15.03163070
  12.23232296  4.06609144  9.50840132
  12.41058204  6.85315018 12.39078115
  12.23962134  9.50501712 15.13118090
  12.13184346 12.24931449 17.81476436
   6.94180719  6.86566426  1.40661519
   6.89835643  9.66959785  4.07504462
   6.73836483 12.37866161  6.74226464
   6.92128043 15.05922992  9.54955742
   9.50445549  6.77262369  4.00101964
   9.66266424  9.54054339  6.86696515
   9.53275621 12.48168059  9.50747969
   9.51612815 14.91290733 12.42778494
  12.35195929  6.86719675  7.03830416
  12.46076047  9.68880761  9.49313308
  12.34284767 12.28729840 12.27164073
  12.40071398 15.03882324 14.94957513
  15.12317104  6.70486893  9.57163320
  14.95207414  9.64103856 12.38855510
  15.04603672 12.40936371 14.93924036
  15.00849349 15.12608233 17.74493648
   9.43837767  9.55953482  1.35084140
   9.47055060 12.45447023  4.21808395
   9.54255107 15.09801279  6.99751412
   9.45814204 17.81848144  9.55733724
  12.29018098  9.52856303  4.19477321
  12.25161387 12.34690341  6.72349065
  12.32831551 14.99196319  9.74455395
  12.25216163 17.88364195 12.28129591
  15.13357068  9.51891189  6.86369454
  14.92443629 12.29570798  9.43904973
  15.02919731 15.07132608 12.30982257
  15.01272774 17.69255666 15.10034354
  17.83259909  9.56609145  9.51220402
  17.83523682 12.23296387 12.24249448
  17.80423765 15.06458212 14.93213905
  17.71445504 17.78745933 17.66844522
 


--------------------------------------------------------------------------------------------------------


 k-point  1 :   0.0000 0.0000 0.0000  plane waves:   66299
 k-point  2 :   0.5000 0.0000 0.0000  plane waves:   66394
 k-point  3 :   0.0000 0.5000 0.0000  plane waves:   66394
 k-point  4 :   0.5000 0.5000 0.0000  plane waves:   66552
 k-point  5 :   0.0000 0.0000 0.5000  plane waves:   66394
 k-point  6 :   0.5000 0.0000 0.5000  plane waves:   66552
 k-point  7 :   0.0000 0.5000 0.5000  plane waves:   66552
 k-point  8 :   0.5000 0.5000 0.5000  plane waves:   66394

 maximum and minimum number of plane-waves per node :      4207     4110

 maximum number of plane-waves:     66552
 maximum index in each direction: 
   IXMAX=   28   IYMAX=   28   IZMAX=   28
   IXMIN=  -28   IYMIN=  -28   IZMIN=  -28


 parallel 3D FFT for wavefunctions:
    minimum data exchange during FFTs selected (reduces bandwidth)
 parallel 3D FFT for charge:
    minimum data exchange during FFTs selected (reduces bandwidth)


 total amount of memory used by VASP MPI-rank0   221701. kBytes
=======================================================================

   base      :      30000. kBytes
   nonl-proj :      10690. kBytes
   fftplans  :      66746. kBytes
   grid      :      26864. kBytes
   one-center:         24. kBytes
   wavefun   :      87377. kBytes
 
     INWAV:  cpu time    0.0000: real time    0.0002
 Broyden mixing: mesh for mixing (old mesh)
   NGX = 57   NGY = 57   NGZ = 57
  (NGX  =240   NGY  =240   NGZ  =240)
  gives a total of 185193 points

 initial charge density was supplied:
 charge density of overlapping atoms calculated
 number of electron     512.0000000 magnetization 
 keeping initial charge density in first step


--------------------------------------------------------------------------------------------------------


 Maximum index for augmentation-charges         5603 (set IRDMAX)


--------------------------------------------------------------------------------------------------------


 First call to EWALD:  gamma=   0.129
 Maximum number of real-space cells 3x 3x 3
 Maximum number of reciprocal cells 3x 3x 3

    FEWALD:  cpu time    0.0059: real time    0.0059


--------------------------------------- Iteration      1(   1)  ---------------------------------------


    POTLOK:  cpu time    0.4874: real time    0.4968
    SETDIJ:  cpu time    0.5078: real time    0.5087
     EDDAV:  cpu time   70.0084: real time   70.0517
       DOS:  cpu time    0.0029: real time    0.0029
    --------------------------------------------
      LOOP:  cpu time   71.0064: real time   71.0602

 eigenvalue-minimisations  :  5152
 total energy-change (2. order) : 0.1383481E+04  (-0.1908205E+05)
 number of electron     512.0000000 magnetization 
 augmentation part      512.0000000 magnetization 

 Free energy of the ion-electron system (eV)
  ---------------------------------------------------
  alpha Z        PSCENC =       210.77028614
  Ewald energy   TEWEN  =    -14469.47448913
  -Hartree energ DENC   =      -758.47041167
  -exchange      EXHF   =         0.00000000
  -V(xc)+E(xc)   XCENC  =     -1195.33204737
  PAW double counting   =      4221.13331941    -1969.18571412
  entropy T*S    EENTRO =        -0.00195682
  eigenvalues    EBANDS =      2151.56077688
  atomic energy  EATOM  =     13192.48085998
  Solvation  Ediel_sol  =         0.00000000
  ---------------------------------------------------
  free energy    TOTEN  =      1383.48062331 eV

  energy without entropy =     1383.48258012  energy(sigma->0) =     1383.48160171


--------------------------------------------------------------------------------------------------------




--------------------------------------- Iteration      1(   2)  ---------------------------------------


     EDDAV:  cpu time   79.9210: real time   79.9792
       DOS:  cpu time    0.0010: real time    0.0010
    --------------------------------------------
      LOOP:  cpu time   79.9220: real time   79.9802

 eigenvalue-minimisations  :  6128
 total energy-change (2. order) :-0.1921107E+04  (-0.1827117E+04)
 number of electron     512.0000000 magnetization 
 augmentation part      512.0000000 magnetization 

 Free energy of the ion-electron system (eV)
  ---------------------------------------------------
  alpha Z        PSCENC =       210.77028614
  Ewald energy   TEWEN  =    -14469.47448913
  -Hartree energ DENC   =      -758.47041167
  -exchange      EXHF   =         0.00000000
  -V(xc)+E(xc)   XCENC  =     -1195.33204737
  PAW double counting   =      4221.13331941    -1969.18571412
  entropy T*S    EENTRO =        -0.00000000
  eigenvalues    EBANDS =       230.45144027
  atomic energy  EATOM  =     13192.48085998
  Solvation  Ediel_sol  =         0.00000000
  ---------------------------------------------------
  free energy    TOTEN  =      -537.62675649 eV

  energy without entropy =     -537.62675649  energy(sigma->0) =     -537.62675649


--------------------------------------------------------------------------------------------------------




--------------------------------------- Iteration      1(   3)  ---------------------------------------


     EDDAV:  cpu time   81.3944: real time   81.4607
       DOS:  cpu time    0.0018: real time    0.0018
    --------------------------------------------
      LOOP:  cpu time   81.3963: real time   81.4626

 eigenvalue-minimisations  :  6264
 total energy-change (2. order) :-0.1491408E+03  (-0.1461260E+03)
 number of electron     512.0000000 magnetization 
 augmentation part      512.0000000 magnetization 

 Free energy of the ion-electron system (eV)
  ---------------------------------------------------
  alpha Z        PSCENC =       210.77028614
  Ewald energy   TEWEN  =    -14469.47448913
  -Hartree energ DENC   =      -758.47041167
  -exchange      EXHF   =         0.00000000
  -V(xc)+E(xc)   XCENC  =     -1195.33204737
  PAW double counting   =      4221.13331941    -1969.18571412
  entropy T*S    EENTRO =        -0.00000000
  eigenvalues    EBANDS =        81.31059909
  atomic energy  EATOM  =     13192.48085998
  Solvation  Ediel_sol  =         0.00000000
  ---------------------------------------------------
  free energy    TOTEN  =      -686.76759767 eV

  energy without entropy =     -686.76759767  energy(sigma->0) =     -686.76759767


--------------------------------------------------------------------------------------------------------




--------------------------------------- Iteration      1(   4)  ---------------------------------------


     EDDAV:  cpu time   80.5599: real time   80.6338
       DOS:  cpu time    0.0011: real time    0.0011
    --------------------------------------------
      LOOP:  cpu time   80.5610: real time   80.6349

 eigenvalue-minimisations  :  6176
 total energy-change (2. order) :-0.4198185E+01  (-0.4163548E+01)
 number of electron     512.0000000 magnetization 
 augmentation part      512.0000000 magnetization 

 Free energy of the ion-electron system (eV)
  ---------------------------------------------------
  alpha Z        PSCENC =       210.77028614
  Ewald energy   TEWEN  =    -14469.47448913
  -Hartree energ DENC   =      -758.47041167
  -exchange      EXHF   =         0.00000000
  -V(xc)+E(xc)   XCENC  =     -1195.33204737
  PAW double counting   =      4221.13331941    -1969.18571412
  entropy T*S    EENTRO =        -0.00000000
  eigenvalues    EBANDS =        77.11241455
  atomic energy  EATOM  =     13192.48085998
  Solvation  Ediel_sol  =         0.00000000
  ---------------------------------------------------
  free energy    TOTEN  =      -690.96578221 eV

  energy without entropy =     -690.96578221  energy(sigma->0) =     -690.96578221


--------------------------------------------------------------------------------------------------------




--------------------------------------- Iteration      1(   5)  ---------------------------------------


     EDDAV:  cpu time   81.7600: real time   81.8107
       DOS:  cpu time    0.0010: real time    0.0010
    CHARGE:  cpu time    3.1173: real time    3.1220
    MIXING:  cpu time    0.0217: real time    0.0217
    --------------------------------------------
      LOOP:  cpu time   84.9000: real time   84.9555

 eigenvalue-minimisations  :  6304
 total energy-change (2. order) :-0.1469906E+00  (-0.1465846E+00)
 number of electron     511.9999998 magnetization 
 augmentation part      -30.1798101 magnetization 

 Broyden mixing:
  rms(total) = 0.23973E+01    rms(broyden)= 0.23973E+01
  rms(prec ) = 0.29061E+01
  weight for this iteration     100.00

 Free energy of the ion-electron system (eV)
  ---------------------------------------------------
  alpha Z        PSCENC =       210.77028614
  Ewald energy   TEWEN  =    -14469.47448913
  -Hartree energ DENC   =      -758.47041167
  -exchange      EXHF   =         0.00000000
  -V(xc)+E(xc)   XCENC  =     -1195.33204737
  PAW double counting   =      4221.13331941    -1969.18571412
  entropy T*S    EENTRO =        -0.00000000
  eigenvalues    EBANDS =        76.96542393
  atomic energy  EATOM  =     13192.48085998
  Solvation  Ediel_sol  =         0.00000000
  ---------------------------------------------------
  free energy    TOTEN  =      -691.11277282 eV

  energy without entropy =     -691.11277282  energy(sigma->0) =     -691.11277282


--------------------------------------------------------------------------------------------------------




--------------------------------------- Iteration      1(   6)  ---------------------------------------


    POTLOK:  cpu time    0.4911: real time    0.4919
    SETDIJ:  cpu time    0.5105: real time    0.5105
     EDDAV:  cpu time   77.4830: real time   77.5432
       DOS:  cpu time    0.0011: real time    0.0011
    CHARGE:  cpu time    3.1087: real time    3.1117
    MIXING:  cpu time    0.0336: real time    0.0336
    --------------------------------------------
      LOOP:  cpu time   81.6279: real time   81.6920

 eigenvalue-minimisations  :  5888
 total energy-change (2. order) : 0.8479422E+01  (-0.5867143E+00)
 number of electron     511.9999998 magnetization 
 augmentation part      -29.8407189 magnetization 

 Broyden mixing:
  rms(total) = 0.14244E+01    rms(broyden)= 0.14244E+01
  rms(prec ) = 0.17168E+01
  weight for this iteration     100.00

 eigenvalues of (default mixing * dielectric matrix)
  average eigenvalue GAMMA=   2.4309
  2.4309

 Free energy of the ion-electron system (eV)
  ---------------------------------------------------
  alpha Z        PSCENC =       210.77028614
  Ewald energy   TEWEN  =    -14469.47448913
  -Hartree energ DENC   =      -853.72656337
  -exchange      EXHF   =         0.00000000
  -V(xc)+E(xc)   XCENC  =     -1180.68258259
  PAW double counting   =      4465.68434323    -2220.50564149
  entropy T*S    EENTRO =        -0.00000000
  eigenvalues    EBANDS =       172.82043607
  atomic energy  EATOM  =     13192.48085998
  Solvation  Ediel_sol  =         0.00000000
  ---------------------------------------------------
  free energy    TOTEN  =      -682.63335116 eV

  energy without entropy =     -682.63335116  energy(sigma->0) =     -682.63335116


--------------------------------------------------------------------------------------------------------




--------------------------------------- Iteration      1(   7)  ---------------------------------------


    POTLOK:  cpu time    0.4866: real time    0.4900
    SETDIJ:  cpu time    0.5130: real time    0.5137
     EDDAV:  cpu time   77.5505: real time   77.6110
       DOS:  cpu time    0.0011: real time    0.0011
    CHARGE:  cpu time    3.0965: real time    3.0995
    MIXING:  cpu time    0.0380: real time    0.0380
    --------------------------------------------
      LOOP:  cpu time   81.6857: real time   81.7533

 eigenvalue-minimisations  :  5896
 total energy-change (2. order) : 0.3534173E+01  (-0.1136550E+01)
 number of electron     511.9999998 magnetization 
 augmentation part      -29.3872977 magnetization 

 Broyden mixing:
  rms(total) = 0.15649E+00    rms(broyden)= 0.15649E+00
  rms(prec ) = 0.20385E+00
  weight for this iteration     100.00

 eigenvalues of (default mixing * dielectric matrix)
  average eigenvalue GAMMA=   2.1019
  2.1019  2.1019

 Free energy of the ion-electron system (eV)
  ---------------------------------------------------
  alpha Z        PSCENC =       210.77028614
  Ewald energy   TEWEN  =    -14469.47448913
  -Hartree energ DENC   =     -1004.24842772
  -exchange      EXHF   =         0.00000000
  -V(xc)+E(xc)   XCENC  =     -1156.76738276
  PAW double counting   =      4785.27349194    -2548.62159191
  entropy T*S    EENTRO =        -0.00000000
  eigenvalues    EBANDS =       311.48807525
  atomic energy  EATOM  =     13192.48085998
  Solvation  Ediel_sol  =         0.00000000
  ---------------------------------------------------
  free energy    TOTEN  =      -679.09917821 eV

  energy without entropy =     -679.09917821  energy(sigma->0) =     -679.09917821


--------------------------------------------------------------------------------------------------------




--------------------------------------- Iteration      1(   8)  ---------------------------------------


    POTLOK:  cpu time    0.4909: real time    0.4919
    SETDIJ:  cpu time    0.5092: real time    0.5096
     EDDAV:  cpu time   76.3494: real time   76.4023
       DOS:  cpu time    0.0010: real time    0.0010
    CHARGE:  cpu time    3.1867: real time    3.1926
    MIXING:  cpu time    0.0349: real time    0.0349
    --------------------------------------------
      LOOP:  cpu time   80.5721: real time   80.6323

 eigenvalue-minimisations  :  5784
 total energy-change (2. order) :-0.5586812E-01  (-0.1089090E+00)
 number of electron     511.9999998 magnetization 
 augmentation part      -29.4566634 magnetization 

 Broyden mixing:
  rms(total) = 0.63366E-01    rms(broyden)= 0.63366E-01
  rms(prec ) = 0.78559E-01
  weight for this iteration     100.00

 eigenvalues of (default mixing * dielectric matrix)
  average eigenvalue GAMMA=   2.0087
  2.6804  1.6728  1.6728

 Free energy of the ion-electron system (eV)
  ---------------------------------------------------
  alpha Z        PSCENC =       210.77028614
  Ewald energy   TEWEN  =    -14469.47448913
  -Hartree energ DENC   =      -997.68538038
  -exchange      EXHF   =         0.00000000
  -V(xc)+E(xc)   XCENC  =     -1156.88949673
  PAW double counting   =      4738.02668950    -2499.90344443
  entropy T*S    EENTRO =        -0.00000000
  eigenvalues    EBANDS =       303.51992872
  atomic energy  EATOM  =     13192.48085998
  Solvation  Ediel_sol  =         0.00000000
  ---------------------------------------------------
  free energy    TOTEN  =      -679.15504633 eV

  energy without entropy =     -679.15504633  energy(sigma->0) =     -679.15504633


--------------------------------------------------------------------------------------------------------




--------------------------------------- Iteration      1(   9)  ---------------------------------------


    POTLOK:  cpu time    0.4918: real time    0.4935
    SETDIJ:  cpu time    0.5088: real time    0.5091
     EDDAV:  cpu time   79.1452: real time   79.1998
       DOS:  cpu time    0.0010: real time    0.0010
    CHARGE:  cpu time    3.1135: real time    3.1176
    MIXING:  cpu time    0.0252: real time    0.0252
    --------------------------------------------
      LOOP:  cpu time   83.2856: real time   83.3462

 eigenvalue-minimisations  :  6064
 total energy-change (2. order) :-0.2251830E-01  (-0.1086771E-01)
 number of electron     511.9999998 magnetization 
 augmentation part      -29.4620269 magnetization 

 Broyden mixing:
  rms(total) = 0.29051E-01    rms(broyden)= 0.29051E-01
  rms(prec ) = 0.33770E-01
  weight for this iteration     100.00

 eigenvalues of (default mixing * dielectric matrix)
  average eigenvalue GAMMA=   1.7850
  2.5923  1.8286  1.8286  0.8907

 Free energy of the ion-electron system (eV)
  ---------------------------------------------------
  alpha Z        PSCENC =       210.77028614
  Ewald energy   TEWEN  =    -14469.47448913
  -Hartree energ DENC   =     -1004.43342780
  -exchange      EXHF   =         0.00000000
  -V(xc)+E(xc)   XCENC  =     -1155.70402899
  PAW double counting   =      4741.10062016    -2503.06090187
  entropy T*S    EENTRO =        -0.00000000
  eigenvalues    EBANDS =       309.14351687
  atomic energy  EATOM  =     13192.48085998
  Solvation  Ediel_sol  =         0.00000000
  ---------------------------------------------------
  free energy    TOTEN  =      -679.17756463 eV

  energy without entropy =     -679.17756463  energy(sigma->0) =     -679.17756463


--------------------------------------------------------------------------------------------------------




--------------------------------------- Iteration      1(  10)  ---------------------------------------


    POTLOK:  cpu time    0.4887: real time    0.4901
    SETDIJ:  cpu time    0.5089: real time    0.5094
     EDDAV:  cpu time   78.7902: real time   78.8576
       DOS:  cpu time    0.0011: real time    0.0011
    CHARGE:  cpu time    3.1073: real time    3.1094
    MIXING:  cpu time    0.0276: real time    0.0276
    --------------------------------------------
      LOOP:  cpu time   82.9237: real time   82.9953

 eigenvalue-minimisations  :  6032
 total energy-change (2. order) :-0.2383393E-02  (-0.8905810E-03)
 number of electron     511.9999998 magnetization 
 augmentation part      -29.4717969 magnetization 

 Broyden mixing:
  rms(total) = 0.11631E-01    rms(broyden)= 0.11631E-01
  rms(prec ) = 0.13946E-01
  weight for this iteration     100.00

 eigenvalues of (default mixing * dielectric matrix)
  average eigenvalue GAMMA=   1.8599
  2.6885  2.6885  1.5076  1.5076  0.9075

 Free energy of the ion-electron system (eV)
  ---------------------------------------------------
  alpha Z        PSCENC =       210.77028614
  Ewald energy   TEWEN  =    -14469.47448913
  -Hartree energ DENC   =     -1003.22943372
  -exchange      EXHF   =         0.00000000
  -V(xc)+E(xc)   XCENC  =     -1155.88285071
  PAW double counting   =      4733.94351729    -2495.72502571
  entropy T*S    EENTRO =        -0.00000000
  eigenvalues    EBANDS =       307.93718784
  atomic energy  EATOM  =     13192.48085998
  Solvation  Ediel_sol  =         0.00000000
  ---------------------------------------------------
  free energy    TOTEN  =      -679.17994803 eV

  energy without entropy =     -679.17994803  energy(sigma->0) =     -679.17994803


--------------------------------------------------------------------------------------------------------




--------------------------------------- Iteration      1(  11)  ---------------------------------------


    POTLOK:  cpu time    0.4885: real time    0.4890
    SETDIJ:  cpu time    0.5065: real time    0.5073
     EDDAV:  cpu time   76.3638: real time   76.4281
       DOS:  cpu time    0.0018: real time    0.0018
    CHARGE:  cpu time    3.1166: real time    3.1180
    MIXING:  cpu time    0.0218: real time    0.0218
    --------------------------------------------
      LOOP:  cpu time   80.4990: real time   80.5660

 eigenvalue-minimisations  :  5784
 total energy-change (2. order) :-0.1546574E-02  (-0.2498426E-03)
 number of electron     511.9999998 magnetization 
 augmentation part      -29.4744824 magnetization 

 Broyden mixing:
  rms(total) = 0.39383E-02    rms(broyden)= 0.39383E-02
  rms(prec ) = 0.55479E-02
  weight for this iteration     100.00

 eigenvalues of (default mixing * dielectric matrix)
  average eigenvalue GAMMA=   1.7685
  2.8354  1.9844  1.9844  1.7279  1.2089  0.8698

 Free energy of the ion-electron system (eV)
  ---------------------------------------------------
  alpha Z        PSCENC =       210.77028614
  Ewald energy   TEWEN  =    -14469.47448913
  -Hartree energ DENC   =     -1003.12758259
  -exchange      EXHF   =         0.00000000
  -V(xc)+E(xc)   XCENC  =     -1155.89647730
  PAW double counting   =      4729.50876841    -2491.18834870
  entropy T*S    EENTRO =        -0.00000000
  eigenvalues    EBANDS =       307.74548860
  atomic energy  EATOM  =     13192.48085998
  Solvation  Ediel_sol  =         0.00000000
  ---------------------------------------------------
  free energy    TOTEN  =      -679.18149460 eV

  energy without entropy =     -679.18149460  energy(sigma->0) =     -679.18149460


--------------------------------------------------------------------------------------------------------




--------------------------------------- Iteration      1(  12)  ---------------------------------------


    POTLOK:  cpu time    0.4892: real time    0.4908
    SETDIJ:  cpu time    0.5091: real time    0.5093
     EDDAV:  cpu time   79.7302: real time   79.7978
       DOS:  cpu time    0.0014: real time    0.0014
    CHARGE:  cpu time    3.1189: real time    3.1208
    MIXING:  cpu time    0.0425: real time    0.0425
    --------------------------------------------
      LOOP:  cpu time   83.8914: real time   83.9626

 eigenvalue-minimisations  :  6120
 total energy-change (2. order) :-0.5165819E-04  (-0.4614030E-04)
 number of electron     511.9999998 magnetization 
 augmentation part      -29.4725570 magnetization 

 Broyden mixing:
  rms(total) = 0.18154E-02    rms(broyden)= 0.18154E-02
  rms(prec ) = 0.21798E-02
  weight for this iteration     100.00

 eigenvalues of (default mixing * dielectric matrix)
  average eigenvalue GAMMA=   1.8331
  3.1656  2.6975  1.7688  1.7688  0.8912  1.2699  1.2699

 Free energy of the ion-electron system (eV)
  ---------------------------------------------------
  alpha Z        PSCENC =       210.77028614
  Ewald energy   TEWEN  =    -14469.47448913
  -Hartree energ DENC   =     -1003.74114324
  -exchange      EXHF   =         0.00000000
  -V(xc)+E(xc)   XCENC  =     -1155.82722425
  PAW double counting   =      4730.81420097    -2492.53758959
  entropy T*S    EENTRO =        -0.00000000
  eigenvalues    EBANDS =       308.33355286
  atomic energy  EATOM  =     13192.48085998
  Solvation  Ediel_sol  =         0.00000000
  ---------------------------------------------------
  free energy    TOTEN  =      -679.18154626 eV

  energy without entropy =     -679.18154626  energy(sigma->0) =     -679.18154626


--------------------------------------------------------------------------------------------------------




--------------------------------------- Iteration      1(  13)  ---------------------------------------


    POTLOK:  cpu time    0.4879: real time    0.4918
    SETDIJ:  cpu time    0.5099: real time    0.5100
     EDDAV:  cpu time   76.2618: real time   76.3166
       DOS:  cpu time    0.0010: real time    0.0010
    CHARGE:  cpu time    3.1154: real time    3.1172
    MIXING:  cpu time    0.0257: real time    0.0257
    --------------------------------------------
      LOOP:  cpu time   80.4017: real time   80.4623

 eigenvalue-minimisations  :  5776
 total energy-change (2. order) :-0.3176867E-04  (-0.1210731E-04)
 number of electron     511.9999998 magnetization 
 augmentation part      -29.4725093 magnetization 

 Broyden mixing:
  rms(total) = 0.64744E-03    rms(broyden)= 0.64742E-03
  rms(prec ) = 0.83698E-03
  weight for this iteration     100.00

 eigenvalues of (default mixing * dielectric matrix)
  average eigenvalue GAMMA=   1.7759
  3.1424  2.5495  1.9239  1.9239  1.3879  1.3879  0.9458  0.9458

 Free energy of the ion-electron system (eV)
  ---------------------------------------------------
  alpha Z        PSCENC =       210.77028614
  Ewald energy   TEWEN  =    -14469.47448913
  -Hartree energ DENC   =     -1003.73811181
  -exchange      EXHF   =         0.00000000
  -V(xc)+E(xc)   XCENC  =     -1155.83798597
  PAW double counting   =      4730.23361132    -2491.94564026
  entropy T*S    EENTRO =        -0.00000000
  eigenvalues    EBANDS =       308.32989170
  atomic energy  EATOM  =     13192.48085998
  Solvation  Ediel_sol  =         0.00000000
  ---------------------------------------------------
  free energy    TOTEN  =      -679.18157803 eV

  energy without entropy =     -679.18157803  energy(sigma->0) =     -679.18157803


--------------------------------------------------------------------------------------------------------




--------------------------------------- Iteration      1(  14)  ---------------------------------------


    POTLOK:  cpu time    0.4884: real time    0.4903
    SETDIJ:  cpu time    0.5069: real time    0.5073
     EDDAV:  cpu time   80.1364: real time   80.1847
       DOS:  cpu time    0.0013: real time    0.0013
    CHARGE:  cpu time    3.0910: real time    3.0928
    MIXING:  cpu time    0.0248: real time    0.0248
    --------------------------------------------
      LOOP:  cpu time   84.2488: real time   84.3012

 eigenvalue-minimisations  :  6160
 total energy-change (2. order) :-0.4919746E-05  (-0.1006223E-05)
 number of electron     511.9999998 magnetization 
 augmentation part      -29.4723505 magnetization 

 Broyden mixing:
  rms(total) = 0.19396E-03    rms(broyden)= 0.19390E-03
  rms(prec ) = 0.26596E-03
  weight for this iteration     100.00

 eigenvalues of (default mixing * dielectric matrix)
  average eigenvalue GAMMA=   1.7736
  3.2044  2.5961  2.2386  1.6799  1.6799  1.3191  1.3191  0.9984  0.9270

 Free energy of the ion-electron system (eV)
  ---------------------------------------------------
  alpha Z        PSCENC =       210.77028614
  Ewald energy   TEWEN  =    -14469.47448913
  -Hartree energ DENC   =     -1003.79436476
  -exchange      EXHF   =         0.00000000
  -V(xc)+E(xc)   XCENC  =     -1155.83004649
  PAW double counting   =      4730.41071812    -2492.12667076
  entropy T*S    EENTRO =        -0.00000000
  eigenvalues    EBANDS =       308.38212395
  atomic energy  EATOM  =     13192.48085998
  Solvation  Ediel_sol  =         0.00000000
  ---------------------------------------------------
  free energy    TOTEN  =      -679.18158295 eV

  energy without entropy =     -679.18158295  energy(sigma->0) =     -679.18158295


--------------------------------------------------------------------------------------------------------




--------------------------------------- Iteration      1(  15)  ---------------------------------------


    POTLOK:  cpu time    0.4890: real time    0.4894
    SETDIJ:  cpu time    0.5131: real time    0.5138
     EDDAV:  cpu time   79.4941: real time   79.5531
       DOS:  cpu time    0.0010: real time    0.0010
    CHARGE:  cpu time    3.0896: real time    3.0923
    MIXING:  cpu time    0.0422: real time    0.0422
    --------------------------------------------
      LOOP:  cpu time   83.6289: real time   83.6919

 eigenvalue-minimisations  :  6104
 total energy-change (2. order) :-0.3746083E-05  (-0.1904887E-06)
 number of electron     511.9999998 magnetization 
 augmentation part      -29.4722198 magnetization 

 Broyden mixing:
  rms(total) = 0.71702E-04    rms(broyden)= 0.71534E-04
  rms(prec ) = 0.94665E-04
  weight for this iteration     100.00

 eigenvalues of (default mixing * dielectric matrix)
  average eigenvalue GAMMA=   1.7212
  3.2585  2.6127  2.1035  1.7290  1.7290  1.4347  1.4347  1.0761  0.9171  0.9171

 Free energy of the ion-electron system (eV)
  ---------------------------------------------------
  alpha Z        PSCENC =       210.77028614
  Ewald energy   TEWEN  =    -14469.47448913
  -Hartree energ DENC   =     -1003.81990766
  -exchange      EXHF   =         0.00000000
  -V(xc)+E(xc)   XCENC  =     -1155.82857100
  PAW double counting   =      4730.48373433    -2492.20194349
  entropy T*S    EENTRO =        -0.00000000
  eigenvalues    EBANDS =       308.40844414
  atomic energy  EATOM  =     13192.48085998
  Solvation  Ediel_sol  =         0.00000000
  ---------------------------------------------------
  free energy    TOTEN  =      -679.18158669 eV

  energy without entropy =     -679.18158669  energy(sigma->0) =     -679.18158669


--------------------------------------------------------------------------------------------------------




--------------------------------------- Iteration      1(  16)  ---------------------------------------


    POTLOK:  cpu time    0.4914: real time    0.4924
    SETDIJ:  cpu time    0.5060: real time    0.5071
     EDDAV:  cpu time   78.9554: real time   79.0162
       DOS:  cpu time    0.0015: real time    0.0015
    CHARGE:  cpu time    3.1948: real time    3.1963
    MIXING:  cpu time    0.0258: real time    0.0258
    --------------------------------------------
      LOOP:  cpu time   83.1749: real time   83.2392

 eigenvalue-minimisations  :  6056
 total energy-change (2. order) : 0.5490911E-06  (-0.2525383E-07)
 number of electron     511.9999998 magnetization 
 augmentation part      -29.4722229 magnetization 

 Broyden mixing:
  rms(total) = 0.32676E-04    rms(broyden)= 0.32305E-04
  rms(prec ) = 0.43181E-04
  weight for this iteration     100.00

 eigenvalues of (default mixing * dielectric matrix)
  average eigenvalue GAMMA=   1.7053
  3.2777  2.6190  2.0714  2.0714  1.4400  1.4400  1.4502  1.4502  0.9072  1.0156
  1.0156

 Free energy of the ion-electron system (eV)
  ---------------------------------------------------
  alpha Z        PSCENC =       210.77028614
  Ewald energy   TEWEN  =    -14469.47448913
  -Hartree energ DENC   =     -1003.81835325
  -exchange      EXHF   =         0.00000000
  -V(xc)+E(xc)   XCENC  =     -1155.82868308
  PAW double counting   =      4730.47456720    -2492.19233157
  entropy T*S    EENTRO =        -0.00000000
  eigenvalues    EBANDS =       308.40655756
  atomic energy  EATOM  =     13192.48085998
  Solvation  Ediel_sol  =         0.00000000
  ---------------------------------------------------
  free energy    TOTEN  =      -679.18158614 eV

  energy without entropy =     -679.18158614  energy(sigma->0) =     -679.18158614


--------------------------------------------------------------------------------------------------------




--------------------------------------- Iteration      1(  17)  ---------------------------------------


    POTLOK:  cpu time    0.4902: real time    0.4915
    SETDIJ:  cpu time    0.5130: real time    0.5132
     EDDAV:  cpu time   66.6856: real time   66.7489
       DOS:  cpu time    0.0017: real time    0.0017
    CHARGE:  cpu time    3.1979: real time    3.2031
    MIXING:  cpu time    0.0238: real time    0.0238
    --------------------------------------------
      LOOP:  cpu time   70.9121: real time   70.9821

 eigenvalue-minimisations  :  4824
 total energy-change (2. order) : 0.1158623E-06  (-0.3938182E-08)
 number of electron     511.9999998 magnetization 
 augmentation part      -29.4722273 magnetization 

 Broyden mixing:
  rms(total) = 0.16023E-04    rms(broyden)= 0.15252E-04
  rms(prec ) = 0.19745E-04
  weight for this iteration     100.00

 eigenvalues of (default mixing * dielectric matrix)
  average eigenvalue GAMMA=   1.7008
  3.2868  2.6100  2.3327  1.8705  1.8705  1.4562  1.4562  0.9187  1.0083  1.1316
  1.2339  1.2339

 Free energy of the ion-electron system (eV)
  ---------------------------------------------------
  alpha Z        PSCENC =       210.77028614
  Ewald energy   TEWEN  =    -14469.47448913
  -Hartree energ DENC   =     -1003.81751429
  -exchange      EXHF   =         0.00000000
  -V(xc)+E(xc)   XCENC  =     -1155.82869812
  PAW double counting   =      4730.47581136    -2492.19344354
  entropy T*S    EENTRO =        -0.00000000
  eigenvalues    EBANDS =       308.40560156
  atomic energy  EATOM  =     13192.48085998
  Solvation  Ediel_sol  =         0.00000000
  ---------------------------------------------------
  free energy    TOTEN  =      -679.18158603 eV

  energy without entropy =     -679.18158603  energy(sigma->0) =     -679.18158603


--------------------------------------------------------------------------------------------------------




--------------------------------------- Iteration      1(  18)  ---------------------------------------


    POTLOK:  cpu time    0.4899: real time    0.4915
    SETDIJ:  cpu time    0.5156: real time    0.5157
     EDDAV:  cpu time   52.5687: real time   52.6143
       DOS:  cpu time    0.0010: real time    0.0010
    CHARGE:  cpu time    3.1736: real time    3.1774
    MIXING:  cpu time    0.0407: real time    0.0407
    --------------------------------------------
      LOOP:  cpu time   56.7895: real time   56.8405

 eigenvalue-minimisations  :  3400
 total energy-change (2. order) :-0.1798871E-06  (-0.1108225E-08)
 number of electron     511.9999998 magnetization 
 augmentation part      -29.4722210 magnetization 

 Broyden mixing:
  rms(total) = 0.74622E-05    rms(broyden)= 0.56181E-05
  rms(prec ) = 0.74090E-05
  weight for this iteration     100.00
  WARNING: grid for Broyden might be to small

 eigenvalues of (default mixing * dielectric matrix)
  average eigenvalue GAMMA=   1.7182
  3.2865  2.6982  2.4885  2.3106  1.7630  1.7630  1.2822  1.2822  0.9197  0.9909
  1.0196  1.2659  1.2659

 Free energy of the ion-electron system (eV)
  ---------------------------------------------------
  alpha Z        PSCENC =       210.77028614
  Ewald energy   TEWEN  =    -14469.47448913
  -Hartree energ DENC   =     -1003.81883673
  -exchange      EXHF   =         0.00000000
  -V(xc)+E(xc)   XCENC  =     -1155.82856156
  PAW double counting   =      4730.48126635    -2492.19901192
  entropy T*S    EENTRO =        -0.00000000
  eigenvalues    EBANDS =       308.40690067
  atomic energy  EATOM  =     13192.48085998
  Solvation  Ediel_sol  =         0.00000000
  ---------------------------------------------------
  free energy    TOTEN  =      -679.18158621 eV

  energy without entropy =     -679.18158621  energy(sigma->0) =     -679.18158621


--------------------------------------------------------------------------------------------------------




--------------------------------------- Iteration      1(  19)  ---------------------------------------


    POTLOK:  cpu time    0.4885: real time    0.4916
    SETDIJ:  cpu time    0.5207: real time    0.5207
     EDDAV:  cpu time   51.4103: real time   51.4484
       DOS:  cpu time    0.0010: real time    0.0010
    CHARGE:  cpu time    3.1805: real time    3.1825
    MIXING:  cpu time    0.0318: real time    0.0318
    --------------------------------------------
      LOOP:  cpu time   55.6328: real time   55.6761

 eigenvalue-minimisations  :  3288
 total energy-change (2. order) : 0.6777009E-07  (-0.2275292E-09)
 number of electron     511.9999998 magnetization 
 augmentation part      -29.4722225 magnetization 

 Broyden mixing:
  rms(total) = 0.55141E-05    rms(broyden)= 0.25069E-05
  rms(prec ) = 0.34943E-05
  weight for this iteration     100.00
  WARNING: grid for Broyden might be to small

 eigenvalues of (default mixing * dielectric matrix)
  average eigenvalue GAMMA=   1.6661
  3.3155  2.7058  2.3269  2.3269  1.7509  1.7509  1.3689  1.3689  1.3018  1.3018
  1.0208  1.0208  0.8999  0.8650

 Free energy of the ion-electron system (eV)
  ---------------------------------------------------
  alpha Z        PSCENC =       210.77028614
  Ewald energy   TEWEN  =    -14469.47448913
  -Hartree energ DENC   =     -1003.81841202
  -exchange      EXHF   =         0.00000000
  -V(xc)+E(xc)   XCENC  =     -1155.82859099
  PAW double counting   =      4730.48070528    -2492.19839320
  entropy T*S    EENTRO =        -0.00000000
  eigenvalues    EBANDS =       308.40644780
  atomic energy  EATOM  =     13192.48085998
  Solvation  Ediel_sol  =         0.00000000
  ---------------------------------------------------
  free energy    TOTEN  =      -679.18158614 eV

  energy without entropy =     -679.18158614  energy(sigma->0) =     -679.18158614


--------------------------------------------------------------------------------------------------------




--------------------------------------- Iteration      1(  20)  ---------------------------------------


    POTLOK:  cpu time    0.4875: real time    0.4907
    SETDIJ:  cpu time    0.5117: real time    0.5149
     EDDAV:  cpu time   50.7420: real time   50.7960
       DOS:  cpu time    0.0016: real time    0.0016
    --------------------------------------------
      LOOP:  cpu time   51.7428: real time   51.8031

 eigenvalue-minimisations  :  3208
 total energy-change (2. order) :-0.9626092E-08  (-0.4096105E-10)
 number of electron     511.9999998 magnetization 
 augmentation part      -29.4722225 magnetization 

 Free energy of the ion-electron system (eV)
  ---------------------------------------------------
  alpha Z        PSCENC =       210.77028614
  Ewald energy   TEWEN  =    -14469.47448913
  -Hartree energ DENC   =     -1003.81852612
  -exchange      EXHF   =         0.00000000
  -V(xc)+E(xc)   XCENC  =     -1155.82858070
  PAW double counting   =      4730.48084904    -2492.19854532
  entropy T*S    EENTRO =        -0.00000000
  eigenvalues    EBANDS =       308.40655996
  atomic energy  EATOM  =     13192.48085998
  Solvation  Ediel_sol  =         0.00000000
  ---------------------------------------------------
  free energy    TOTEN  =      -679.18158615 eV

  energy without entropy =     -679.18158615  energy(sigma->0) =     -679.18158615


--------------------------------------------------------------------------------------------------------




 average (electrostatic) potential at core
  the test charge radii are     0.9892
  (the norm of the test charge is              1.0000)
       1 -83.5784       2 -83.5811       3 -83.5609       4 -83.4113       5 -83.6061
       6 -83.5677       7 -83.5540       8 -83.3780       9 -83.5721      10 -83.4861
      11 -83.5651      12 -83.4820      13 -83.4601      14 -83.5346      15 -83.5769
      16 -83.6181      17 -83.6911      18 -83.5150      19 -83.5006      20 -83.5847
      21 -83.6568      22 -83.4433      23 -83.6145      24 -83.5165      25 -83.4954
      26 -83.6966      27 -83.4550      28 -83.5321      29 -83.5135      30 -83.6282
      31 -83.5567      32 -83.3912      33 -83.5010      34 -83.4164      35 -83.5646
      36 -83.4422      37 -83.3360      38 -83.5315      39 -83.3983      40 -83.4922
      41 -83.4558      42 -83.4226      43 -83.4666      44 -83.4104      45 -83.4760
      46 -83.5703      47 -83.4365      48 -83.4589      49 -83.5200      50 -83.6301
      51 -83.5966      52 -83.5418      53 -83.6236      54 -83.5588      55 -83.5893
      56 -83.4550      57 -83.5649      58 -83.5512      59 -83.4564      60 -83.3693
      61 -83.6022      62 -83.4388      63 -83.4376      64 -83.4774      65 -83.6769
      66 -83.5902      67 -83.4761      68 -83.3979      69 -83.6198      70 -83.4350
      71 -83.5503      72 -83.4742      73 -83.4004      74 -83.5716      75 -83.4945
      76 -83.5689      77 -83.4953      78 -83.5246      79 -83.5854      80 -83.4128
      81 -83.6350      82 -83.5626      83 -83.6609      84 -83.5045      85 -83.5471
      86 -83.5221      87 -83.5845      88 -83.5394      89 -83.4825      90 -83.6198
      91 -83.5777      92 -83.5894      93 -83.6444      94 -83.5829      95 -83.4864
      96 -83.5305      97 -83.4566      98 -83.5208      99 -83.5059     100 -83.5008
     101 -83.4393     102 -83.4311     103 -83.4362     104 -83.3703     105 -83.4302
     106 -83.4628     107 -83.2693     108 -83.3013     109 -83.5148     110 -83.3685
     111 -83.4292     112 -83.4636     113 -83.6626     114 -83.6497     115 -83.6519
     116 -83.4797     117 -83.5782     118 -83.6493     119 -83.4813     120 -83.4856
     121 -83.5527     122 -83.4763     123 -83.4539     124 -83.4385     125 -83.5846
     126 -83.5032     127 -83.5270     128 -83.4977
 
 
 
 E-fermi :   5.8620     XC(G=0):  -9.3325     alpha+bet :-11.7321


 k-point     1 :       0.0000    0.0000    0.0000
  band No.  band energies     occupation 
      1      -6.2955      2.00000
      2      -5.6845      2.00000
      3      -5.6398      2.00000
      4      -5.5931      2.00000
      5      -5.5244      2.00000
      6      -5.5200      2.00000
      7      -5.4674      2.00000
      8      -5.4072      2.00000
      9      -5.3441      2.00000
     10      -5.3240      2.00000
     11      -5.2576      2.00000
     12      -5.2238      2.00000
     13      -5.1925      2.00000
     14      -5.1596      2.00000
     15      -5.1050      2.00000
     16      -4.4795      2.00000
     17      -4.4212      2.00000
     18      -4.4044      2.00000
     19      -4.3779      2.00000
     20      -4.3339      2.00000
     21      -4.3240      2.00000
     22      -4.3156      2.00000
     23      -4.2828      2.00000
     24      -4.2451      2.00000
     25      -4.2299      2.00000
     26      -4.1719      2.00000
     27      -4.1266      2.00000
     28      -4.0610      2.00000
     29      -4.0121      2.00000
     30      -3.9537      2.00000
     31      -3.9312      2.00000
     32      -3.8658      2.00000
     33      -3.8516      2.00000
     34      -3.7910      2.00000
     35      -3.7718      2.00000
     36      -3.7507      2.00000
     37      -3.7257      2.00000
     38      -3.7107      2.00000
     39      -3.7054      2.00000
     40      -3.6444      2.00000
     41      -3.6363      2.00000
     42      -3.6042      2.00000
     43      -3.5673      2.00000
     44      -3.5563      2.00000
     45      -3.5266      2.00000
     46      -3.4974      2.00000
     47      -3.4636      2.00000
     48      -3.4456      2.00000
     49      -3.4389      2.00000
     50      -3.4064      2.00000
     51      -3.3667      2.00000
     52      -3.3424      2.00000
     53      -3.2939      2.00000
     54      -3.2728      2.00000
     55      -3.2005      2.00000
     56      -2.3682      2.00000
     57      -2.3074      2.00000
     58      -2.2742      2.00000
     59      -2.2579      2.00000
     60      -2.2197      2.00000
     61      -2.1900      2.00000
     62      -2.1715      2.00000
     63      -2.1027      2.00000
     64      -2.0817      2.00000
     65      -2.0452      2.00000
     66      -2.0311      2.00000
     67      -1.9658      2.00000
     68      -1.9363      2.00000
     69      -1.9328      2.00000
     70      -1.8886      2.00000
     71      -1.8433      2.00000
     72      -1.7958      2.00000
     73      -1.7877      2.00000
     74      -1.3712      2.00000
     75      -1.3255      2.00000
     76      -1.2784      2.00000
     77      -1.2416      2.00000
     78      -1.0301      2.00000
     79      -0.9994      2.00000
     80      -0.9342      2.00000
     81      -0.9295      2.00000
     82      -0.9069      2.00000
     83      -0.8691      2.00000
     84      -0.8338      2.00000
     85      -0.8085      2.00000
     86      -0.8062      2.00000
     87      -0.7930      2.00000
     88      -0.7555      2.00000
     89      -0.7275      2.00000
     90      -0.7097      2.00000
     91      -0.6996      2.00000
     92      -0.6786      2.00000
     93      -0.6471      2.00000
     94      -0.6269      2.00000
     95      -0.5645      2.00000
     96      -0.5584      2.00000
     97      -0.5525      2.00000
     98      -0.5257      2.00000
     99      -0.4336      2.00000
    100      -0.3914      2.00000
    101      -0.3319      2.00000
    102      -0.0111      2.00000
    103       0.0341      2.00000
[...]
   0.665E+01 0.492E+01 0.632E+01   -.671E+01 -.449E+01 -.614E+01   -.181E+00 -.329E+00 -.264E+01   0.161E-05 -.102E-05 -.177E-05
   -.160E+01 -.567E+01 -.740E+01   0.133E+01 0.526E+01 0.709E+01   -.772E+00 0.140E+01 0.890E+00   -.278E-05 0.348E-06 -.103E-05
   0.356E+01 0.220E+01 0.240E+01   -.264E+01 -.203E+01 -.214E+01   -.328E+01 -.465E+00 -.680E-01   -.499E-05 0.807E-07 -.190E-05
   0.104E+01 0.878E+01 0.224E+01   -.689E+00 -.774E+01 -.253E+01   -.142E+01 -.160E+01 -.331E+00   -.419E-05 0.101E-05 0.324E-06
   0.222E+01 0.105E+02 -.184E+00   -.173E+01 -.910E+01 0.759E+00   0.387E+00 -.236E+01 -.152E+01   0.532E-06 0.579E-08 -.125E-05
   -.547E+01 0.414E+01 0.381E+01   0.485E+01 -.365E+01 -.352E+01   0.216E+01 -.931E+00 -.855E+00   0.546E-05 -.893E-06 -.197E-05
   -.511E+01 -.585E+01 -.115E+01   0.467E+01 0.580E+01 0.683E+00   0.231E+01 0.704E+00 0.220E+00   0.373E-05 0.577E-05 0.325E-05
   -.402E+01 -.190E+00 -.225E+01   0.374E+01 0.160E+00 0.220E+01   0.108E-01 -.164E+01 -.590E-01   0.485E-06 0.262E-05 -.260E-05
   0.170E+02 0.177E+00 0.190E+01   -.148E+02 -.445E+00 -.187E+01   -.488E+01 0.457E+00 -.182E+01   -.117E-05 -.865E-06 -.581E-05
   0.434E+01 0.985E+01 0.279E+01   -.438E+01 -.808E+01 -.275E+01   -.154E+00 -.410E+01 -.977E+00   0.596E-05 -.174E-05 -.248E-05
   0.187E+01 -.732E+01 -.821E+01   -.214E+01 0.720E+01 0.738E+01   -.392E-01 0.613E+00 0.135E+01   0.207E-05 0.249E-05 0.152E-05
   0.343E+01 0.124E+02 0.679E+00   -.296E+01 -.110E+02 -.106E+01   -.796E+00 -.307E+01 0.104E+01   0.107E-05 -.209E-05 -.130E-05
   0.127E+02 -.140E+00 0.678E+01   -.118E+02 -.287E+00 -.646E+01   -.189E+01 0.104E+01 -.228E+01   0.379E-05 -.443E-06 0.824E-07
   0.335E+01 -.161E+02 -.514E+01   -.233E+01 0.149E+02 0.417E+01   -.224E+01 0.364E+01 0.545E+00   -.313E-06 0.317E-05 -.163E-05
   -.747E+01 -.153E+01 0.161E+02   0.688E+01 0.186E+01 -.144E+02   0.123E+01 0.243E+00 -.345E+01   0.781E-06 0.141E-05 -.515E-05
   -.119E+02 -.596E+01 0.429E+01   0.106E+02 0.535E+01 -.460E+01   0.297E+01 0.766E+00 0.503E+00   0.322E-05 0.465E-05 0.144E-05
   -.695E+01 -.123E+01 0.119E+02   0.707E+01 0.110E+01 -.111E+02   -.185E+00 0.186E+01 -.169E+01   0.448E-05 0.679E-06 -.278E-05
   0.335E+01 -.434E+01 -.208E+01   -.249E+01 0.442E+01 0.175E+01   -.169E+01 0.376E+00 0.623E+00   -.269E-05 0.260E-05 -.485E-05
   0.545E+01 -.428E+01 0.534E+01   -.415E+01 0.438E+01 -.533E+01   -.364E+01 0.250E+00 -.397E+00   -.448E-05 0.490E-05 -.358E-05
   -.120E+02 -.857E+01 0.154E+02   0.109E+02 0.783E+01 -.140E+02   0.179E+01 0.155E+01 -.307E+01   0.413E-06 0.948E-05 -.757E-06
   -.146E+02 -.332E+01 0.236E+01   0.139E+02 0.314E+01 -.217E+01   0.202E+01 0.295E+00 -.935E+00   0.387E-05 -.127E-05 -.615E-05
   0.726E+01 -.328E+01 0.727E+01   -.703E+01 0.293E+01 -.658E+01   -.871E+00 0.558E+00 -.154E+01   0.344E-05 -.739E-07 0.164E-05
   -.578E+01 0.236E+01 -.284E+01   0.458E+01 -.239E+01 0.290E+01   0.209E+01 -.167E+01 -.248E+00   0.416E-06 -.989E-06 0.233E-05
   0.156E+01 0.862E+01 -.151E+01   -.171E+01 -.829E+01 0.169E+01   0.902E+00 -.218E+01 0.474E+00   -.173E-05 -.113E-05 -.404E-06
   -.322E+01 0.569E+00 0.479E+01   0.227E+01 -.480E+00 -.398E+01   0.119E+01 -.677E+00 -.152E+01   0.311E-05 -.182E-05 -.195E-05
   -.202E+02 -.523E+01 -.115E+00   0.183E+02 0.486E+01 0.666E+00   0.353E+01 0.837E+00 0.297E+00   0.204E-05 -.136E-05 -.144E-05
   0.841E+01 0.432E+01 0.111E+02   -.754E+01 -.421E+01 -.945E+01   -.243E+01 0.703E+00 -.294E+01   -.386E-05 -.211E-05 -.192E-05
   -.528E+01 0.574E+00 -.231E+01   0.477E+01 -.873E+00 0.219E+01   0.152E+01 -.117E+01 0.122E+01   -.219E-05 -.701E-06 0.334E-05
   0.281E+01 -.762E+00 0.756E+01   -.195E+01 0.559E+00 -.722E+01   -.176E+01 0.112E+01 -.147E+01   0.201E-05 -.154E-05 0.339E-05
   0.106E+02 -.126E+00 0.279E+01   -.102E+02 0.178E+00 -.212E+01   -.223E+01 0.384E+00 -.181E+01   -.295E-05 -.185E-05 -.992E-06
   -.781E+01 0.305E+01 -.866E+01   0.630E+01 -.327E+01 0.775E+01   0.897E+00 -.314E+00 0.232E+01   -.135E-05 -.133E-05 0.465E-05
   0.117E+02 0.467E+01 -.123E+02   -.109E+02 -.449E+01 0.110E+02   -.247E+01 -.859E+00 0.362E+01   -.153E-05 0.304E-07 0.572E-05
   -.340E+01 -.748E+01 -.401E+01   0.292E+01 0.690E+01 0.387E+01   0.355E+00 0.116E+01 0.191E+01   -.356E-05 -.316E-05 -.140E-05
   0.714E+01 0.198E+01 -.678E+01   -.640E+01 -.199E+01 0.650E+01   -.161E+01 -.233E+00 0.138E+01   -.182E-05 -.541E-06 -.726E-06
   -.401E+01 0.110E+02 0.856E+01   0.368E+01 -.101E+02 -.744E+01   0.291E+01 -.286E+01 -.273E+01   -.131E-05 0.315E-05 0.300E-05
   -.247E+01 0.445E+01 -.160E+02   0.171E+01 -.427E+01 0.146E+02   0.121E+01 -.914E+00 0.382E+01   -.407E-05 -.295E-05 0.288E-05
   -.162E+01 0.446E+01 -.308E+01   0.113E+01 -.460E+01 0.327E+01   0.118E+01 -.147E+01 -.237E-01   -.624E-08 -.302E-05 -.136E-05
   -.265E+01 0.149E+01 -.889E+01   0.297E+01 -.146E+01 0.816E+01   0.509E+00 0.941E+00 0.229E+01   -.116E-05 -.241E-05 0.275E-05
   -.875E+01 0.560E+01 0.203E+01   0.775E+01 -.510E+01 -.144E+01   0.257E+01 -.171E+01 -.242E+01   -.225E-06 -.279E-05 0.121E-05
   -.972E-01 0.728E+01 0.722E+00   0.284E+00 -.635E+01 -.364E-01   0.145E+00 -.155E+01 -.224E+01   -.288E-05 -.155E-05 0.878E-07
   -.861E+01 0.109E+02 -.116E+01   0.828E+01 -.977E+01 0.117E+01   0.189E+01 -.216E+01 -.418E+00   0.201E-05 -.137E-05 0.896E-06
   -.190E+01 -.505E+01 0.258E+01   0.179E+01 0.446E+01 -.258E+01   -.229E-01 0.335E+01 -.483E+00   -.202E-05 -.490E-06 0.844E-09
   -.352E+01 -.444E+01 -.471E+01   0.309E+01 0.369E+01 0.359E+01   0.104E+01 0.145E+01 0.170E+01   0.287E-06 0.122E-05 0.126E-05
   -.100E+02 -.485E+01 0.488E+00   0.904E+01 0.446E+01 0.223E+00   0.128E+01 0.518E+00 -.160E+01   0.368E-05 0.183E-05 0.366E-05
   0.138E+01 0.366E+01 -.305E+01   -.907E+00 -.317E+01 0.227E+01   -.408E+00 -.117E+01 0.130E+01   -.147E-05 -.393E-05 0.789E-07
   -.199E+01 0.556E+00 0.574E+01   0.154E+01 -.504E+00 -.500E+01   0.241E+00 0.381E+00 -.236E+01   0.205E-05 -.644E-06 -.229E-05
   -.492E+01 -.144E+00 -.232E+00   0.474E+01 0.512E+00 -.367E-01   0.184E+01 -.590E+00 0.854E+00   0.211E-05 0.378E-05 0.352E-05
   0.739E+01 -.288E+00 0.168E+02   -.647E+01 0.618E+00 -.151E+02   -.152E+01 -.803E+00 -.265E+01   -.301E-05 -.157E-05 -.383E-05
   0.519E+01 -.104E+02 -.624E+01   -.510E+01 0.929E+01 0.514E+01   0.385E+00 0.254E+01 0.139E+01   -.979E-06 0.789E-06 0.722E-06
   0.734E+01 0.118E+01 0.278E+01   -.753E+01 -.533E+00 -.198E+01   -.560E-01 -.469E+00 -.515E+00   0.741E-06 0.119E-05 -.599E-06
   0.874E+01 -.538E+01 -.225E+01   -.843E+01 0.455E+01 0.177E+01   -.161E+01 0.264E+01 0.134E+01   -.276E-05 0.241E-05 -.171E-05
   0.160E+00 0.423E+01 -.888E+00   -.204E+00 -.398E+01 0.580E+00   -.391E+00 -.103E+01 0.827E+00   -.164E-05 -.134E-05 0.174E-05
   0.768E+01 -.946E+01 0.354E+00   -.721E+01 0.797E+01 -.232E+00   -.982E+00 0.271E+01 -.622E+00   -.325E-06 0.440E-06 -.176E-05
 -----------------------------------------------------------------------------------------------
   -.442E+00 -.142E+00 0.324E+00   0.639E-13 -.163E-12 0.204E-12   0.442E+00 0.142E+00 -.324E+00   -.250E-05 -.187E-05 -.468E-06
 
 
 POSITION                                       TOTAL-FORCE (eV/Angst)
 -----------------------------------------------------------------------------------
     21.73982     10.90186     10.99562         1.374610     -0.348194     -0.554208
     10.86103      2.78323     13.64278         1.038331     -0.937007      0.654051
     10.97247     16.41202      5.56130        -0.805706     -1.027737     -0.128555
     10.94451      8.29269     19.22185        -0.563509     -1.685847     -1.298106
     13.71478     11.01118      2.87165        -0.605157     -0.329710     -0.994116
      2.69454      2.84264      5.33371        -0.189685     -1.027579      0.907670
     13.54333     16.47717      8.24637         1.781292     -1.909871      0.290542
      2.72833      8.27118     10.87691         0.402872     -1.651208      0.106357
      5.67071     10.93128     16.32341        -2.098835     -0.162852      1.457477
      5.53672      2.73182      8.20757        -0.544820     -0.071250     -0.553229
     16.42346     16.44827     11.04222         0.988800     -0.589844     -0.683518
     16.35332     19.15537     13.68598        -0.467381      0.150382      0.800704
      8.29123     11.03467     19.11852        -1.490816     -0.091856     -0.021042
     19.08639     13.67150     10.96599         2.250787     -0.753738      0.208933
      8.19515      5.45445     13.64922         1.108094      0.638465     -0.040736
      8.29197      8.18756     16.27133         0.041977     -0.458826      2.129535
     13.63693      2.83677     10.87633         0.239443     -0.627957      0.693794
     13.69909      5.49060     13.64615        -0.349261     -0.519563      1.088735
     13.55457      8.23090     16.44948         1.698904     -0.066145      0.277045
     13.54368     10.83972     19.14091         0.979590      1.966805      0.350603
      5.56091     13.62678     13.78104        -0.704909      1.198378     -0.243916
      5.64669      5.49301      5.37059        -3.036985      0.175193      1.106428
      5.45195      8.08000      8.19105         0.776852      1.672852     -0.730663
      5.53376     10.98730     10.62550         0.348949     -1.774212      3.568482
      8.29113     13.62568     16.28212        -0.458513     -0.668019      0.032230
      8.14120      5.49410      8.21633         1.409537     -0.545501     -0.464101
      8.27156      8.12275     11.03002        -1.688735      1.011240     -0.653299
      8.05857     10.91812     13.60036         1.113217     -1.015479      1.414584
     10.81542      2.74063      8.11415         1.615292     -0.909889      1.728056
     10.82151      5.51132     11.00627         2.531101      0.177401     -0.614802
     10.81844      8.23629     13.74744         1.094547      0.193270     -1.112450
     10.91184     10.81186     16.41395        -0.339919      0.281540      0.958112
      5.68883     16.36338     10.95570        -1.711587      0.241897      0.556520
      5.61758      8.18990      2.75777        -2.009371      0.517200      0.211403
      5.51829     10.74600      5.44670        -1.003377      2.579636      0.134210
      5.49419     13.58753      8.23579        -0.369167      1.982463     -0.557519
      8.12499      5.51213      2.76652         1.254825     -0.765663     -1.408118
      8.22114      8.03372      5.41562         0.296419      2.035489      0.400281
      8.32926     10.96900      8.29256        -0.515227      0.400070     -2.262776
      8.11606     13.53225     10.95908         0.324332      1.243660      0.731354
     10.81928     16.25537     16.38428         1.428588      1.126009      0.136780
     10.88839      8.46344      8.35673         0.998095     -2.755474      0.403969
     10.96628     10.95186     10.91459        -0.378456      0.276871     -0.358181
     10.91371     13.83156     13.81560         0.215621     -2.981858     -0.743302
     13.63406     16.29726     19.14672         0.565695      0.993260      0.482378
     13.66119      8.14109     10.99396         0.939327      0.917997     -1.098927
     13.86790     11.00653     13.66974        -3.264349      0.124852      0.837740
     13.64610     13.66307     16.44100        -0.215616     -0.330240     -0.082385
      8.26603     19.14466     10.93533        -1.355432     -0.074219     -0.228125
     19.13916     11.11290     13.68887         0.561080     -1.105649      0.318262
     19.07565     13.66458     16.37815        -0.564208      2.082556      1.433189
     19.06633     16.56307     18.95070         0.357420     -0.726254      2.173011
     10.91524      8.41731      2.85710        -0.905827     -2.119116     -1.684289
     10.89092     11.03984      5.44817        -0.219836     -1.057299     -0.049158
     10.99625     13.73472      8.26366         0.159345      0.153707     -0.458327
     10.87133     16.26791     10.97803        -0.625375      1.376659      0.502942
     13.54852      8.26029      5.46614         1.920617     -1.831577      1.640376
     13.69664     10.92075      7.99088        -0.058364      0.719488      0.259413
     13.63748     13.47038     10.98993         1.479475      2.205615     -0.988462
     13.79622     16.40514     13.72073        -1.663205      0.598093     -1.312168
     16.31303      8.15008      8.27587         1.403465      0.078474     -0.558117
     16.50799     10.95316     10.95680        -1.882403     -0.857708     -1.142043
     16.29411     13.75953     13.65081         2.080169     -0.532114     -0.669357
     16.46033     16.33307     16.35542        -0.416738      0.416175      0.153742
      1.32890      1.36608      1.24499         0.271137      0.128280      1.460912
      1.28405      4.14926      4.10353         0.141318      0.302365     -1.142998
      1.45721      6.72454      6.74918        -1.236219      1.874898      1.423114
      1.35938      9.53305      9.57957        -0.598953      0.851093      0.903797
      4.16307      1.42594      4.24309         0.143069     -0.610062     -0.800371
      4.12476      4.00907      6.67051         0.627551      1.567964      1.583446
      4.21523      6.73766      9.51306        -1.494900      0.376172      1.040288
      3.96517      9.53318     12.32903         1.327268      1.272530     -0.290910
      6.87254      1.38655      6.70021         0.475866      0.538236      1.352745
      7.02831      4.04887      9.58690        -2.578172      0.998640     -0.146161
      6.84346      6.94443     12.42359        -0.169198     -0.811262     -0.504165
      6.87365      9.48983     15.13988        -0.240444      0.102218     -2.454352
      9.66184      1.32580      9.55261        -1.044466      0.988360      0.586116
      9.67125      4.11309     12.28588        -2.357676     -0.292953      0.189342
      9.69548      6.78679     15.09632        -1.070948     -0.562333     -0.624372
      9.48403      9.59835     17.86004         0.869650     -0.999486     -0.948518
      4.05256      4.11195      1.42725         1.542291     -0.433118     -0.565802
      3.97799      6.82028      4.15896         1.872048      0.655719     -0.249233
      4.08688      9.65247      6.88086        -0.265184     -1.674805     -0.103835
      4.21256     12.40408      9.69095        -2.674125      0.188868     -1.800873
      6.96731      4.23385      4.16710        -0.201847     -2.330429     -0.939437
      6.85708      6.78959      6.79283        -0.309173      0.491107      0.519454
      6.94588      9.60331      9.44878        -0.323519     -1.682716      0.661169
      6.76105     12.21323     12.38221        -0.953899      0.616446     -1.962574
      9.53615      3.90145      6.80508        -1.228517      2.458394     -0.423218
      9.49840      6.80897      9.69064         0.639726      0.567672     -1.733988
      9.43298      9.60251     12.28072         1.638110      0.156931      0.194885
      9.58579     12.06183     15.03163        -0.061180      1.736037     -0.888052
     12.23232      4.06609      9.50840        -0.833618      0.456088      0.299619
     12.41058      6.85315     12.39078        -2.342863      0.351936     -0.383187
     12.23962      9.50502     15.13118         0.715294      0.800738     -1.675129
     12.13184     12.24931     17.81476         1.289745      0.107855     -0.742012
      6.94181      6.86566      1.40662        -0.637613      0.203006     -0.853527
      6.89836      9.66960      4.07504         0.896299     -1.696199     -0.188484
      6.73836     12.37866      6.74226         0.750454     -1.849595      0.649897
      6.92128     15.05923      9.54956         0.237495     -0.588044     -0.711723
      9.50446      6.77262      4.00102         1.662584      0.460072      0.847798
      9.66266      9.54054      6.86697        -1.552652      0.803712     -1.282097
      9.53276     12.48168      9.50748         1.001151     -1.472924      1.099570
      9.51613     14.91291     12.42778        -0.904910      0.918784     -1.131684
     12.35196      6.86720      7.03830        -1.765624      0.436204     -1.138170
     12.46076      9.68881      9.49313        -0.610896     -0.530754      1.413763
     12.34285     12.28730     12.27164        -1.645275     -0.678887      2.239017
     12.40071     15.03882     14.94958        -0.132429      0.578757      1.761257
     15.12317      6.70487      9.57163        -0.866572     -0.243575      1.101650
     14.95207      9.64104     12.38856         2.581370     -1.960911     -1.605976
     15.04604     12.40936     14.93924         0.453193     -0.736753      2.381891
     15.00849     15.12608     17.74494         0.692433     -1.616107      0.170509
      9.43838      9.55953      1.35084         0.828808      0.968596      1.550966
      9.47055     12.45447      4.21808         1.564380     -1.209773     -1.829707
      9.54255     15.09801      6.99751         0.332028     -0.617558     -1.556971
      9.45814     17.81848      9.55734         1.572870     -1.066705     -0.409866
     12.29018      9.52856      4.19477        -0.133913      2.761572     -0.481099
     12.25161     12.34690      6.72349         0.611900      0.695019      0.583035
     12.32832     14.99196      9.74455         0.326049      0.123292     -0.885637
     12.25216     17.88364     12.28130         0.068457     -0.683370      0.518562
     15.13357      9.51891      6.86369        -0.208831      0.432248     -1.619311
     14.92444     12.29571      9.43905         1.659403     -0.222056      0.585369
     15.02920     15.07133     12.30982        -0.594106     -0.472644     -0.947655
     15.01273     17.69256     15.10034         0.474041      1.410511      0.286328
     17.83260      9.56609      9.51220        -0.255668      0.180534      0.279174
     17.83524     12.23296     12.24249        -1.299655      1.809856      0.863482
     17.80424     15.06458     14.93214        -0.434033     -0.778463      0.519174
     17.71446     17.78746     17.66845        -0.514814      1.224520     -0.500147
 -----------------------------------------------------------------------------------
    total drift:                                0.000023      0.000004     -0.000010


--------------------------------------------------------------------------------------------------------



  FREE ENERGIE OF THE ION-ELECTRON SYSTEM (eV)
  ---------------------------------------------------
  free  energy   TOTEN  =      -679.18158615 eV

  energy  without entropy=     -679.18158615  energy(sigma->0) =     -679.18158615
 


--------------------------------------------------------------------------------------------------------


    POTLOK:  cpu time    1.0086: real time    1.0094


--------------------------------------------------------------------------------------------------------


     LOOP+:  cpu time 1657.5060: real time 1658.8316
    4ORBIT:  cpu time    0.0000: real time    0.0000

 total amount of memory used by VASP MPI-rank0   221701. kBytes
=======================================================================

   base      :      30000. kBytes
   nonl-proj :      10690. kBytes
   fftplans  :      66746. kBytes
   grid      :      26864. kBytes
   one-center:         24. kBytes
   wavefun   :      87377. kBytes
 
  
  
 General timing and accounting informations for this job:
 ========================================================
  
                  Total CPU time used (sec):     1681.484
                            User time (sec):     1680.209
                          System time (sec):        1.275
                         Elapsed time (sec):     1683.858
  
                   Maximum memory used (kb):      338640.
                   Average memory used (kb):           0.
  
                          Minor page faults:       152138
                          Major page faults:            0
                 Voluntary context switches:         1298
