potpaw_PBE@./ARUN.APL1ZEROSTATE         
           1
     0.000000   10.937334   10.937334
    10.937334    0.000000   10.937334
    10.937334   10.937334    0.000000
   Si
 128
Direct configuration=     1
   0.00720760  0.99812169  0.98954894
   0.25440279  0.99295618  0.00006751
   0.50290375  0.00556601  0.99764674
   0.75749848  0.99995497  0.00070159
   0.00768271  0.25487242  0.99906934
   0.25060078  0.23706038  0.00930126
   0.51110296  0.24286245  0.99540408
   0.75062939  0.24384651  0.00560427
   0.98671119  0.50573734  0.01273541
   0.24698312  0.50343484  0.00278714
   0.50592918  0.50366101  0.99793529
   0.75374970  0.49755860  0.99762484
   0.99941884  0.74858664  0.00948061
   0.25376809  0.74885202  0.99621620
   0.49868257  0.74926479  0.00001714
   0.73907041  0.74861653  0.00951792
   0.00348192  0.99094021  0.25588343
   0.24858265  0.99908432  0.25342297
   0.50861568  0.99535937  0.24393477
   0.75141504  0.99863779  0.23966055
   0.99873123  0.26126909  0.24716506
   0.23849100  0.25254195  0.26373478
   0.49459481  0.25431229  0.24415885
   0.73505274  0.23643613  0.26951563
   0.98820555  0.50046785  0.25758998
   0.25459712  0.49662142  0.24772800
   0.49743436  0.51103994  0.24522854
   0.75246398  0.49101616  0.24577896
   0.00179969  0.74007694  0.24877606
   0.26039597  0.74590658  0.24350347
   0.51042102  0.74650694  0.24262235
   0.74579293  0.75493396  0.24273530
   0.98882630  0.01285310  0.50727655
   0.24366516  0.00847809  0.50513741
   0.48798016  0.01001142  0.49452600
   0.74648595  0.00651197  0.49582123
   0.00702504  0.24591821  0.49694887
   0.23900690  0.25614284  0.49551537
   0.49977012  0.25841858  0.50312539
   0.74859538  0.25339329  0.48865769
   0.99751743  0.50049662  0.48871013
   0.27117165  0.49288414  0.50264053
   0.49830080  0.49961985  0.50302711
   0.76496950  0.49819035  0.49964983
   0.99704035  0.75354374  0.49301743
   0.25023762  0.75493998  0.49410192
   0.49410459  0.75571897  0.51222220
   0.75237568  0.75082409  0.49683845
   0.99722468  0.00259240  0.75317086
   0.25886668  0.99270656  0.75718565
   0.50136019  0.99609380  0.74799218
   0.75189440  0.98076730  0.76246688
   0.01641905  0.24480519  0.75317519
   0.25587098  0.24225507  0.75350093
   0.50296226  0.25258358  0.75280277
   0.74856494  0.25515586  0.73880918
   0.00813302  0.49163575  0.74710509
   0.23840309  0.49220269  0.76008040
   0.49476568  0.51004299  0.73683097
   0.74650947  0.50797622  0.75341164
   0.00516198  0.75150016  0.73999967
   0.24695106  0.75482908  0.75449598
   0.50817804  0.73991465  0.74985494
   0.74187008  0.75350557  0.75146187
   0.05861423  0.05521511  0.06628607
   0.31857574  0.05661005  0.06079076
   0.54933459  0.06774290  0.06549018
   0.81158926  0.06427036  0.06001758
   0.06884454  0.31910068  0.06152867
   0.29965330  0.31023109  0.06689569
   0.55020260  0.31957654  0.06582174
   0.81816332  0.30907983  0.05345526
   0.05550832  0.55709178  0.07126388
   0.30205988  0.57447016  0.06812774
   0.57255996  0.56332869  0.06236864
   0.81171829  0.57252046  0.05593688
   0.05561529  0.81777946  0.06560239
   0.30755759  0.81573995  0.06850211
   0.55715732  0.82309879  0.06335825
   0.82169758  0.81124515  0.05587901
   0.06796162  0.06253192  0.30799352
   0.32006253  0.06019129  0.30351577
   0.56898948  0.06012770  0.31353579
   0.81749692  0.06854644  0.31660759
   0.06553863  0.31545920  0.32156200
   0.30744863  0.31361930  0.31332334
   0.55343525  0.31046597  0.32459541
   0.81529882  0.31680619  0.30135601
   0.05350353  0.56868435  0.30320563
   0.32006025  0.56595436  0.30248406
   0.56916309  0.55366262  0.30879413
   0.80036311  0.57397830  0.30244968
   0.06135727  0.80799550  0.31040532
   0.31238643  0.82050221  0.31419683
   0.56670927  0.81673402  0.30233409
   0.81977180  0.80903143  0.30018256
   0.06082251  0.06778426  0.56690491
   0.31297784  0.05960334  0.57111313
   0.56606856  0.05037644  0.56571200
   0.80858404  0.06453163  0.56828077
   0.05802090  0.30779217  0.56119983
   0.30834043  0.31950593  0.56395109
   0.56944427  0.29982423  0.57175530
   0.81484961  0.32142229  0.54863694
   0.07102013  0.57249175  0.55684741
   0.30725862  0.56069817  0.57858868
   0.55845839  0.56353725  0.56496883
   0.80402065  0.56281843  0.57097838
   0.05272451  0.82240955  0.56030140
   0.32354867  0.80913645  0.55793112
   0.56241163  0.80348254  0.57217602
   0.81658500  0.80583386  0.56639213
   0.06729239  0.05621499  0.80673552
   0.32923946  0.05641980  0.80947228
   0.57385905  0.06592340  0.80655168
   0.81910624  0.05472073  0.81003683
   0.06551667  0.31801129  0.80567949
   0.31172041  0.30300809  0.81715650
   0.56724070  0.32370349  0.80347392
   0.81888222  0.30399619  0.81621848
   0.05709965  0.57044768  0.81321410
   0.31133371  0.55167824  0.81286240
   0.56466922  0.56081739  0.81330155
   0.81282024  0.56780359  0.80480953
   0.05694699  0.81275346  0.81768039
   0.30355760  0.81577320  0.81490182
   0.55737915  0.80786575  0.81997502
   0.81105002  0.80437524  0.81525670
