 128 128   0   0
  0.2044346E+02  0.1546773E-08  0.1546773E-08  0.1546773E-08  0.5000000E-15
  1.000000000000000E-004
  CAR 
 potpaw_PBE@./ARUN.APL1ZEROSTATE         
      9.34746191     -7.06423518  301      5.96254938      1.00000000
     -7.064  0.0000E+00  0.0000E+00
     -7.010  0.0000E+00  0.0000E+00
     -6.955  0.0000E+00  0.0000E+00
     -6.900  0.0000E+00  0.0000E+00
     -6.845  0.0000E+00  0.0000E+00
     -6.791  0.0000E+00  0.0000E+00
     -6.736  0.0000E+00  0.0000E+00
     -6.681  0.0000E+00  0.0000E+00
     -6.627  0.0000E+00  0.0000E+00
     -6.572  0.0000E+00  0.0000E+00
     -6.517  0.0000E+00  0.0000E+00
     -6.462  0.0000E+00  0.0000E+00
     -6.408  0.0000E+00  0.0000E+00
     -6.353  0.1945E-05  0.1064E-06
     -6.298  0.4559E+01  0.2494E+00
     -6.244  0.1120E-01  0.2500E+00
     -6.189  0.3805E+01  0.4582E+00
     -6.134  0.1247E+02  0.1141E+01
     -6.080  0.2933E+02  0.2745E+01
     -6.025  0.1448E+02  0.3537E+01
     -5.970  0.3889E+01  0.3750E+01
     -5.915  0.2704E-01  0.3751E+01
     -5.861  0.1368E+02  0.4500E+01
     -5.806  0.4034E+00  0.4522E+01
     -5.751  0.2408E+02  0.5839E+01
     -5.697  0.2830E+02  0.7387E+01
     -5.642  0.3386E+02  0.9240E+01
     -5.587  0.2478E+02  0.1060E+02
     -5.532  0.3005E+02  0.1224E+02
     -5.478  0.1770E+02  0.1321E+02
     -5.423  0.1795E+02  0.1419E+02
     -5.368  0.1024E+02  0.1475E+02
     -5.314  0.1026E+01  0.1481E+02
     -5.259  0.7934E+01  0.1524E+02
     -5.204  0.2220E+02  0.1645E+02
     -5.150  0.3726E+02  0.1849E+02
     -5.095  0.3608E+02  0.2047E+02
     -5.040  0.5323E+02  0.2338E+02
     -4.985  0.2819E+02  0.2492E+02
     -4.931  0.4266E+02  0.2725E+02
     -4.876  0.2692E+02  0.2873E+02
     -4.821  0.1416E+02  0.2950E+02
     -4.767  0.2531E+02  0.3089E+02
     -4.712  0.2781E+02  0.3241E+02
     -4.657  0.4118E+02  0.3466E+02
     -4.602  0.4413E+02  0.3707E+02
     -4.548  0.3858E+02  0.3919E+02
     -4.493  0.2793E+02  0.4071E+02
     -4.438  0.2479E+02  0.4207E+02
     -4.384  0.2005E+02  0.4317E+02
     -4.329  0.1584E+02  0.4403E+02
     -4.274  0.5444E+02  0.4701E+02
     -4.220  0.4452E+02  0.4945E+02
     -4.165  0.4911E+02  0.5213E+02
     -4.110  0.7583E+02  0.5628E+02
     -4.055  0.4880E+02  0.5895E+02
     -4.001  0.5429E+02  0.6192E+02
     -3.946  0.4546E+02  0.6441E+02
     -3.891  0.5196E+02  0.6725E+02
     -3.837  0.4883E+02  0.6992E+02
     -3.782  0.4823E+02  0.7256E+02
     -3.727  0.4648E+02  0.7510E+02
     -3.672  0.5161E+02  0.7793E+02
     -3.618  0.2546E+02  0.7932E+02
     -3.563  0.2780E+02  0.8084E+02
     -3.508  0.5366E+02  0.8377E+02
     -3.454  0.4286E+02  0.8612E+02
     -3.399  0.5659E+02  0.8922E+02
     -3.344  0.5212E+02  0.9207E+02
     -3.290  0.5189E+02  0.9490E+02
     -3.235  0.1750E+02  0.9586E+02
     -3.180  0.2746E+02  0.9736E+02
     -3.125  0.5664E+02  0.1005E+03
     -3.071  0.3093E+02  0.1022E+03
     -3.016  0.5236E+02  0.1050E+03
     -2.961  0.5414E+02  0.1080E+03
     -2.907  0.2580E+02  0.1094E+03
     -2.852  0.3999E+02  0.1116E+03
     -2.797  0.2750E+02  0.1131E+03
     -2.742  0.3133E+02  0.1148E+03
     -2.688  0.3098E+02  0.1165E+03
     -2.633  0.4154E+02  0.1188E+03
     -2.578  0.2530E+02  0.1201E+03
     -2.524  0.3563E+02  0.1221E+03
     -2.469  0.1186E+02  0.1227E+03
     -2.414  0.3348E-01  0.1228E+03
     -2.360  0.1755E+01  0.1228E+03
     -2.305  0.7370E+01  0.1232E+03
     -2.250  0.9695E+01  0.1238E+03
     -2.195  0.2247E+02  0.1250E+03
     -2.141  0.2373E+02  0.1263E+03
     -2.086  0.2928E+02  0.1279E+03
     -2.031  0.2953E+02  0.1295E+03
     -1.977  0.3071E+02  0.1312E+03
     -1.922  0.1457E+02  0.1320E+03
     -1.867  0.9390E+01  0.1325E+03
     -1.812  0.5711E+01  0.1328E+03
     -1.758  0.7728E+01  0.1332E+03
     -1.703  0.4385E+01  0.1335E+03
     -1.648  0.1150E+02  0.1341E+03
     -1.594  0.3099E+02  0.1358E+03
     -1.539  0.3199E+02  0.1376E+03
     -1.484  0.3994E+02  0.1397E+03
     -1.430  0.3928E+02  0.1419E+03
     -1.375  0.4510E+02  0.1444E+03
     -1.320  0.5765E+02  0.1475E+03
     -1.265  0.4868E+02  0.1502E+03
     -1.211  0.7151E+02  0.1541E+03
     -1.156  0.5714E+02  0.1572E+03
     -1.101  0.4460E+02  0.1597E+03
     -1.047  0.7398E+02  0.1637E+03
     -0.992  0.6960E+02  0.1675E+03
     -0.937  0.5487E+02  0.1705E+03
     -0.882  0.5620E+02  0.1736E+03
     -0.828  0.5434E+02  0.1766E+03
     -0.773  0.7237E+02  0.1805E+03
     -0.718  0.3434E+02  0.1824E+03
     -0.664  0.4542E+02  0.1849E+03
     -0.609  0.3794E+02  0.1870E+03
     -0.554  0.2806E+02  0.1885E+03
     -0.500  0.2636E+02  0.1899E+03
     -0.445  0.2403E+02  0.1913E+03
     -0.390  0.2691E+02  0.1927E+03
     -0.335  0.5229E+02  0.1956E+03
     -0.281  0.5273E+02  0.1985E+03
     -0.226  0.4085E+02  0.2007E+03
     -0.171  0.5740E+02  0.2038E+03
     -0.117  0.4532E+02  0.2063E+03
     -0.062  0.3681E+02  0.2083E+03
     -0.007  0.3367E+02  0.2102E+03
      0.048  0.3670E+02  0.2122E+03
      0.102  0.1857E+02  0.2132E+03
      0.157  0.1140E+02  0.2138E+03
      0.212  0.1226E+02  0.2145E+03
      0.266  0.1782E+02  0.2155E+03
      0.321  0.2807E+02  0.2170E+03
      0.376  0.1925E+02  0.2181E+03
      0.430  0.2719E+02  0.2195E+03
      0.485  0.2230E+02  0.2208E+03
      0.540  0.2542E+02  0.2222E+03
      0.595  0.2125E+02  0.2233E+03
      0.649  0.3011E+02  0.2250E+03
      0.704  0.1268E+02  0.2257E+03
      0.759  0.2017E+02  0.2268E+03
      0.813  0.9042E+01  0.2273E+03
      0.868  0.8912E+01  0.2278E+03
      0.923  0.1782E+02  0.2287E+03
      0.977  0.2561E+02  0.2301E+03
      1.032  0.2873E+02  0.2317E+03
      1.087  0.1919E+02  0.2327E+03
      1.142  0.3580E+02  0.2347E+03
      1.196  0.2412E+02  0.2360E+03
      1.251  0.1814E+02  0.2370E+03
      1.306  0.3813E+02  0.2391E+03
      1.360  0.2525E+02  0.2405E+03
      1.415  0.4412E+02  0.2429E+03
      1.470  0.7882E+02  0.2472E+03
      1.525  0.6871E+02  0.2510E+03
      1.579  0.7727E+02  0.2552E+03
      1.634  0.8655E+02  0.2599E+03
      1.689  0.7043E+02  0.2638E+03
      1.743  0.5901E+02  0.2670E+03
      1.798  0.5483E+02  0.2700E+03
      1.853  0.2479E+02  0.2714E+03
      1.907  0.2957E+02  0.2730E+03
      1.962  0.2667E+02  0.2744E+03
      2.017  0.2769E+02  0.2760E+03
      2.072  0.8063E+02  0.2804E+03
      2.126  0.1123E+03  0.2865E+03
      2.181  0.9951E+02  0.2920E+03
      2.236  0.1057E+03  0.2977E+03
      2.290  0.1077E+03  0.3036E+03
      2.345  0.1024E+03  0.3092E+03
      2.400  0.9846E+02  0.3146E+03
      2.455  0.8118E+02  0.3191E+03
      2.509  0.4381E+02  0.3215E+03
      2.564  0.3609E+02  0.3234E+03
      2.619  0.4577E+02  0.3259E+03
      2.673  0.6235E+02  0.3293E+03
      2.728  0.9497E+02  0.3345E+03
      2.783  0.9750E+02  0.3399E+03
      2.837  0.8858E+02  0.3447E+03
      2.892  0.9091E+02  0.3497E+03
      2.947  0.9060E+02  0.3547E+03
      3.002  0.1019E+03  0.3602E+03
      3.056  0.9623E+02  0.3655E+03
      3.111  0.6960E+02  0.3693E+03
      3.166  0.8362E+02  0.3739E+03
      3.220  0.7598E+02  0.3780E+03
      3.275  0.9217E+02  0.3831E+03
      3.330  0.9942E+02  0.3885E+03
      3.385  0.1019E+03  0.3941E+03
      3.439  0.8444E+02  0.3987E+03
      3.494  0.8658E+02  0.4034E+03
      3.549  0.9004E+02  0.4084E+03
      3.603  0.6308E+02  0.4118E+03
      3.658  0.8037E+02  0.4162E+03
      3.713  0.6296E+02  0.4197E+03
      3.767  0.7875E+02  0.4240E+03
      3.822  0.1086E+03  0.4299E+03
      3.877  0.8094E+02  0.4343E+03
      3.932  0.8214E+02  0.4388E+03
      3.986  0.6021E+02  0.4421E+03
      4.041  0.5975E+02  0.4454E+03
      4.096  0.6531E+02  0.4490E+03
      4.150  0.7291E+02  0.4530E+03
      4.205  0.7648E+02  0.4571E+03
      4.260  0.6288E+02  0.4606E+03
      4.315  0.6892E+02  0.4643E+03
      4.369  0.6484E+02  0.4679E+03
      4.424  0.7083E+02  0.4718E+03
      4.479  0.6617E+02  0.4754E+03
      4.533  0.6379E+02  0.4789E+03
      4.588  0.7190E+02  0.4828E+03
      4.643  0.6660E+02  0.4865E+03
      4.697  0.3717E+02  0.4885E+03
      4.752  0.2551E+02  0.4899E+03
      4.807  0.2834E+02  0.4914E+03
      4.862  0.3254E+02  0.4932E+03
      4.916  0.3245E+02  0.4950E+03
      4.971  0.3733E+02  0.4970E+03
      5.026  0.3369E+02  0.4989E+03
      5.080  0.4580E+02  0.5014E+03
      5.135  0.2366E+02  0.5027E+03
      5.190  0.1504E+02  0.5035E+03
      5.245  0.1359E+02  0.5042E+03
      5.299  0.4687E+01  0.5045E+03
      5.354  0.4573E+01  0.5047E+03
      5.409  0.2621E+02  0.5062E+03
      5.463  0.2185E+02  0.5074E+03
      5.518  0.2499E+02  0.5087E+03
      5.573  0.9495E+01  0.5093E+03
      5.627  0.1822E+02  0.5103E+03
      5.682  0.1183E+02  0.5109E+03
      5.737  0.1083E+02  0.5115E+03
      5.792  0.4545E+01  0.5117E+03
      5.846  0.2105E-04  0.5118E+03
      5.901  0.4568E+01  0.5120E+03
      5.956  0.2196E-02  0.5120E+03
      6.010  0.0000E+00  0.5120E+03
      6.065  0.1781E-10  0.5120E+03
      6.120  0.5154E+01  0.5123E+03
      6.175  0.1554E+02  0.5131E+03
      6.229  0.2195E+02  0.5143E+03
      6.284  0.7644E+01  0.5148E+03
      6.339  0.3078E+02  0.5164E+03
      6.393  0.1909E+02  0.5175E+03
      6.448  0.1501E+02  0.5183E+03
      6.503  0.2836E+02  0.5199E+03
      6.557  0.1841E+02  0.5209E+03
      6.612  0.2374E+02  0.5222E+03
      6.667  0.1317E+02  0.5229E+03
      6.722  0.2808E+02  0.5244E+03
      6.776  0.3236E+02  0.5262E+03
      6.831  0.3544E+02  0.5281E+03
      6.886  0.4056E+02  0.5303E+03
      6.940  0.2622E+02  0.5318E+03
      6.995  0.4405E+02  0.5342E+03
      7.050  0.3687E+02  0.5362E+03
      7.105  0.4010E+02  0.5384E+03
      7.159  0.2541E+02  0.5398E+03
      7.214  0.4274E+02  0.5421E+03
      7.269  0.4837E+02  0.5448E+03
      7.323  0.8352E+02  0.5493E+03
      7.378  0.6174E+02  0.5527E+03
      7.433  0.8749E+02  0.5575E+03
      7.487  0.9144E+02  0.5625E+03
      7.542  0.7917E+02  0.5668E+03
      7.597  0.9146E+02  0.5718E+03
      7.652  0.8278E+02  0.5764E+03
      7.706  0.7928E+02  0.5807E+03
      7.761  0.8791E+02  0.5855E+03
      7.816  0.1025E+03  0.5911E+03
      7.870  0.9047E+02  0.5961E+03
      7.925  0.9013E+02  0.6010E+03
      7.980  0.1082E+03  0.6069E+03
      8.035  0.7793E+02  0.6112E+03
      8.089  0.8804E+02  0.6160E+03
      8.144  0.7016E+02  0.6198E+03
      8.199  0.8056E+02  0.6242E+03
      8.253  0.8705E+02  0.6290E+03
      8.308  0.7762E+02  0.6333E+03
      8.363  0.7567E+02  0.6374E+03
      8.417  0.7347E+02  0.6414E+03
      8.472  0.2937E+02  0.6430E+03
      8.527  0.6127E+01  0.6434E+03
      8.582  0.6934E+01  0.6437E+03
      8.636  0.4848E+01  0.6440E+03
      8.691  0.0000E+00  0.6440E+03
      8.746  0.0000E+00  0.6440E+03
      8.800  0.0000E+00  0.6440E+03
      8.855  0.0000E+00  0.6440E+03
      8.910  0.0000E+00  0.6440E+03
      8.965  0.0000E+00  0.6440E+03
      9.019  0.0000E+00  0.6440E+03
      9.074  0.0000E+00  0.6440E+03
      9.129  0.0000E+00  0.6440E+03
      9.183  0.0000E+00  0.6440E+03
      9.238  0.0000E+00  0.6440E+03
      9.293  0.0000E+00  0.6440E+03
      9.347  0.0000E+00  0.6440E+03
