 vasp.5.4.4.18Apr17-6-g9f103f2a35 (build Nov 08 2017 09:05:29) complex          
  
 executed on          Intel_17.33 date 2020.07.18  20:31:10
 running on   32 total cores
 distrk:  each k-point on   32 cores,    1 groups
 distr:  one band on NCORES_PER_BAND=  16 cores,    2 groups


--------------------------------------------------------------------------------------------------------


 INCAR:
 POTCAR:   PAW_PBE Si 05Jan2001                   

 ----------------------------------------------------------------------------- 
|                                                                             |
|           W    W    AA    RRRRR   N    N  II  N    N   GGGG   !!!           |
|           W    W   A  A   R    R  NN   N  II  NN   N  G    G  !!!           |
|           W    W  A    A  R    R  N N  N  II  N N  N  G       !!!           |
|           W WW W  AAAAAA  RRRRR   N  N N  II  N  N N  G  GGG   !            |
|           WW  WW  A    A  R   R   N   NN  II  N   NN  G    G                |
|           W    W  A    A  R    R  N    N  II  N    N   GGGG   !!!           |
|                                                                             |
|      For optimal performance we recommend to set                            |
|        NCORE= 4 - approx SQRT( number of cores)                             |
|      NCORE specifies how many cores store one orbital (NPAR=cpu/NCORE).     |
|      This setting can  greatly improve the performance of VASP for DFT.     |
|      The default,   NCORE=1            might be grossly inefficient         |
|      on modern multi-core architectures or massively parallel machines.     |
|      Do your own testing !!!!                                               |
|      Unfortunately you need to use the default for GW and RPA calculations. |
|      (for HF NCORE is supported but not extensively tested yet)             |
|                                                                             |
 ----------------------------------------------------------------------------- 

 POTCAR:   PAW_PBE Si 05Jan2001                   
   VRHFIN =Si: s2p2                                                             
   LEXCH  = PE                                                                  
   EATOM  =   103.0669 eV,    7.5752 Ry                                         
                                                                                
   TITEL  = PAW_PBE Si 05Jan2001                                                
   LULTRA =        F    use ultrasoft PP ?                                      
   IUNSCR =        1    unscreen: 0-lin 1-nonlin 2-no                           
   RPACOR =    1.500    partial core radius                                     
   POMASS =   28.085; ZVAL   =    4.000    mass and valenz                      
   RCORE  =    1.900    outmost cutoff radius                                   
   RWIGS  =    2.480; RWIGS  =    1.312    wigner-seitz radius (au A)           
   ENMAX  =  245.345; ENMIN  =  184.009 eV                                      
   ICORE  =        2    local potential                                         
   LCOR   =        T    correct aug charges                                     
   LPAW   =        T    paw PP                                                  
   EAUG   =  322.069                                                            
   DEXC   =    -.007                                                            
   RMAX   =    2.944    core radius for proj-oper                               
   RAUG   =    1.300    factor for augmentation sphere                          
   RDEP   =    1.993    radius for radial grids                                 
   QCUT   =   -4.246; QGAM   =    8.493    optimization parameters              
                                                                                
   Description                                                                  
     l     E      TYP  RCUT    TYP  RCUT                                        
     0   .000     23  1.900                                                     
     0   .000     23  1.900                                                     
     1   .000     23  1.900                                                     
     1   .000     23  1.900                                                     
     2   .000      7  1.900                                                     
  local pseudopotential read in
  partial core-charges read in
  atomic valenz-charges read in
  non local Contribution for L=           0  read in
    real space projection operators read in
  non local Contribution for L=           0  read in
    real space projection operators read in
  non local Contribution for L=           1  read in
    real space projection operators read in
  non local Contribution for L=           1  read in
    real space projection operators read in
    PAW grid and wavefunctions read in
 
   number of l-projection  operators is LMAX  =           4
   number of lm-projection operators is LMMAX =           8
 

 ----------------------------------------------------------------------------- 
|                                                                             |
|  ADVICE TO THIS USER RUNNING 'VASP/VAMP'   (HEAR YOUR MASTER'S VOICE ...):  |
|                                                                             |
|      You have a (more or less) 'large supercell' and for larger cells       |
|      it might be more efficient to use real space projection operators      |
|      So try LREAL= Auto  in the INCAR   file.                               |
|      Mind: If you want to do a very accurate calculations keep the          |
|      reciprocal projection scheme          (i.e. LREAL=.FALSE.)             |
|                                                                             |
 ----------------------------------------------------------------------------- 

 PAW_PBE Si 05Jan2001                   :
 energy of atom  1       EATOM= -103.0669
 kinetic energy error for atom=    0.0006 (will be added to EATOM!!)
 
 
 POSCAR: kk                                      
  positions in direct lattice
  No initial velocities read in
 exchange correlation table for  LEXCH =        8
   RHO(1)=    0.500       N(1)  =     2000
   RHO(2)=  100.500       N(2)  =     4000
 


--------------------------------------------------------------------------------------------------------


 ion  position               nearest neighbor table
   1  0.006  0.990  0.003- 113 2.33  65 2.37  77 2.37  68 2.55
   2  0.238  0.005  0.010-  66 2.31  65 2.32  78 2.48 114 2.55
   3  0.502  0.983  0.011-  79 2.26  67 2.35  66 2.37 115 2.60
   4  0.745  0.008  0.996-  67 2.26 116 2.38  80 2.39  68 2.39
   5  0.002  0.252  0.008-  69 2.29 117 2.33  65 2.39  72 2.60
   6  0.254  0.244  0.015-  70 2.29  66 2.36  69 2.57 118 2.65
   7  0.509  0.241  0.995-  67 2.25 119 2.26  70 2.39  71 2.41
   8  0.738  0.261  0.001-  71 2.28 120 2.32  72 2.40  68 2.51
   9  0.999  0.503  0.002-  73 2.27 121 2.34  76 2.38  69 2.38
  10  0.253  0.504  0.992- 122 2.25  74 2.38  70 2.38  73 2.47
  11  0.503  0.502  0.997- 123 2.24  75 2.28  74 2.30  71 2.32
  12  0.748  0.506  0.998-  76 2.27  75 2.31 124 2.35  72 2.36
  13  0.002  0.743  0.990- 125 2.23  73 2.34  80 2.45  77 2.53
  14  0.253  0.744  0.992- 126 2.24  77 2.27  74 2.31  78 2.58
  15  0.500  0.746  0.006-  78 2.25  79 2.33 127 2.44  75 2.46
  16  0.752  0.751  0.989- 128 2.28  79 2.35  76 2.50  80 2.52
  17  0.997  0.987  0.254-  93 2.19  65 2.37  84 2.50  81 2.63
  18  0.240  0.999  0.246-  66 2.31  81 2.45  82 2.49  94 2.50
  19  0.505  0.989  0.257-  95 2.23  83 2.35  82 2.54  67 2.61
  20  0.747  0.997  0.257-  96 2.21  84 2.29  68 2.34  83 2.44
  21  0.992  0.251  0.251-  69 2.20  81 2.27  88 2.32  85 2.52
  22  0.236  0.275  0.242-  86 2.16  85 2.28  70 2.37  82 2.65
  23  0.508  0.244  0.242-  71 2.31  83 2.31  87 2.40  86 2.54
  24  0.745  0.244  0.246-  72 2.19  84 2.22  87 2.38  88 2.45
  25  0.003  0.507  0.243-  73 2.22  92 2.29  89 2.29  85 2.38
  26  0.251  0.497  0.259-  86 2.26  90 2.34  89 2.50  74 2.58
  27  0.505  0.499  0.248-  75 2.32  87 2.32  91 2.36  90 2.37
  28  0.741  0.495  0.265-  88 2.32  91 2.35  92 2.40  76 2.51
  29  0.999  0.740  0.252-  89 2.22  77 2.42  93 2.59  96 2.59
  30  0.244  0.754  0.244-  93 2.29  78 2.32  90 2.43  94 2.51
  31  0.510  0.741  0.246-  91 2.22  79 2.29  94 2.39  95 2.42
  32  0.763  0.735  0.262-  96 2.22  92 2.29  80 2.53  95 2.53
  33  0.009  0.990  0.507- 109 2.25  97 2.25  81 2.33 100 2.36
  34  0.254  0.006  0.491-  82 2.25 110 2.38  97 2.40  98 2.43
  35  0.492  0.994  0.505-  98 2.26  83 2.32 111 2.40  99 2.74
  36  0.754  0.004  0.498- 100 2.26  99 2.33  84 2.33 112 2.41
  37  0.011  0.239  0.493-  85 2.23  97 2.27 101 2.46 104 2.65
  38  0.250  0.252  0.502-  98 2.38 102 2.38 101 2.41  86 2.61
  39  0.490  0.247  0.508- 102 2.08 103 2.34  99 2.35  87 2.48
  40  0.760  0.237  0.496- 100 2.26 104 2.36  88 2.39 103 2.41
  41  0.997  0.500  0.502- 108 2.30  89 2.35 101 2.41 105 2.43
  42  0.249  0.516  0.495- 105 2.21 106 2.28  90 2.31 102 2.59
  43  0.498  0.506  0.506- 107 2.32 106 2.35  91 2.40 103 2.55
  44  0.760  0.496  0.498-  92 2.32 107 2.42 108 2.44 104 2.49
  45  0.997  0.747  0.499-  93 2.29 109 2.36 112 2.44 105 2.52
  46  0.253  0.750  0.495-  94 2.25 106 2.27 110 2.45 109 2.62
  47  0.510  0.747  0.488-  95 2.23 107 2.25 111 2.37 110 2.41
  48  0.761  0.738  0.501- 108 2.24 112 2.27  96 2.39 111 2.56
  49  0.003  0.003  0.745- 113 2.28 125 2.29  97 2.34 116 2.39
  50  0.251  0.990  0.760- 126 2.28 114 2.31 113 2.39  98 2.47
  51  0.501  0.996  0.748-  99 2.22 127 2.27 114 2.31 115 2.48
  52  0.754  0.005  0.740- 116 2.28 100 2.35 128 2.38 115 2.39
  53  0.994  0.269  0.744- 101 2.22 120 2.34 117 2.40 113 2.77
  54  0.249  0.245  0.755- 114 2.39 117 2.41 118 2.42 102 2.51
  55  0.507  0.248  0.754- 115 2.25 119 2.29 118 2.43 103 2.55
  56  0.747  0.235  0.747- 104 2.17 116 2.24 119 2.35 120 2.70
  57  0.004  0.495  0.751- 117 2.28 121 2.32 105 2.33 124 2.45
  58  0.246  0.502  0.749- 118 2.31 122 2.39 106 2.41 121 2.41
  59  0.514  0.492  0.758- 119 2.29 123 2.32 122 2.48 107 2.56
  60  0.753  0.502  0.752- 124 2.27 108 2.29 120 2.35 123 2.38
  61  0.997  0.753  0.749- 109 2.25 128 2.28 121 2.42 125 2.44
  62  0.242  0.751  0.753- 125 2.37 126 2.43 110 2.50 122 2.51
  63  0.500  0.759  0.748- 127 2.23 111 2.27 126 2.35 123 2.47
  64  0.745  0.758  0.743- 112 2.31 127 2.41 124 2.46 128 2.49
  65  0.054  0.063  0.067-   2 2.32   1 2.37  17 2.37   5 2.39
  66  0.314  0.057  0.064-  18 2.31   2 2.31   6 2.36   3 2.37
  67  0.566  0.063  0.051-   7 2.25   4 2.26   3 2.35  19 2.61
  68  0.804  0.062  0.071-  20 2.34   4 2.39   8 2.51   1 2.55
  69  0.050  0.315  0.077-  21 2.20   5 2.29   9 2.38   6 2.57
  70  0.321  0.315  0.057-   6 2.29  22 2.37  10 2.38   7 2.39
  71  0.558  0.319  0.060-   8 2.28  23 2.31  11 2.32   7 2.41
  72  0.797  0.319  0.074-  24 2.19  12 2.36   8 2.40   5 2.60
  73  0.058  0.559  0.068-  25 2.22   9 2.27  13 2.34  10 2.47
  74  0.321  0.561  0.055-  11 2.30  14 2.31  10 2.38  26 2.58
  75  0.566  0.551  0.065-  11 2.28  12 2.31  27 2.32  15 2.46
  76  0.811  0.554  0.067-  12 2.27   9 2.38  16 2.50  28 2.51
  77  0.073  0.802  0.060-  14 2.27   1 2.37  29 2.42  13 2.53
  78  0.322  0.810  0.062-  15 2.25  30 2.32   2 2.48  14 2.58
  79  0.567  0.804  0.065-   3 2.26  31 2.29  15 2.33  16 2.35
  80  0.810  0.819  0.063-   4 2.39  13 2.45  16 2.52  32 2.53
  81  0.048  0.073  0.325-  21 2.27  33 2.33  18 2.45  17 2.63
  82  0.305  0.065  0.313-  34 2.25  18 2.49  19 2.54  22 2.65
  83  0.554  0.063  0.322-  23 2.31  35 2.32  19 2.35  20 2.44
  84  0.799  0.068  0.315-  24 2.22  20 2.29  36 2.33  17 2.50
  85  0.057  0.319  0.319-  37 2.23  22 2.28  25 2.38  21 2.52
  86  0.307  0.321  0.296-  22 2.16  26 2.26  23 2.54  38 2.61
  87  0.557  0.315  0.312-  27 2.32  24 2.38  23 2.40  39 2.48
  88  0.809  0.313  0.307-  21 2.32  28 2.32  40 2.39  24 2.45
  89  0.053  0.564  0.316-  29 2.22  25 2.29  41 2.35  26 2.50
  90  0.317  0.562  0.313-  42 2.31  26 2.34  27 2.37  30 2.43
  91  0.555  0.565  0.317-  31 2.22  28 2.35  27 2.36  43 2.40
  92  0.822  0.554  0.315-  32 2.29  25 2.29  44 2.32  28 2.40
  93  0.063  0.814  0.318-  17 2.19  30 2.29  45 2.29  29 2.59
  94  0.320  0.803  0.317-  46 2.25  31 2.39  18 2.50  30 2.51
  95  0.563  0.813  0.312-  19 2.23  47 2.23  31 2.42  32 2.53
  96  0.794  0.823  0.314-  20 2.21  32 2.22  48 2.39  29 2.59
  97  0.064  0.059  0.560-  33 2.25  37 2.27  49 2.34  34 2.40
  98  0.313  0.064  0.565-  35 2.26  38 2.38  34 2.43  50 2.47
  99  0.571  0.063  0.574-  51 2.22  36 2.33  39 2.35  35 2.74
 100  0.823  0.059  0.554-  36 2.26  40 2.26  52 2.35  33 2.36
 101  0.059  0.309  0.569-  53 2.22  41 2.41  38 2.41  37 2.46
 102  0.325  0.311  0.557-  39 2.08  38 2.38  54 2.51  42 2.59
 103  0.570  0.306  0.553-  39 2.34  40 2.41  43 2.55  55 2.55
 104  0.802  0.301  0.576-  56 2.17  40 2.36  44 2.49  37 2.65
 105  0.076  0.549  0.566-  42 2.21  57 2.33  41 2.43  45 2.52
 106  0.312  0.570  0.559-  46 2.27  42 2.28  43 2.35  58 2.41
 107  0.569  0.569  0.556-  47 2.25  43 2.32  44 2.42  59 2.56
 108  0.815  0.561  0.571-  48 2.24  60 2.29  41 2.30  44 2.44
 109  0.046  0.814  0.571-  33 2.25  61 2.25  45 2.36  46 2.62
 110  0.319  0.817  0.555-  34 2.38  47 2.41  46 2.45  62 2.50
 111  0.558  0.804  0.569-  63 2.27  47 2.37  35 2.40  48 2.56
 112  0.804  0.815  0.560-  48 2.27  64 2.31  36 2.41  45 2.44
 113  0.062  0.050  0.819-  49 2.28   1 2.33  50 2.39  53 2.77
 114  0.318  0.056  0.810-  50 2.31  51 2.31  54 2.39   2 2.55
 115  0.565  0.070  0.807-  55 2.25  52 2.39  51 2.48   3 2.60
 116  0.814  0.058  0.807-  56 2.24  52 2.28   4 2.38  49 2.39
 117  0.058  0.315  0.823-  57 2.28   5 2.33  53 2.40  54 2.41
 118  0.316  0.320  0.805-  58 2.31  54 2.42  55 2.43   6 2.65
 119  0.562  0.311  0.817-   7 2.26  55 2.29  59 2.29  56 2.35
 120  0.810  0.315  0.818-   8 2.32  53 2.34  60 2.35  56 2.70
 121  0.055  0.561  0.817-  57 2.32   9 2.34  58 2.41  61 2.42
 122  0.319  0.553  0.814-  10 2.25  58 2.39  59 2.48  62 2.51
 123  0.564  0.564  0.819-  11 2.24  59 2.32  60 2.38  63 2.47
 124  0.811  0.563  0.812-  60 2.27  12 2.35  57 2.45  64 2.46
 125  0.055  0.823  0.814-  13 2.23  49 2.29  62 2.37  61 2.44
 126  0.314  0.809  0.815-  14 2.24  50 2.28  63 2.35  62 2.43
 127  0.554  0.817  0.813-  63 2.23  51 2.27  64 2.41  15 2.44
 128  0.816  0.817  0.809-  16 2.28  61 2.28  52 2.38  64 2.49
 
  LATTYP: Found a face centered cubic cell.
 ALAT       =    21.8746673814
  
  Lattice vectors:
  
 A1 = (   0.0000000000,  10.9373336907,  10.9373336907)
 A2 = (  10.9373336907,   0.0000000000,  10.9373336907)
 A3 = (  10.9373336907,  10.9373336907,   0.0000000000)


Analysis of symmetry for initial positions (statically):
=====================================================================
 Subroutine PRICEL returns:
 Original cell was already a primitive cell.
 

 Routine SETGRP: Setting up the symmetry group for a 
 face centered cubic supercell.


 Subroutine GETGRP returns: Found  1 space group operations
 (whereof  1 operations were pure point group operations)
 out of a pool of 48 trial point group operations.


The static configuration has the point symmetry C_1 .


Analysis of symmetry for dynamics (positions and initial velocities):
=====================================================================
 Subroutine PRICEL returns:
 Original cell was already a primitive cell.
 

 Routine SETGRP: Setting up the symmetry group for a 
 face centered cubic supercell.


 Subroutine GETGRP returns: Found  1 space group operations
 (whereof  1 operations were pure point group operations)
 out of a pool of 48 trial point group operations.


The dynamic configuration has the point symmetry C_1 .


 Subroutine INISYM returns: Found  1 space group operations
 (whereof  1 operations are pure point group operations),
 and found     1 'primitive' translations

 
 
 KPOINTS: KPOINTS File, automatically generated by

Automatic generation of k-mesh.
Space group operators:
 irot       det(A)        alpha          n_x          n_y          n_z        tau_x        tau_y        tau_z
    1     1.000000     0.000001     1.000000     0.000000     0.000000     0.000000     0.000000     0.000000
 
 Subroutine IBZKPT returns following result:
 ===========================================
 
 Found      8 irreducible k-points:
 
 Following reciprocal coordinates:
            Coordinates               Weight
  0.000000  0.000000  0.000000      1.000000
  0.500000  0.000000  0.000000      1.000000
  0.000000  0.500000  0.000000      1.000000
  0.500000  0.500000  0.000000      1.000000
  0.000000  0.000000  0.500000      1.000000
  0.500000  0.000000  0.500000      1.000000
  0.000000  0.500000  0.500000      1.000000
  0.500000  0.500000  0.500000      1.000000
 
 Following cartesian coordinates:
            Coordinates               Weight
  0.000000  0.000000  0.000000      1.000000
 -0.022857  0.022857  0.022857      1.000000
  0.022857 -0.022857  0.022857      1.000000
  0.000000  0.000000  0.045715      1.000000
  0.022857  0.022857 -0.022857      1.000000
  0.000000  0.045715  0.000000      1.000000
  0.045715  0.000000  0.000000      1.000000
  0.022857  0.022857  0.022857      1.000000
 


--------------------------------------------------------------------------------------------------------




 Dimension of arrays:
   k-points           NKPTS =      8   k-points in BZ     NKDIM =      8   number of bands    NBANDS=    322
   number of dos      NEDOS =    301   number of ions     NIONS =    128
   non local maximal  LDIM  =      4   non local SUM 2l+1 LMDIM =      8
   total plane-waves  NPLWV = ******
   max r-space proj   IRMAX =      1   max aug-charges    IRDMAX= 176811
   dimension x,y,z NGX =   120 NGY =  120 NGZ =  120
   dimension x,y,z NGXF=   240 NGYF=  240 NGZF=  240
   support grid    NGXF=   480 NGYF=  480 NGZF=  480
   ions per type =             128
   NGX,Y,Z   is equivalent  to a cutoff of  12.90, 12.90, 12.90 a.u.
   NGXF,Y,Z  is equivalent  to a cutoff of  25.80, 25.80, 25.80 a.u.

 SYSTEM =  potpaw_PBE@./ARUN.APL1ZEROSTATE         
 POSCAR =  kk                                      

 Startparameter for this run:
   NWRITE =      2    write-flag & timer
   PREC   = accura    normal or accurate (medium, high low for compatibility)
   ISTART =      0    job   : 0-new  1-cont  2-samecut
   ICHARG =      2    charge: 1-file 2-atom 10-const
   ISPIN  =      1    spin polarized calculation?
   LNONCOLLINEAR =      F non collinear calculations
   LSORBIT =      F    spin-orbit coupling
   INIWAV =      1    electr: 0-lowe 1-rand  2-diag
   LASPH  =      F    aspherical Exc in radial PAW
   METAGGA=      F    non-selfconsistent MetaGGA calc.

 Electronic Relaxation 1
   ENCUT  =  500.0 eV  36.75 Ry    6.06 a.u.  28.20 28.20 28.20*2*pi/ulx,y,z
   ENINI  =  500.0     initial cutoff
   ENAUG  =  322.1 eV  augmentation charge cutoff
   NELM   =    120;   NELMIN=  4; NELMDL= -5     # of ELM steps 
   EDIFF  = 0.1E-07   stopping-criterion for ELM
   LREAL  =      F    real-space projection
   NLSPLINE    = F    spline interpolate recip. space projectors
   LCOMPAT=      F    compatible to vasp.4.4
   GGA_COMPAT  = T    GGA compatible to vasp.4.4-vasp.4.6
   LMAXPAW     = -100 max onsite density
   LMAXMIX     =    2 max onsite mixed and CHGCAR
   VOSKOWN=      0    Vosko Wilk Nusair interpolation
   ROPT   =    0.00000
 Ionic relaxation
   EDIFFG = 0.1E-06   stopping-criterion for IOM
   NSW    =      0    number of steps for IOM
   NBLOCK =      1;   KBLOCK =      1    inner block; outer block 
   IBRION =     -1    ionic relax: 0-MD 1-quasi-New 2-CG
   NFREE  =      0    steps in history (QN), initial steepest desc. (CG)
   ISIF   =      2    stress and relaxation
   IWAVPR =     10    prediction:  0-non 1-charg 2-wave 3-comb
   ISYM   =      2    0-nonsym 1-usesym 2-fastsym
   LCORR  =      T    Harris-Foulkes like correction to forces

   POTIM  = 0.5000    time-step for ionic-motion
   TEIN   =    0.0    initial temperature
   TEBEG  =    0.0;   TEEND  =   0.0 temperature during run
   SMASS  =  -3.00    Nose mass-parameter (am)
   estimated Nose-frequenzy (Omega)   =  0.10E-29 period in steps =****** mass=  -0.547E-26a.u.
   SCALEE = 1.0000    scale energy and forces
   NPACO  =    256;   APACO  = 16.0  distance and # of slots for P.C.
   PSTRESS=    0.0 pullay stress

  Mass of Ions in am
   POMASS =  28.09
  Ionic Valenz
   ZVAL   =   4.00
  Atomic Wigner-Seitz radii
   RWIGS  =  -1.00
  virtual crystal weights 
   VCA    =   1.00
   NELECT =     512.0000    total number of electrons
   NUPDOWN=      -1.0000    fix difference up-down

 DOS related values:
   EMIN   =  10.00;   EMAX   =-10.00  energy-range for DOS
   EFERMI =   0.00
   ISMEAR =     0;   SIGMA  =   0.01  broadening in eV -4-tet -1-fermi 0-gaus

 Electronic relaxation 2 (details)
   IALGO  =     38    algorithm
   LDIAG  =      T    sub-space diagonalisation (order eigenvalues)
   LSUBROT=      F    optimize rotation matrix (better conditioning)
   TURBO    =      0    0=normal 1=particle mesh
   IRESTART =      0    0=no restart 2=restart with 2 vectors
   NREBOOT  =      0    no. of reboots
   NMIN     =      0    reboot dimension
   EREF     =   0.00    reference energy to select bands
   IMIX   =      4    mixing-type and parameters
     AMIX     =   0.40;   BMIX     =  1.00
     AMIX_MAG =   1.60;   BMIX_MAG =  1.00
     AMIN     =   0.10
     WC   =   100.;   INIMIX=   1;  MIXPRE=   1;  MAXMIX= -45

 Intra band minimization:
   WEIMIN = 0.0000     energy-eigenvalue tresh-hold
   EBREAK =  0.78E-11  absolut break condition
   DEPER  =   0.30     relativ break condition  

   TIME   =   0.40     timestep for ELM

  volume/ion in A,a.u.               =      20.44       137.96
  Fermi-wavevector in a.u.,A,eV,Ry     =   0.950408  1.796010 12.289804  0.903275
  Thomas-Fermi vector in A             =   2.078782
 
 Write flags
   LWAVE        =      F    write WAVECAR
   LDOWNSAMPLE  =      F    k-point downsampling of WAVECAR
   LCHARG       =      F    write CHGCAR
   LVTOT        =      F    write LOCPOT, total local potential
   LVHAR        =      F    write LOCPOT, Hartree potential only
   LELF         =      F    write electronic localiz. function (ELF)
   LORBIT       =      0    0 simple, 1 ext, 2 COOP (PROOUT), +10 PAW based schemes


 Dipole corrections
   LMONO  =      F    monopole corrections only (constant potential shift)
   LDIPOL =      F    correct potential (dipole corrections)
   IDIPOL =      0    1-x, 2-y, 3-z, 4-all directions 
   EPSILON=  1.0000000 bulk dielectric constant

 Exchange correlation treatment:
   GGA     =    --    GGA type
   LEXCH   =     8    internal setting for exchange type
   VOSKOWN=      0    Vosko Wilk Nusair interpolation
   LHFCALC =     F    Hartree Fock is set to
   LHFONE  =     F    Hartree Fock one center treatment
   AEXX    =    0.0000 exact exchange contribution

 Linear response parameters
   LEPSILON=     F    determine dielectric tensor
   LRPA    =     F    only Hartree local field effects (RPA)
   LNABLA  =     F    use nabla operator in PAW spheres
   LVEL    =     F    velocity operator in full k-point grid
   LINTERFAST=   F  fast interpolation
   KINTER  =     0    interpolate to denser k-point grid
   CSHIFT  =0.1000    complex shift for real part using Kramers Kronig
   OMEGAMAX=  -1.0    maximum frequency
   DEG_THRESHOLD= 0.2000000E-02 threshold for treating states as degnerate
   RTIME   =   -0.100 relaxation time in fs
  (WPLASMAI=    0.000 imaginary part of plasma frequency in eV, 0.658/RTIME)
   DFIELD  = 0.0000000 0.0000000 0.0000000 field for delta impulse in time
 
 Orbital magnetization related:
   ORBITALMAG=     F  switch on orbital magnetization
   LCHIMAG   =     F  perturbation theory with respect to B field
   DQ        =  0.001000  dq finite difference perturbation B field
   LLRAUG    =     F  two centre corrections for induced B field



--------------------------------------------------------------------------------------------------------


 Static calculation
 charge density and potential will be updated during run
 non-spin polarized calculation
 Variant of blocked Davidson
 Davidson routine will perform the subspace rotation
 perform sub-space diagonalisation
    after iterative eigenvector-optimisation
 modified Broyden-mixing scheme, WC =      100.0
 initial mixing is a Kerker type mixing with AMIX =  0.4000 and BMIX =      1.0000
 Hartree-type preconditioning will be used
 using additional bands           66
 reciprocal scheme for non local part
 use partial core corrections
 calculate Harris-corrections to forces 
   (improved forces if not selfconsistent)
 use gradient corrections 
 use of overlap-Matrix (Vanderbilt PP)
 Gauss-broadening in eV      SIGMA  =   0.01


--------------------------------------------------------------------------------------------------------


  energy-cutoff  :      500.00
  volume of cell :     2616.76
      direct lattice vectors                 reciprocal lattice vectors
     0.000000000 10.937333691 10.937333691    -0.045714981  0.045714981  0.045714981
    10.937333691  0.000000000 10.937333691     0.045714981 -0.045714981  0.045714981
    10.937333691 10.937333691  0.000000000     0.045714981  0.045714981 -0.045714981

  length of vectors
    15.467725642 15.467725642 15.467725642     0.079180669  0.079180669  0.079180669


 
 k-points in units of 2pi/SCALE and weight: KPOINTS File, automatically generated by
   0.00000000  0.00000000  0.00000000       0.125
  -0.02285749  0.02285749  0.02285749       0.125
   0.02285749 -0.02285749  0.02285749       0.125
   0.00000000  0.00000000  0.04571498       0.125
   0.02285749  0.02285749 -0.02285749       0.125
   0.00000000  0.04571498  0.00000000       0.125
   0.04571498  0.00000000  0.00000000       0.125
   0.02285749  0.02285749  0.02285749       0.125
 
 k-points in reciprocal lattice and weights: KPOINTS File, automatically generated by
   0.00000000  0.00000000  0.00000000       0.125
   0.50000000  0.00000000  0.00000000       0.125
   0.00000000  0.50000000  0.00000000       0.125
   0.50000000  0.50000000  0.00000000       0.125
   0.00000000  0.00000000  0.50000000       0.125
   0.50000000  0.00000000  0.50000000       0.125
   0.00000000  0.50000000  0.50000000       0.125
   0.50000000  0.50000000  0.50000000       0.125
 
 position of ions in fractional coordinates (direct lattice) 
   0.00588565  0.98973002  0.00299141
   0.23782544  0.00524343  0.01045624
   0.50171046  0.98275596  0.01148219
   0.74486193  0.00829869  0.99572969
   0.00240663  0.25189555  0.00750960
   0.25357401  0.24354805  0.01504832
   0.50941015  0.24135205  0.99532560
   0.73815865  0.26051923  0.00115299
   0.99935314  0.50349829  0.00189976
   0.25336171  0.50364812  0.99231086
   0.50302538  0.50203952  0.99654851
   0.74825934  0.50561716  0.99848850
   0.00239991  0.74327690  0.98957542
   0.25253199  0.74420223  0.99225987
   0.50036690  0.74594430  0.00566147
   0.75244371  0.75135985  0.98857034
   0.99678029  0.98659829  0.25445902
   0.23987722  0.99948556  0.24637145
   0.50546975  0.98929549  0.25731416
   0.74712703  0.99717981  0.25696878
   0.99209709  0.25142377  0.25052974
   0.23601049  0.27533146  0.24195182
   0.50783505  0.24437443  0.24186148
   0.74545915  0.24385885  0.24585993
   0.00289891  0.50677738  0.24322620
   0.25076696  0.49731162  0.25909161
   0.50483646  0.49851070  0.24771907
   0.74128684  0.49546195  0.26517369
   0.99924592  0.73994172  0.25151641
   0.24382161  0.75387901  0.24443115
   0.50955835  0.74080041  0.24624730
   0.76275892  0.73460838  0.26190383
   0.00910029  0.99008213  0.50670712
   0.25379976  0.00576103  0.49080132
   0.49185490  0.99449524  0.50475444
   0.75425802  0.00412073  0.49835477
   0.01143144  0.23852107  0.49337432
   0.25045400  0.25234322  0.50227292
   0.48983833  0.24705794  0.50759945
   0.76023512  0.23745072  0.49564883
   0.99715047  0.50008566  0.50238420
   0.24896463  0.51613002  0.49507156
   0.49809693  0.50605627  0.50591164
   0.76011376  0.49623954  0.49796169
   0.99730369  0.74746351  0.49948244
   0.25335611  0.74981002  0.49462305
   0.50983390  0.74692399  0.48848707
   0.76056405  0.73779277  0.50107105
   0.00270286  0.00331223  0.74515223
   0.25133757  0.98985863  0.76019216
   0.50086461  0.99645781  0.74842155
   0.75425694  0.00492475  0.73994387
   0.99410432  0.26940475  0.74399868
   0.24860197  0.24512760  0.75546504
   0.50709942  0.24757641  0.75436537
   0.74699787  0.23536243  0.74730476
   0.00430099  0.49492778  0.75077380
   0.24606221  0.50189791  0.74898607
   0.51427812  0.49156794  0.75814864
   0.75256835  0.50170384  0.75225942
   0.99676706  0.75319291  0.74893798
   0.24207557  0.75135846  0.75314931
   0.50026295  0.75933169  0.74829481
   0.74467728  0.75765950  0.74256317
   0.05438995  0.06349729  0.06748282
   0.31418181  0.05748489  0.06441842
   0.56607367  0.06305221  0.05122603
   0.80430505  0.06205804  0.07146132
   0.05045169  0.31521132  0.07666201
   0.32071202  0.31505602  0.05653192
   0.55774004  0.31858969  0.05987914
   0.79667993  0.31916109  0.07370527
   0.05801693  0.55863970  0.06757029
   0.32100078  0.56140192  0.05507580
   0.56587792  0.55133792  0.06457072
   0.81109161  0.55362878  0.06676385
   0.07305159  0.80234652  0.05987982
   0.32200182  0.80968901  0.06160616
   0.56680263  0.80412351  0.06509364
   0.80968666  0.81929868  0.06302319
   0.04781002  0.07258574  0.32454100
   0.30485469  0.06516660  0.31283639
   0.55365813  0.06251388  0.32154656
   0.79936326  0.06828860  0.31458053
   0.05665480  0.31858902  0.31863327
   0.30688549  0.32099896  0.29606455
   0.55727397  0.31500178  0.31158291
   0.80882246  0.31277835  0.30725195
   0.05300834  0.56397927  0.31644852
   0.31742028  0.56226955  0.31272611
   0.55532845  0.56540677  0.31650782
   0.82243180  0.55381342  0.31467913
   0.06337397  0.81358811  0.31846108
   0.32026661  0.80269964  0.31678523
   0.56334923  0.81279757  0.31184243
   0.79440960  0.82292803  0.31420690
   0.06437677  0.05890991  0.56032613
   0.31304326  0.06408774  0.56499599
   0.57075997  0.06344731  0.57378679
   0.82263093  0.05853699  0.55396210
   0.05943979  0.30897809  0.56906109
   0.32544732  0.31096572  0.55675599
   0.56990659  0.30565819  0.55299249
   0.80199976  0.30067668  0.57602185
   0.07608878  0.54885775  0.56637943
   0.31200226  0.57031421  0.55858763
   0.56857839  0.56895937  0.55612719
   0.81530807  0.56097059  0.57088898
   0.04621105  0.81390208  0.57075545
   0.31924858  0.81711502  0.55536258
   0.55795549  0.80426454  0.56949590
   0.80385212  0.81450674  0.55967278
   0.06205995  0.05024249  0.81860368
   0.31782642  0.05626731  0.80957264
   0.56518371  0.06984428  0.80665238
   0.81385815  0.05810911  0.80743972
   0.05825593  0.31476520  0.82341488
   0.31557764  0.31951924  0.80511569
   0.56244000  0.31110061  0.81653455
   0.80977252  0.31541845  0.81804705
   0.05525703  0.56149121  0.81653315
   0.31852435  0.55317184  0.81409665
   0.56385087  0.56396664  0.81900366
   0.81063833  0.56336253  0.81244770
   0.05484718  0.82255110  0.81421011
   0.31433037  0.80948012  0.81534681
   0.55408117  0.81713675  0.81279520
   0.81626446  0.81682862  0.80861406
 
 position of ions in cartesian coordinates  (Angst):
  10.85772556  0.09709138 10.88938079
   0.17171255  2.71553950  2.65852534
  10.87431439  5.61295925 16.23610451
  10.98139348 19.03743143  8.23756905
   2.83720072  0.10845707  2.78138782
   2.82835476  2.93801209  5.43718989
  13.52595612 16.45779693  8.21133669
   2.86199636  8.08609815 10.92287320
   5.52770716 10.95103702 16.43718759
  16.36180253 13.62433655  8.27966916
  16.39055742 16.40134009 10.99273026
  16.45090556 19.10476399 13.71406566
  18.95278405 10.84956521  8.15571616
  18.99226542 13.61470401 10.90161477
   8.22056310  5.53460112 13.63132152
  19.03019710 19.04205154 16.44760134
  13.57385791 13.68522189 21.69287339
  13.62635392  5.31826399 13.55532432
  13.63458572  8.34282218 16.34874624
  13.71704162 10.98213096 19.07806604
   5.49003298 13.59102425 13.60080254
   5.65769985  5.22763330  5.59271761
   5.31812442  8.19968119  8.22716614
   5.35621763 10.84238754 10.82050106
   8.20303947  2.69195248  5.57449964
   8.27303452  5.57649336  8.18198503
   8.16176402  8.23095091 10.97394274
   8.31932576 11.00799462 13.52673415
  10.84390838 13.68000495 19.02207549
  10.91885134  5.34018340 10.91218464
  10.79567018  8.26649860 13.67559104
  10.89918658 11.20707846 16.37720588
  16.37088349  5.64155774 10.92839152
   5.43106815  8.14395051  2.83890307
  16.39779405 10.90024895 16.25670752
   5.49574221 13.70024408  8.29464148
   8.00498421  5.52122912  2.73381409
   8.25348854  8.23282553  5.49926095
   8.25393970 10.90930988  8.05968040
   8.01815436 13.73602181 10.91202293
  10.96434736 16.40091107 16.37577116
  11.05984914  8.13777207  8.36809554
  11.06823076 10.98117677 10.98275869
  10.87391064 13.75999103 13.74115531
  13.63826396 16.37084937 19.08310113
  13.61077978  8.18089767 10.97196275
  13.51210293 10.91896960 13.74558040
  13.54986699 13.79892404 16.38802854
   8.18620560  8.17954064  0.06578902
  19.14088955 11.06343820 13.57537703
  19.08432774 13.66385952 16.37671489
   8.14687667 16.34257287  8.30342356
  11.08393145 19.01021255 13.81942033
  10.94381561 10.98181602  5.40008509
  10.95857157 13.79706132  8.25414131
  10.74775889 16.34368646 10.74440239
  13.62465388  8.25850492  5.46023169
  13.68133557 10.88317513  8.18068946
  13.66856726 13.91695601 11.00127397
  13.71501464 16.45880345 13.71839351
  16.42930676 19.09335847 19.13989614
  16.45530359 10.88510671 10.86551954
  16.48941415 13.65589285 13.77660694
  16.40843600 16.26644511 16.43155866
   1.43257319  1.33296317  1.28937209
   1.33329724  4.14087705  4.06504273
   1.24989925  6.75161283  6.88095971
   1.46034576  9.57854903  9.47570225
   4.28604932  1.39028496  3.99937835
   4.06418121  4.12604283  6.95360718
   4.13943996  6.75510707  9.58471067
   4.29691051  9.51969340 12.20432566
   6.84906757  1.37358928  6.74457926
   6.74262258  4.11327509  9.65113285
   6.73639822  6.89542713 12.21936242
   6.78544118  9.60139811 14.92640230
   9.43045722  1.45391522  9.57452134
   9.52964602  4.19564839 12.37768024
   9.50691807  6.91126043 14.99427672
   9.65024872  9.54511876 17.81675625
   4.34350763  4.07252737  1.31680864
   4.13434491  6.75589346  4.04704633
   4.20059724  9.57240577  6.73927896
   4.18756741 12.18357489  9.48979792
   6.96951283  4.10465087  4.10416691
   6.74902950  6.59466581  6.86738168
   6.85316585  9.50297762  9.54037097
   6.78147830 12.20687826 12.26732235
   9.62953252  4.04087299  6.74819934
   9.57011947  6.89212134  9.62146119
   9.64579414  9.53556420 12.25785505
   9.49899283 12.43696171 15.05245318
  12.38159976  4.17625733  9.59162686
  12.24417962  6.96764856 12.28225666
  12.30056290  9.57226314 15.05137670
  12.43722418 12.12530861 17.68936143
   6.77279124  6.83258402  1.34842756
   6.88049876  9.60340832  4.12480765
   6.96964196 12.51828986  6.93653662
   6.69910690 15.05625733  9.63762763
   9.60340754  6.87412380  4.02950929
   9.49056190  9.64895199  6.96066175
   9.39134900 12.28152200  9.57634414
   9.58874432 15.07188208 12.06034013
  12.19772125  7.02688922  6.83524875
  12.34717606  9.52193216  9.65018965
  12.30544719 12.30128023 12.44163005
  12.37952576 15.16129970 15.05281896
  15.14446151  6.74796847  9.40734429
  15.01124549  9.56591413 12.42878787
  15.02527632 12.33131211 14.89905506
  15.02985999 14.91332680 17.70053087
   9.50286048  9.63211196  1.22828930
   9.46998042 12.33073962  4.09158792
   9.58653648 15.00422912  6.94551306
   9.46679635 17.73267578  9.53699685
  12.44865538  9.64312784  4.07985656
  12.30050745 12.25739690  6.94626651
  12.33332206 15.08230484  9.55420524
  12.39709032 17.80400581 12.30658910
  15.07191219  9.53506005  6.74558124
  14.95427162 12.38785377  9.53403206
  15.12600767 15.12474142 12.33531646
  15.04769559 17.75223353 15.02790584
  17.90180343  9.50516957  9.59639776
  17.77127431 12.35565631 12.29149029
  17.82710965 14.94998299 14.99746801
  17.77800895 17.77183853 17.86168394
 


--------------------------------------------------------------------------------------------------------


 k-point  1 :   0.0000 0.0000 0.0000  plane waves:   66299
 k-point  2 :   0.5000 0.0000 0.0000  plane waves:   66394
 k-point  3 :   0.0000 0.5000 0.0000  plane waves:   66394
 k-point  4 :   0.5000 0.5000 0.0000  plane waves:   66552
 k-point  5 :   0.0000 0.0000 0.5000  plane waves:   66394
 k-point  6 :   0.5000 0.0000 0.5000  plane waves:   66552
 k-point  7 :   0.0000 0.5000 0.5000  plane waves:   66552
 k-point  8 :   0.5000 0.5000 0.5000  plane waves:   66394

 maximum and minimum number of plane-waves per node :      4207     4110

 maximum number of plane-waves:     66552
 maximum index in each direction: 
   IXMAX=   28   IYMAX=   28   IZMAX=   28
   IXMIN=  -28   IYMIN=  -28   IZMIN=  -28


 parallel 3D FFT for wavefunctions:
    minimum data exchange during FFTs selected (reduces bandwidth)
 parallel 3D FFT for charge:
    minimum data exchange during FFTs selected (reduces bandwidth)


 total amount of memory used by VASP MPI-rank0   221701. kBytes
=======================================================================

   base      :      30000. kBytes
   nonl-proj :      10690. kBytes
   fftplans  :      66746. kBytes
   grid      :      26864. kBytes
   one-center:         24. kBytes
   wavefun   :      87377. kBytes
 
     INWAV:  cpu time    0.0000: real time    0.0002
 Broyden mixing: mesh for mixing (old mesh)
   NGX = 57   NGY = 57   NGZ = 57
  (NGX  =240   NGY  =240   NGZ  =240)
  gives a total of 185193 points

 initial charge density was supplied:
 charge density of overlapping atoms calculated
 number of electron     512.0000000 magnetization 
 keeping initial charge density in first step


--------------------------------------------------------------------------------------------------------


 Maximum index for augmentation-charges         5608 (set IRDMAX)


--------------------------------------------------------------------------------------------------------


 First call to EWALD:  gamma=   0.129
 Maximum number of real-space cells 3x 3x 3
 Maximum number of reciprocal cells 3x 3x 3

    FEWALD:  cpu time    0.0059: real time    0.0059


--------------------------------------- Iteration      1(   1)  ---------------------------------------


    POTLOK:  cpu time    0.4901: real time    0.4993
    SETDIJ:  cpu time    0.5142: real time    0.5142
     EDDAV:  cpu time   69.4744: real time   69.5027
       DOS:  cpu time    0.0033: real time    0.0033
    --------------------------------------------
      LOOP:  cpu time   70.4820: real time   70.5195

 eigenvalue-minimisations  :  5152
 total energy-change (2. order) : 0.1384207E+04  (-0.1908442E+05)
 number of electron     512.0000000 magnetization 
 augmentation part      512.0000000 magnetization 

 Free energy of the ion-electron system (eV)
  ---------------------------------------------------
  alpha Z        PSCENC =       210.77028614
  Ewald energy   TEWEN  =    -14463.46198034
  -Hartree energ DENC   =      -762.06712615
  -exchange      EXHF   =         0.00000000
  -V(xc)+E(xc)   XCENC  =     -1195.21945225
  PAW double counting   =      4221.13331941    -1969.18571412
  entropy T*S    EENTRO =        -0.00084600
  eigenvalues    EBANDS =      2149.75759176
  atomic energy  EATOM  =     13192.48085998
  Solvation  Ediel_sol  =         0.00000000
  ---------------------------------------------------
  free energy    TOTEN  =      1384.20693844 eV

  energy without entropy =     1384.20778444  energy(sigma->0) =     1384.20736144


--------------------------------------------------------------------------------------------------------




--------------------------------------- Iteration      1(   2)  ---------------------------------------


     EDDAV:  cpu time   78.8179: real time   78.8713
       DOS:  cpu time    0.0030: real time    0.0030
    --------------------------------------------
      LOOP:  cpu time   78.8210: real time   78.8744

 eigenvalue-minimisations  :  6104
 total energy-change (2. order) :-0.1920523E+04  (-0.1825889E+04)
 number of electron     512.0000000 magnetization 
 augmentation part      512.0000000 magnetization 

 Free energy of the ion-electron system (eV)
  ---------------------------------------------------
  alpha Z        PSCENC =       210.77028614
  Ewald energy   TEWEN  =    -14463.46198034
  -Hartree energ DENC   =      -762.06712615
  -exchange      EXHF   =         0.00000000
  -V(xc)+E(xc)   XCENC  =     -1195.21945225
  PAW double counting   =      4221.13331941    -1969.18571412
  entropy T*S    EENTRO =        -0.00000003
  eigenvalues    EBANDS =       229.23347730
  atomic energy  EATOM  =     13192.48085998
  Solvation  Ediel_sol  =         0.00000000
  ---------------------------------------------------
  free energy    TOTEN  =      -536.31633005 eV

  energy without entropy =     -536.31633002  energy(sigma->0) =     -536.31633004


--------------------------------------------------------------------------------------------------------




--------------------------------------- Iteration      1(   3)  ---------------------------------------


     EDDAV:  cpu time   80.8478: real time   80.8884
       DOS:  cpu time    0.0011: real time    0.0011
    --------------------------------------------
      LOOP:  cpu time   80.8489: real time   80.8895

 eigenvalue-minimisations  :  6296
 total energy-change (2. order) :-0.1500788E+03  (-0.1470192E+03)
 number of electron     512.0000000 magnetization 
 augmentation part      512.0000000 magnetization 

 Free energy of the ion-electron system (eV)
  ---------------------------------------------------
  alpha Z        PSCENC =       210.77028614
  Ewald energy   TEWEN  =    -14463.46198034
  -Hartree energ DENC   =      -762.06712615
  -exchange      EXHF   =         0.00000000
  -V(xc)+E(xc)   XCENC  =     -1195.21945225
  PAW double counting   =      4221.13331941    -1969.18571412
  entropy T*S    EENTRO =        -0.00000000
  eigenvalues    EBANDS =        79.15465816
  atomic energy  EATOM  =     13192.48085998
  Solvation  Ediel_sol  =         0.00000000
  ---------------------------------------------------
  free energy    TOTEN  =      -686.39514916 eV

  energy without entropy =     -686.39514916  energy(sigma->0) =     -686.39514916


--------------------------------------------------------------------------------------------------------




--------------------------------------- Iteration      1(   4)  ---------------------------------------


     EDDAV:  cpu time   79.7260: real time   79.7687
       DOS:  cpu time    0.0011: real time    0.0010
    --------------------------------------------
      LOOP:  cpu time   79.7270: real time   79.7698

 eigenvalue-minimisations  :  6184
 total energy-change (2. order) :-0.4254704E+01  (-0.4219947E+01)
 number of electron     512.0000000 magnetization 
 augmentation part      512.0000000 magnetization 

 Free energy of the ion-electron system (eV)
  ---------------------------------------------------
  alpha Z        PSCENC =       210.77028614
  Ewald energy   TEWEN  =    -14463.46198034
  -Hartree energ DENC   =      -762.06712615
  -exchange      EXHF   =         0.00000000
  -V(xc)+E(xc)   XCENC  =     -1195.21945225
  PAW double counting   =      4221.13331941    -1969.18571412
  entropy T*S    EENTRO =        -0.00000000
  eigenvalues    EBANDS =        74.89995412
  atomic energy  EATOM  =     13192.48085998
  Solvation  Ediel_sol  =         0.00000000
  ---------------------------------------------------
  free energy    TOTEN  =      -690.64985320 eV

  energy without entropy =     -690.64985320  energy(sigma->0) =     -690.64985320


--------------------------------------------------------------------------------------------------------




--------------------------------------- Iteration      1(   5)  ---------------------------------------


     EDDAV:  cpu time   80.5554: real time   80.6064
       DOS:  cpu time    0.0014: real time    0.0014
    CHARGE:  cpu time    3.1591: real time    3.1598
    MIXING:  cpu time    0.0519: real time    0.0518
    --------------------------------------------
      LOOP:  cpu time   83.7678: real time   83.8195

 eigenvalue-minimisations  :  6272
 total energy-change (2. order) :-0.1483759E+00  (-0.1479463E+00)
 number of electron     511.9999998 magnetization 
 augmentation part      -30.1811163 magnetization 

 Broyden mixing:
  rms(total) = 0.24007E+01    rms(broyden)= 0.24007E+01
  rms(prec ) = 0.29097E+01
  weight for this iteration     100.00

 Free energy of the ion-electron system (eV)
  ---------------------------------------------------
  alpha Z        PSCENC =       210.77028614
  Ewald energy   TEWEN  =    -14463.46198034
  -Hartree energ DENC   =      -762.06712615
  -exchange      EXHF   =         0.00000000
  -V(xc)+E(xc)   XCENC  =     -1195.21945225
  PAW double counting   =      4221.13331941    -1969.18571412
  entropy T*S    EENTRO =        -0.00000000
  eigenvalues    EBANDS =        74.75157824
  atomic energy  EATOM  =     13192.48085998
  Solvation  Ediel_sol  =         0.00000000
  ---------------------------------------------------
  free energy    TOTEN  =      -690.79822908 eV

  energy without entropy =     -690.79822908  energy(sigma->0) =     -690.79822908


--------------------------------------------------------------------------------------------------------




--------------------------------------- Iteration      1(   6)  ---------------------------------------


    POTLOK:  cpu time    0.4880: real time    0.4906
    SETDIJ:  cpu time    0.5155: real time    0.5155
     EDDAV:  cpu time   76.9507: real time   76.9785
       DOS:  cpu time    0.0013: real time    0.0013
    CHARGE:  cpu time    3.1720: real time    3.1734
    MIXING:  cpu time    0.0445: real time    0.0445
    --------------------------------------------
      LOOP:  cpu time   81.1721: real time   81.2039

 eigenvalue-minimisations  :  5920
 total energy-change (2. order) : 0.8512738E+01  (-0.5910321E+00)
 number of electron     511.9999998 magnetization 
 augmentation part      -29.8405567 magnetization 

 Broyden mixing:
  rms(total) = 0.14262E+01    rms(broyden)= 0.14262E+01
  rms(prec ) = 0.17191E+01
  weight for this iteration     100.00

 eigenvalues of (default mixing * dielectric matrix)
  average eigenvalue GAMMA=   2.4306
  2.4306

 Free energy of the ion-electron system (eV)
  ---------------------------------------------------
  alpha Z        PSCENC =       210.77028614
  Ewald energy   TEWEN  =    -14463.46198034
  -Hartree energ DENC   =      -857.34121975
  -exchange      EXHF   =         0.00000000
  -V(xc)+E(xc)   XCENC  =     -1180.55179713
  PAW double counting   =      4466.76420563    -2221.61700815
  entropy T*S    EENTRO =        -0.00000000
  eigenvalues    EBANDS =       170.67116296
  atomic energy  EATOM  =     13192.48085998
  Solvation  Ediel_sol  =         0.00000000
  ---------------------------------------------------
  free energy    TOTEN  =      -682.28549066 eV

  energy without entropy =     -682.28549066  energy(sigma->0) =     -682.28549066


--------------------------------------------------------------------------------------------------------




--------------------------------------- Iteration      1(   7)  ---------------------------------------


    POTLOK:  cpu time    0.4891: real time    0.4929
    SETDIJ:  cpu time    0.5166: real time    0.5166
     EDDAV:  cpu time   77.3751: real time   77.4163
       DOS:  cpu time    0.0011: real time    0.0011
    CHARGE:  cpu time    3.1461: real time    3.1484
    MIXING:  cpu time    0.0533: real time    0.0533
    --------------------------------------------
      LOOP:  cpu time   81.5813: real time   81.6286

 eigenvalue-minimisations  :  5960
 total energy-change (2. order) : 0.3553272E+01  (-0.1143299E+01)
 number of electron     511.9999998 magnetization 
 augmentation part      -29.3860304 magnetization 

 Broyden mixing:
  rms(total) = 0.15630E+00    rms(broyden)= 0.15630E+00
  rms(prec ) = 0.20302E+00
  weight for this iteration     100.00

 eigenvalues of (default mixing * dielectric matrix)
  average eigenvalue GAMMA=   2.1128
  2.1128  2.1128

 Free energy of the ion-electron system (eV)
  ---------------------------------------------------
  alpha Z        PSCENC =       210.77028614
  Ewald energy   TEWEN  =    -14463.46198034
  -Hartree energ DENC   =     -1008.10805297
  -exchange      EXHF   =         0.00000000
  -V(xc)+E(xc)   XCENC  =     -1156.58010024
  PAW double counting   =      4788.32489151    -2551.75841944
  entropy T*S    EENTRO =        -0.00000000
  eigenvalues    EBANDS =       309.60029647
  atomic energy  EATOM  =     13192.48085998
  Solvation  Ediel_sol  =         0.00000000
  ---------------------------------------------------
  free energy    TOTEN  =      -678.73221888 eV

  energy without entropy =     -678.73221888  energy(sigma->0) =     -678.73221888


--------------------------------------------------------------------------------------------------------




--------------------------------------- Iteration      1(   8)  ---------------------------------------


    POTLOK:  cpu time    0.4880: real time    0.4916
    SETDIJ:  cpu time    0.5097: real time    0.5106
     EDDAV:  cpu time   75.7707: real time   75.8075
       DOS:  cpu time    0.0016: real time    0.0016
    CHARGE:  cpu time    3.0853: real time    3.0868
    MIXING:  cpu time    0.0504: real time    0.0504
    --------------------------------------------
      LOOP:  cpu time   79.9058: real time   79.9485

 eigenvalue-minimisations  :  5808
 total energy-change (2. order) :-0.5977655E-01  (-0.1152455E+00)
 number of electron     511.9999998 magnetization 
 augmentation part      -29.4556532 magnetization 

 Broyden mixing:
  rms(total) = 0.62892E-01    rms(broyden)= 0.62892E-01
  rms(prec ) = 0.78047E-01
  weight for this iteration     100.00

 eigenvalues of (default mixing * dielectric matrix)
  average eigenvalue GAMMA=   2.0174
  2.6856  1.6833  1.6833

 Free energy of the ion-electron system (eV)
  ---------------------------------------------------
  alpha Z        PSCENC =       210.77028614
  Ewald energy   TEWEN  =    -14463.46198034
  -Hartree energ DENC   =     -1001.25587219
  -exchange      EXHF   =         0.00000000
  -V(xc)+E(xc)   XCENC  =     -1156.73177587
  PAW double counting   =      4739.66828173    -2501.58763395
  entropy T*S    EENTRO =        -0.00000000
  eigenvalues    EBANDS =       301.32583908
  atomic energy  EATOM  =     13192.48085998
  Solvation  Ediel_sol  =         0.00000000
  ---------------------------------------------------
  free energy    TOTEN  =      -678.79199543 eV

  energy without entropy =     -678.79199543  energy(sigma->0) =     -678.79199543


--------------------------------------------------------------------------------------------------------




--------------------------------------- Iteration      1(   9)  ---------------------------------------


    POTLOK:  cpu time    0.4903: real time    0.4915
    SETDIJ:  cpu time    0.5139: real time    0.5182
     EDDAV:  cpu time   78.2784: real time   78.3299
       DOS:  cpu time    0.0015: real time    0.0015
    CHARGE:  cpu time    3.0945: real time    3.0987
    MIXING:  cpu time    0.0409: real time    0.0409
    --------------------------------------------
      LOOP:  cpu time   82.4195: real time   82.4807

 eigenvalue-minimisations  :  6064
 total energy-change (2. order) :-0.2093401E-01  (-0.1028680E-01)
 number of electron     511.9999998 magnetization 
 augmentation part      -29.4593291 magnetization 

 Broyden mixing:
  rms(total) = 0.29531E-01    rms(broyden)= 0.29531E-01
  rms(prec ) = 0.34289E-01
  weight for this iteration     100.00

 eigenvalues of (default mixing * dielectric matrix)
  average eigenvalue GAMMA=   1.8046
  2.5931  1.8594  1.8594  0.9063

 Free energy of the ion-electron system (eV)
  ---------------------------------------------------
  alpha Z        PSCENC =       210.77028614
  Ewald energy   TEWEN  =    -14463.46198034
  -Hartree energ DENC   =     -1008.21290360
  -exchange      EXHF   =         0.00000000
  -V(xc)+E(xc)   XCENC  =     -1155.53124158
  PAW double counting   =      4743.93255804    -2505.97195820
  entropy T*S    EENTRO =        -0.00000000
  eigenvalues    EBANDS =       307.18145013
  atomic energy  EATOM  =     13192.48085998
  Solvation  Ediel_sol  =         0.00000000
  ---------------------------------------------------
  free energy    TOTEN  =      -678.81292944 eV

  energy without entropy =     -678.81292944  energy(sigma->0) =     -678.81292944


--------------------------------------------------------------------------------------------------------




--------------------------------------- Iteration      1(  10)  ---------------------------------------


    POTLOK:  cpu time    0.4908: real time    0.4917
    SETDIJ:  cpu time    0.5163: real time    0.5165
     EDDAV:  cpu time   76.7398: real time   76.7829
       DOS:  cpu time    0.0016: real time    0.0016
    CHARGE:  cpu time    3.0913: real time    3.0931
    MIXING:  cpu time    0.0331: real time    0.0331
    --------------------------------------------
      LOOP:  cpu time   80.8728: real time   80.9189

 eigenvalue-minimisations  :  5904
 total energy-change (2. order) :-0.2467057E-02  (-0.9816352E-03)
 number of electron     511.9999998 magnetization 
 augmentation part      -29.4694972 magnetization 

 Broyden mixing:
  rms(total) = 0.11115E-01    rms(broyden)= 0.11115E-01
  rms(prec ) = 0.13457E-01
  weight for this iteration     100.00

 eigenvalues of (default mixing * dielectric matrix)
  average eigenvalue GAMMA=   1.8474
  2.6626  2.6626  1.4984  1.4984  0.9151

 Free energy of the ion-electron system (eV)
  ---------------------------------------------------
  alpha Z        PSCENC =       210.77028614
  Ewald energy   TEWEN  =    -14463.46198034
  -Hartree energ DENC   =     -1006.93002651
  -exchange      EXHF   =         0.00000000
  -V(xc)+E(xc)   XCENC  =     -1155.72022086
  PAW double counting   =      4736.34686935    -2498.19664877
  entropy T*S    EENTRO =        -0.00000000
  eigenvalues    EBANDS =       305.89546451
  atomic energy  EATOM  =     13192.48085998
  Solvation  Ediel_sol  =         0.00000000
  ---------------------------------------------------
  free energy    TOTEN  =      -678.81539649 eV

  energy without entropy =     -678.81539649  energy(sigma->0) =     -678.81539649


--------------------------------------------------------------------------------------------------------




--------------------------------------- Iteration      1(  11)  ---------------------------------------


    POTLOK:  cpu time    0.4911: real time    0.4929
    SETDIJ:  cpu time    0.5130: real time    0.5132
     EDDAV:  cpu time   76.7297: real time   76.7669
       DOS:  cpu time    0.0010: real time    0.0010
    CHARGE:  cpu time    3.1150: real time    3.1163
    MIXING:  cpu time    0.0383: real time    0.0383
    --------------------------------------------
      LOOP:  cpu time   80.8881: real time   80.9287

 eigenvalue-minimisations  :  5880
 total energy-change (2. order) :-0.1405321E-02  (-0.2266892E-03)
 number of electron     511.9999998 magnetization 
 augmentation part      -29.4720501 magnetization 

 Broyden mixing:
  rms(total) = 0.40000E-02    rms(broyden)= 0.40000E-02
  rms(prec ) = 0.56822E-02
  weight for this iteration     100.00

 eigenvalues of (default mixing * dielectric matrix)
  average eigenvalue GAMMA=   1.7810
  2.8295  2.0700  2.0700  1.6291  1.2311  0.8562

 Free energy of the ion-electron system (eV)
  ---------------------------------------------------
  alpha Z        PSCENC =       210.77028614
  Ewald energy   TEWEN  =    -14463.46198034
  -Hartree energ DENC   =     -1006.81064030
  -exchange      EXHF   =         0.00000000
  -V(xc)+E(xc)   XCENC  =     -1155.73383455
  PAW double counting   =      4732.17766345    -2493.93080389
  entropy T*S    EENTRO =        -0.00000000
  eigenvalues    EBANDS =       305.69164769
  atomic energy  EATOM  =     13192.48085998
  Solvation  Ediel_sol  =         0.00000000
  ---------------------------------------------------
  free energy    TOTEN  =      -678.81680181 eV

  energy without entropy =     -678.81680181  energy(sigma->0) =     -678.81680181


--------------------------------------------------------------------------------------------------------




--------------------------------------- Iteration      1(  12)  ---------------------------------------


    POTLOK:  cpu time    0.4921: real time    0.4928
    SETDIJ:  cpu time    0.5116: real time    0.5116
     EDDAV:  cpu time   79.1833: real time   79.2256
       DOS:  cpu time    0.0010: real time    0.0010
    CHARGE:  cpu time    3.1022: real time    3.1038
    MIXING:  cpu time    0.0466: real time    0.0466
    --------------------------------------------
      LOOP:  cpu time   83.3368: real time   83.3813

 eigenvalue-minimisations  :  6152
 total energy-change (2. order) :-0.6117751E-04  (-0.5204552E-04)
 number of electron     511.9999998 magnetization 
 augmentation part      -29.4700706 magnetization 

 Broyden mixing:
  rms(total) = 0.19258E-02    rms(broyden)= 0.19258E-02
  rms(prec ) = 0.23116E-02
  weight for this iteration     100.00

 eigenvalues of (default mixing * dielectric matrix)
  average eigenvalue GAMMA=   1.8202
  3.1328  2.6846  1.7760  1.7760  0.8883  1.2417  1.2417

 Free energy of the ion-electron system (eV)
  ---------------------------------------------------
  alpha Z        PSCENC =       210.77028614
  Ewald energy   TEWEN  =    -14463.46198034
  -Hartree energ DENC   =     -1007.44108389
  -exchange      EXHF   =         0.00000000
  -V(xc)+E(xc)   XCENC  =     -1155.66341321
  PAW double counting   =      4733.46297509    -2495.26030372
  entropy T*S    EENTRO =        -0.00000000
  eigenvalues    EBANDS =       306.29579697
  atomic energy  EATOM  =     13192.48085998
  Solvation  Ediel_sol  =         0.00000000
  ---------------------------------------------------
  free energy    TOTEN  =      -678.81686299 eV

  energy without entropy =     -678.81686299  energy(sigma->0) =     -678.81686299


--------------------------------------------------------------------------------------------------------




--------------------------------------- Iteration      1(  13)  ---------------------------------------


    POTLOK:  cpu time    0.4880: real time    0.4905
    SETDIJ:  cpu time    0.5142: real time    0.5154
     EDDAV:  cpu time   75.6275: real time   75.6574
       DOS:  cpu time    0.0016: real time    0.0016
    CHARGE:  cpu time    3.1110: real time    3.1129
    MIXING:  cpu time    0.0397: real time    0.0397
    --------------------------------------------
      LOOP:  cpu time   79.7820: real time   79.8176

 eigenvalue-minimisations  :  5792
 total energy-change (2. order) :-0.3139799E-04  (-0.1407289E-04)
 number of electron     511.9999998 magnetization 
 augmentation part      -29.4701619 magnetization 

 Broyden mixing:
  rms(total) = 0.67755E-03    rms(broyden)= 0.67753E-03
  rms(prec ) = 0.89165E-03
  weight for this iteration     100.00

 eigenvalues of (default mixing * dielectric matrix)
  average eigenvalue GAMMA=   1.7850
  3.1146  2.5288  1.9588  1.9588  1.4079  1.4079  0.9514  0.9514

 Free energy of the ion-electron system (eV)
  ---------------------------------------------------
  alpha Z        PSCENC =       210.77028614
  Ewald energy   TEWEN  =    -14463.46198034
  -Hartree energ DENC   =     -1007.41427974
  -exchange      EXHF   =         0.00000000
  -V(xc)+E(xc)   XCENC  =     -1155.67614885
  PAW double counting   =      4732.80962602    -2494.59320346
  entropy T*S    EENTRO =        -0.00000000
  eigenvalues    EBANDS =       306.26794586
  atomic energy  EATOM  =     13192.48085998
  Solvation  Ediel_sol  =         0.00000000
  ---------------------------------------------------
  free energy    TOTEN  =      -678.81689439 eV

  energy without entropy =     -678.81689439  energy(sigma->0) =     -678.81689439


--------------------------------------------------------------------------------------------------------




--------------------------------------- Iteration      1(  14)  ---------------------------------------


    POTLOK:  cpu time    0.4917: real time    0.4935
    SETDIJ:  cpu time    0.5111: real time    0.5123
     EDDAV:  cpu time   79.4158: real time   79.4623
       DOS:  cpu time    0.0012: real time    0.0012
    CHARGE:  cpu time    3.1180: real time    3.1189
    MIXING:  cpu time    0.0417: real time    0.0417
    --------------------------------------------
      LOOP:  cpu time   83.5796: real time   83.6300

 eigenvalue-minimisations  :  6184
 total energy-change (2. order) :-0.5423730E-05  (-0.1255763E-05)
 number of electron     511.9999998 magnetization 
 augmentation part      -29.4699782 magnetization 

 Broyden mixing:
  rms(total) = 0.21906E-03    rms(broyden)= 0.21900E-03
  rms(prec ) = 0.31230E-03
  weight for this iteration     100.00

 eigenvalues of (default mixing * dielectric matrix)
  average eigenvalue GAMMA=   1.7667
  3.2110  2.5995  2.1926  1.6370  1.6370  1.3449  1.3449  1.0122  0.9212

 Free energy of the ion-electron system (eV)
  ---------------------------------------------------
  alpha Z        PSCENC =       210.77028614
  Ewald energy   TEWEN  =    -14463.46198034
  -Hartree energ DENC   =     -1007.47540909
  -exchange      EXHF   =         0.00000000
  -V(xc)+E(xc)   XCENC  =     -1155.66817656
  PAW double counting   =      4732.98646760    -2494.77418870
  entropy T*S    EENTRO =        -0.00000000
  eigenvalues    EBANDS =       306.32524115
  atomic energy  EATOM  =     13192.48085998
  Solvation  Ediel_sol  =         0.00000000
  ---------------------------------------------------
  free energy    TOTEN  =      -678.81689981 eV

  energy without entropy =     -678.81689981  energy(sigma->0) =     -678.81689981


--------------------------------------------------------------------------------------------------------




--------------------------------------- Iteration      1(  15)  ---------------------------------------


    POTLOK:  cpu time    0.4903: real time    0.4929
    SETDIJ:  cpu time    0.5137: real time    0.5138
     EDDAV:  cpu time   78.3497: real time   78.3862
       DOS:  cpu time    0.0014: real time    0.0014
    CHARGE:  cpu time    3.1127: real time    3.1148
    MIXING:  cpu time    0.0482: real time    0.0482
    --------------------------------------------
      LOOP:  cpu time   82.5161: real time   82.5573

 eigenvalue-minimisations  :  6080
 total energy-change (2. order) :-0.3901730E-05  (-0.2766547E-06)
 number of electron     511.9999998 magnetization 
 augmentation part      -29.4698593 magnetization 

 Broyden mixing:
  rms(total) = 0.80625E-04    rms(broyden)= 0.80479E-04
  rms(prec ) = 0.10718E-03
  weight for this iteration     100.00

 eigenvalues of (default mixing * dielectric matrix)
  average eigenvalue GAMMA=   1.7175
  3.2334  2.5564  2.2107  1.6702  1.6702  1.4643  1.4643  0.9395  0.9831  0.9831

 Free energy of the ion-electron system (eV)
  ---------------------------------------------------
  alpha Z        PSCENC =       210.77028614
  Ewald energy   TEWEN  =    -14463.46198034
  -Hartree energ DENC   =     -1007.50299200
  -exchange      EXHF   =         0.00000000
  -V(xc)+E(xc)   XCENC  =     -1155.66661210
  PAW double counting   =      4733.05643696    -2494.84653077
  entropy T*S    EENTRO =        -0.00000000
  eigenvalues    EBANDS =       306.35362841
  atomic energy  EATOM  =     13192.48085998
  Solvation  Ediel_sol  =         0.00000000
  ---------------------------------------------------
  free energy    TOTEN  =      -678.81690372 eV

  energy without entropy =     -678.81690372  energy(sigma->0) =     -678.81690372


--------------------------------------------------------------------------------------------------------




--------------------------------------- Iteration      1(  16)  ---------------------------------------


    POTLOK:  cpu time    0.4889: real time    0.4920
    SETDIJ:  cpu time    0.5125: real time    0.5145
     EDDAV:  cpu time   77.7636: real time   77.8022
       DOS:  cpu time    0.0010: real time    0.0010
    CHARGE:  cpu time    3.0765: real time    3.0778
    MIXING:  cpu time    0.0371: real time    0.0372
    --------------------------------------------
      LOOP:  cpu time   81.8797: real time   81.9246

 eigenvalue-minimisations  :  6024
 total energy-change (2. order) : 0.2532142E-06  (-0.3372499E-07)
 number of electron     511.9999998 magnetization 
 augmentation part      -29.4698444 magnetization 

 Broyden mixing:
  rms(total) = 0.37654E-04    rms(broyden)= 0.37341E-04
  rms(prec ) = 0.50152E-04
  weight for this iteration     100.00

 eigenvalues of (default mixing * dielectric matrix)
  average eigenvalue GAMMA=   1.7078
  3.2900  2.6209  2.1080  2.1080  1.4378  1.4378  1.4321  1.4321  0.9051  1.0068
  1.0068

 Free energy of the ion-electron system (eV)
  ---------------------------------------------------
  alpha Z        PSCENC =       210.77028614
  Ewald energy   TEWEN  =    -14463.46198034
  -Hartree energ DENC   =     -1007.50370366
  -exchange      EXHF   =         0.00000000
  -V(xc)+E(xc)   XCENC  =     -1155.66644368
  PAW double counting   =      4733.05587701    -2494.84572826
  entropy T*S    EENTRO =        -0.00000000
  eigenvalues    EBANDS =       306.35392934
  atomic energy  EATOM  =     13192.48085998
  Solvation  Ediel_sol  =         0.00000000
  ---------------------------------------------------
  free energy    TOTEN  =      -678.81690346 eV

  energy without entropy =     -678.81690346  energy(sigma->0) =     -678.81690346


--------------------------------------------------------------------------------------------------------




--------------------------------------- Iteration      1(  17)  ---------------------------------------


    POTLOK:  cpu time    0.4902: real time    0.4913
    SETDIJ:  cpu time    0.5147: real time    0.5150
     EDDAV:  cpu time   78.2535: real time   78.2899
       DOS:  cpu time    0.0012: real time    0.0012
    CHARGE:  cpu time    3.0864: real time    3.0868
    MIXING:  cpu time    0.0344: real time    0.0344
    --------------------------------------------
      LOOP:  cpu time   82.3805: real time   82.4188

 eigenvalue-minimisations  :  6072
 total energy-change (2. order) : 0.2648758E-06  (-0.6857158E-08)
 number of electron     511.9999998 magnetization 
 augmentation part      -29.4698505 magnetization 

 Broyden mixing:
  rms(total) = 0.19353E-04    rms(broyden)= 0.18738E-04
  rms(prec ) = 0.24366E-04
  weight for this iteration     100.00

 eigenvalues of (default mixing * dielectric matrix)
  average eigenvalue GAMMA=   1.6942
  3.2888  2.6246  2.2144  1.8836  1.8836  1.4535  1.4535  0.9433  0.9433  1.1704
  1.2354  1.2354

 Free energy of the ion-electron system (eV)
  ---------------------------------------------------
  alpha Z        PSCENC =       210.77028614
  Ewald energy   TEWEN  =    -14463.46198034
  -Hartree energ DENC   =     -1007.50207938
  -exchange      EXHF   =         0.00000000
  -V(xc)+E(xc)   XCENC  =     -1155.66663631
  PAW double counting   =      4733.05224140    -2494.84184195
  entropy T*S    EENTRO =        -0.00000000
  eigenvalues    EBANDS =       306.35224726
  atomic energy  EATOM  =     13192.48085998
  Solvation  Ediel_sol  =         0.00000000
  ---------------------------------------------------
  free energy    TOTEN  =      -678.81690320 eV

  energy without entropy =     -678.81690320  energy(sigma->0) =     -678.81690320


--------------------------------------------------------------------------------------------------------




--------------------------------------- Iteration      1(  18)  ---------------------------------------


    POTLOK:  cpu time    0.4891: real time    0.4898
    SETDIJ:  cpu time    0.5140: real time    0.5143
     EDDAV:  cpu time   52.1307: real time   52.1591
       DOS:  cpu time    0.0011: real time    0.0011
    CHARGE:  cpu time    3.0720: real time    3.0736
    MIXING:  cpu time    0.0504: real time    0.0504
    --------------------------------------------
      LOOP:  cpu time   56.2573: real time   56.2883

 eigenvalue-minimisations  :  3408
 total energy-change (2. order) :-0.2015495E-06  (-0.1493357E-08)
 number of electron     511.9999998 magnetization 
 augmentation part      -29.4698440 magnetization 

 Broyden mixing:
  rms(total) = 0.84538E-05    rms(broyden)= 0.69316E-05
  rms(prec ) = 0.90543E-05
  weight for this iteration     100.00
  WARNING: grid for Broyden might be to small

 eigenvalues of (default mixing * dielectric matrix)
  average eigenvalue GAMMA=   1.7225
  3.3085  2.6595  2.6595  2.2859  1.7486  1.7486  0.9384  0.9428  1.0410  1.3030
  1.3030  1.2270  1.2270

 Free energy of the ion-electron system (eV)
  ---------------------------------------------------
  alpha Z        PSCENC =       210.77028614
  Ewald energy   TEWEN  =    -14463.46198034
  -Hartree energ DENC   =     -1007.50342853
  -exchange      EXHF   =         0.00000000
  -V(xc)+E(xc)   XCENC  =     -1155.66650517
  PAW double counting   =      4733.05794048    -2494.84767209
  entropy T*S    EENTRO =        -0.00000000
  eigenvalues    EBANDS =       306.35359613
  atomic energy  EATOM  =     13192.48085998
  Solvation  Ediel_sol  =         0.00000000
  ---------------------------------------------------
  free energy    TOTEN  =      -678.81690340 eV

  energy without entropy =     -678.81690340  energy(sigma->0) =     -678.81690340


--------------------------------------------------------------------------------------------------------




--------------------------------------- Iteration      1(  19)  ---------------------------------------


    POTLOK:  cpu time    0.4900: real time    0.4944
    SETDIJ:  cpu time    0.5118: real time    0.5120
     EDDAV:  cpu time   50.5401: real time   50.5599
       DOS:  cpu time    0.0015: real time    0.0015
    CHARGE:  cpu time    3.0836: real time    3.0843
    MIXING:  cpu time    0.0521: real time    0.0520
    --------------------------------------------
      LOOP:  cpu time   54.6792: real time   54.7042

 eigenvalue-minimisations  :  3248
 total energy-change (2. order) : 0.7042763E-07  (-0.3321708E-09)
 number of electron     511.9999998 magnetization 
 augmentation part      -29.4698449 magnetization 

 Broyden mixing:
  rms(total) = 0.57725E-05    rms(broyden)= 0.31466E-05
  rms(prec ) = 0.44125E-05
  weight for this iteration     100.00
  WARNING: grid for Broyden might be to small

 eigenvalues of (default mixing * dielectric matrix)
  average eigenvalue GAMMA=   1.6524
  3.3222  2.7022  2.3351  2.3351  1.7182  1.7182  1.2779  1.2779  1.3382  1.3382
  1.0202  1.0202  0.9149  0.8151

 Free energy of the ion-electron system (eV)
  ---------------------------------------------------
  alpha Z        PSCENC =       210.77028614
  Ewald energy   TEWEN  =    -14463.46198034
  -Hartree energ DENC   =     -1007.50308910
  -exchange      EXHF   =         0.00000000
  -V(xc)+E(xc)   XCENC  =     -1155.66651468
  PAW double counting   =      4733.05775937    -2494.84742747
  entropy T*S    EENTRO =        -0.00000000
  eigenvalues    EBANDS =       306.35320276
  atomic energy  EATOM  =     13192.48085998
  Solvation  Ediel_sol  =         0.00000000
  ---------------------------------------------------
  free energy    TOTEN  =      -678.81690333 eV

  energy without entropy =     -678.81690333  energy(sigma->0) =     -678.81690333


--------------------------------------------------------------------------------------------------------




--------------------------------------- Iteration      1(  20)  ---------------------------------------


    POTLOK:  cpu time    0.4885: real time    0.4917
    SETDIJ:  cpu time    0.5112: real time    0.5113
     EDDAV:  cpu time   49.8675: real time   49.8772
       DOS:  cpu time    0.0018: real time    0.0018
    CHARGE:  cpu time    3.0821: real time    3.0827
    MIXING:  cpu time    0.0491: real time    0.0491
    --------------------------------------------
      LOOP:  cpu time   54.0002: real time   54.0138

 eigenvalue-minimisations  :  3176
 total energy-change (2. order) :-0.2289744E-07  (-0.6220094E-10)
 number of electron     511.9999998 magnetization 
 augmentation part      -29.4698439 magnetization 

 Broyden mixing:
  rms(total) = 0.52349E-05    rms(broyden)= 0.19960E-05
  rms(prec ) = 0.27684E-05
  weight for this iteration     100.00
  WARNING: grid for Broyden might be to small

 eigenvalues of (default mixing * dielectric matrix)
  average eigenvalue GAMMA=   1.6681
  3.2925  2.6878  2.3501  2.3501  1.8875  1.8875  1.3817  1.3817  1.3531  1.3531
  0.9454  0.9454  0.9554  1.1251  1.1251

 Free energy of the ion-electron system (eV)
  ---------------------------------------------------
  alpha Z        PSCENC =       210.77028614
  Ewald energy   TEWEN  =    -14463.46198034
  -Hartree energ DENC   =     -1007.50323654
  -exchange      EXHF   =         0.00000000
  -V(xc)+E(xc)   XCENC  =     -1155.66650251
  PAW double counting   =      4733.05813858    -2494.84782438
  entropy T*S    EENTRO =        -0.00000000
  eigenvalues    EBANDS =       306.35335571
  atomic energy  EATOM  =     13192.48085998
  Solvation  Ediel_sol  =         0.00000000
  ---------------------------------------------------
  free energy    TOTEN  =      -678.81690335 eV

  energy without entropy =     -678.81690335  energy(sigma->0) =     -678.81690335


--------------------------------------------------------------------------------------------------------




--------------------------------------- Iteration      1(  21)  ---------------------------------------


    POTLOK:  cpu time    0.4910: real time    0.4941
    SETDIJ:  cpu time    0.5138: real time    0.5139
     EDDAV:  cpu time   49.6000: real time   49.6104
       DOS:  cpu time    0.0010: real time    0.0010
    --------------------------------------------
      LOOP:  cpu time   50.6059: real time   50.6193

 eigenvalue-minimisations  :  3152
 total energy-change (2. order) : 0.3150490E-08  (-0.1666909E-10)
 number of electron     511.9999998 magnetization 
 augmentation part      -29.4698439 magnetization 

 Free energy of the ion-electron system (eV)
  ---------------------------------------------------
  alpha Z        PSCENC =       210.77028614
  Ewald energy   TEWEN  =    -14463.46198034
  -Hartree energ DENC   =     -1007.50313937
  -exchange      EXHF   =         0.00000000
  -V(xc)+E(xc)   XCENC  =     -1155.66651207
  PAW double counting   =      4733.05800794    -2494.84769213
  entropy T*S    EENTRO =        -0.00000000
  eigenvalues    EBANDS =       306.35326648
  atomic energy  EATOM  =     13192.48085998
  Solvation  Ediel_sol  =         0.00000000
  ---------------------------------------------------
  free energy    TOTEN  =      -678.81690335 eV

  energy without entropy =     -678.81690335  energy(sigma->0) =     -678.81690335


--------------------------------------------------------------------------------------------------------




 average (electrostatic) potential at core
  the test charge radii are     0.9892
  (the norm of the test charge is              1.0000)
       1 -83.5722       2 -83.4183       3 -83.5352       4 -83.5299       5 -83.6332
       6 -83.3913       7 -83.5576       8 -83.4704       9 -83.6568      10 -83.4848
      11 -83.5844      12 -83.5968      13 -83.5242      14 -83.3005      15 -83.5992
      16 -83.4753      17 -83.5977      18 -83.3729      19 -83.4710      20 -83.5468
      21 -83.5346      22 -83.3479      23 -83.6030      24 -83.5826      25 -83.6239
      26 -83.5125      27 -83.7007      28 -83.7137      29 -83.4945      30 -83.3712
      31 -83.5341      32 -83.5779      33 -83.5177      34 -83.2899      35 -83.4389
      36 -83.6463      37 -83.6833      38 -83.4200      39 -83.4467      40 -83.4491
      41 -83.5962      42 -83.5159      43 -83.5637      44 -83.7043      45 -83.5973
      46 -83.3208      47 -83.3881      48 -83.5242      49 -83.5778      50 -83.3504
      51 -83.4664      52 -83.4972      53 -83.5332      54 -83.4153      55 -83.4346
      56 -83.4890      57 -83.6255      58 -83.4639      59 -83.7482      60 -83.4858
      61 -83.5183      62 -83.4610      63 -83.5537      64 -83.6013      65 -83.5873
      66 -83.3537      67 -83.5070      68 -83.6548      69 -83.5083      70 -83.3576
      71 -83.5265      72 -83.4893      73 -83.7244      74 -83.4789      75 -83.6695
      76 -83.6011      77 -83.4705      78 -83.3926      79 -83.4673      80 -83.5440
      81 -83.6058      82 -83.3477      83 -83.4543      84 -83.6270      85 -83.6358
      86 -83.3356      87 -83.6166      88 -83.5221      89 -83.5540      90 -83.4952
      91 -83.5594      92 -83.6709      93 -83.5173      94 -83.3923      95 -83.4692
      96 -83.5946      97 -83.5227      98 -83.3436      99 -83.5130     100 -83.4640
     101 -83.5339     102 -83.3568     103 -83.5249     104 -83.6061     105 -83.7314
     106 -83.3867     107 -83.5987     108 -83.5981     109 -83.5425     110 -83.3550
     111 -83.5202     112 -83.5585     113 -83.4935     114 -83.4033     115 -83.5448
     116 -83.4999     117 -83.5542     118 -83.3668     119 -83.5062     120 -83.5199
     121 -83.6525     122 -83.4938     123 -83.5843     124 -83.6487     125 -83.5291
     126 -83.2618     127 -83.5879     128 -83.4834
 
 
 
 E-fermi :   5.9625     XC(G=0):  -9.3317     alpha+bet :-11.7321


 k-point     1 :       0.0000    0.0000    0.0000
  band No.  band energies     occupation 
      1      -6.3182      2.00000
      2      -5.7392      2.00000
      3      -5.6767      2.00000
      4      -5.6098      2.00000
      5      -5.5714      2.00000
      6      -5.5241      2.00000
      7      -5.5040      2.00000
      8      -5.4312      2.00000
      9      -5.3888      2.00000
     10      -5.3083      2.00000
     11      -5.2690      2.00000
     12      -5.2051      2.00000
     13      -5.1875      2.00000
     14      -5.1506      2.00000
     15      -5.0823      2.00000
     16      -4.4852      2.00000
     17      -4.4630      2.00000
     18      -4.4327      2.00000
     19      -4.3875      2.00000
     20      -4.3734      2.00000
     21      -4.3493      2.00000
     22      -4.3048      2.00000
     23      -4.3035      2.00000
     24      -4.2594      2.00000
     25      -4.2211      2.00000
     26      -4.1651      2.00000
     27      -4.1388      2.00000
     28      -4.0460      2.00000
     29      -4.0252      2.00000
     30      -3.9932      2.00000
     31      -3.9490      2.00000
     32      -3.9021      2.00000
     33      -3.8252      2.00000
     34      -3.8038      2.00000
     35      -3.7672      2.00000
     36      -3.7354      2.00000
     37      -3.7214      2.00000
     38      -3.7023      2.00000
     39      -3.6905      2.00000
     40      -3.6736      2.00000
     41      -3.6137      2.00000
     42      -3.5985      2.00000
     43      -3.5732      2.00000
     44      -3.5553      2.00000
     45      -3.5307      2.00000
[...]
   -.932E+01 -.496E+01 -.376E+01   0.848E+01 0.428E+01 0.396E+01   0.240E+01 0.102E+01 0.844E+00   0.830E-06 0.110E-05 0.129E-06
   -.673E+01 0.297E+01 0.568E+01   0.633E+01 -.257E+01 -.505E+01   0.799E+00 -.121E+01 -.194E+01   0.749E-06 -.691E-06 -.103E-05
   -.267E+01 0.116E+02 0.119E+01   0.294E+01 -.107E+02 -.132E+01   0.370E+00 -.300E+01 -.914E+00   -.169E-05 -.143E-05 0.601E-06
   0.108E+01 -.194E+01 -.316E+01   -.102E+01 0.177E+01 0.350E+01   -.904E+00 0.319E+00 -.142E+00   -.145E-05 0.708E-06 0.846E-06
   -.443E+01 -.287E+01 0.415E+01   0.387E+01 0.263E+01 -.350E+01   -.269E+00 0.615E+00 -.133E+01   -.720E-06 -.456E-06 -.129E-05
   0.110E+02 0.186E+01 -.692E-02   -.111E+02 -.143E+01 0.505E+00   -.254E+01 -.270E+00 -.120E+01   0.808E-06 -.639E-06 -.149E-05
   0.605E+01 0.894E+01 -.123E+02   -.576E+01 -.827E+01 0.105E+02   -.123E+01 -.171E+01 0.315E+01   -.175E-06 -.105E-05 0.120E-05
   -.314E+01 0.301E+01 0.722E+00   0.257E+01 -.259E+01 -.138E+01   -.539E+00 -.996E-02 0.892E+00   -.355E-06 0.126E-05 0.111E-05
   0.671E+01 -.473E+01 -.164E+01   -.691E+01 0.439E+01 0.137E+01   -.131E+01 0.217E+01 0.228E+00   0.105E-05 0.456E-06 0.270E-06
   0.830E+00 0.479E+01 0.443E+01   -.126E+01 -.376E+01 -.370E+01   -.675E+00 -.293E+01 -.573E+00   0.480E-06 -.223E-05 -.448E-07
   -.720E-01 -.197E+02 0.176E+01   0.342E+00 0.172E+02 -.207E+01   0.747E+00 0.596E+01 0.765E+00   0.327E-06 0.211E-05 0.900E-06
   -.592E+01 -.168E+01 0.100E+02   0.543E+01 0.171E+01 -.956E+01   0.206E+00 0.648E+00 -.133E+01   0.551E-06 0.144E-05 0.280E-06
   -.978E+00 0.536E+01 0.239E+01   0.116E+01 -.401E+01 -.181E+01   -.161E+00 -.990E+00 -.140E+01   -.607E-06 -.135E-05 -.123E-06
   0.264E+01 -.110E+02 -.302E+01   -.163E+01 0.968E+01 0.384E+01   -.172E+01 0.287E+01 -.374E+00   -.868E-06 -.338E-06 -.106E-05
   0.142E+01 0.207E+01 -.148E+00   -.765E+00 -.277E+01 -.335E+00   -.431E+00 -.201E+00 0.750E+00   0.109E-06 0.149E-05 0.719E-06
   0.113E+01 -.468E+01 0.697E+01   -.297E+00 0.470E+01 -.584E+01   -.139E+01 0.125E+01 -.181E+01   -.112E-05 -.506E-07 -.858E-06
   0.456E+01 0.509E+01 0.657E+01   -.407E+01 -.414E+01 -.570E+01   -.595E+00 -.132E+01 -.147E+01   -.449E-06 -.922E-06 -.528E-07
   0.754E+01 0.146E+01 0.464E+01   -.706E+01 -.165E+01 -.402E+01   -.233E+01 -.123E+00 -.232E+01   0.409E-06 0.208E-06 -.149E-05
   -.608E+00 0.756E+01 -.716E+01   0.121E+01 -.736E+01 0.591E+01   -.119E+01 -.232E+01 0.175E+01   -.119E-05 -.191E-06 0.724E-06
   0.103E+02 0.627E+01 -.496E+01   -.907E+01 -.560E+01 0.501E+01   -.352E+01 -.178E-01 0.149E+00   -.210E-05 0.246E-06 0.122E-06
   0.256E-01 -.313E+01 -.747E+01   -.658E+00 0.271E+01 0.692E+01   -.537E+00 0.345E+01 0.759E+00   0.965E-06 0.628E-06 -.851E-07
   -.207E+01 -.971E+01 -.566E+01   0.132E+01 0.944E+01 0.613E+01   0.528E+00 0.156E+01 0.160E+00   0.941E-06 -.625E-07 -.215E-05
   -.921E+01 0.483E+01 0.431E+01   0.852E+01 -.459E+01 -.355E+01   0.128E+01 -.741E+00 -.182E+01   0.196E-06 0.284E-06 -.130E-05
   0.792E+01 0.110E+02 0.272E+01   -.690E+01 -.103E+02 -.323E+01   -.260E+01 -.282E+01 -.440E-01   -.829E-06 -.102E-05 0.134E-05
   0.317E+01 -.310E+01 -.227E+00   -.284E+01 0.273E+01 0.569E+00   -.971E-01 0.159E+01 -.243E+00   0.267E-07 0.912E-06 0.415E-06
   0.823E+01 -.715E+00 0.167E+01   -.726E+01 0.148E+01 -.121E+01   -.223E+01 -.174E+01 0.645E+00   0.328E-06 -.146E-05 -.550E-06
   -.159E+02 0.110E+02 0.819E+01   0.142E+02 -.962E+01 -.808E+01   0.536E+01 -.416E+01 -.264E+01   0.241E-05 -.130E-05 0.305E-06
   -.107E+02 0.358E+01 -.375E+01   0.977E+01 -.346E+01 0.312E+01   0.242E+01 0.415E+00 0.875E+00   -.105E-05 -.996E-07 -.498E-06
   -.909E+00 0.346E+01 -.172E+02   0.129E+01 -.277E+01 0.154E+02   -.216E+01 -.182E+01 0.482E+01   -.124E-05 -.716E-07 0.824E-06
   0.172E+00 0.255E+01 0.412E+01   -.630E+00 -.205E+01 -.341E+01   0.154E+01 -.268E+01 -.131E+01   0.130E-05 -.410E-06 -.131E-05
   -.254E+01 -.106E+02 0.442E+01   0.317E+01 0.951E+01 -.390E+01   -.271E+00 0.223E+01 -.949E+00   -.155E-05 0.932E-06 -.108E-05
   -.286E+01 -.104E+02 0.927E+01   0.252E+01 0.885E+01 -.813E+01   0.378E-01 0.315E+01 -.198E+01   -.362E-06 0.119E-05 0.521E-07
   0.505E+01 -.305E-01 0.827E+01   -.487E+01 0.459E+00 -.724E+01   -.136E+01 -.682E+00 -.178E+01   -.370E-06 0.111E-07 -.988E-06
   0.137E+02 -.658E+01 -.196E+01   -.130E+02 0.624E+01 0.148E+01   -.303E+01 0.106E+01 0.134E+01   0.444E-06 0.169E-06 -.352E-07
   -.379E+01 -.409E+01 0.510E+01   0.361E+01 0.350E+01 -.482E+01   0.182E+00 0.618E+00 -.119E+01   0.976E-06 0.164E-06 0.180E-07
   0.356E+01 0.118E+01 -.257E+01   -.342E+01 -.143E+01 0.241E+01   -.118E+01 -.262E-02 0.172E+01   -.593E-06 0.585E-06 0.993E-06
   0.269E+00 0.205E+01 -.517E+01   -.969E+00 -.165E+01 0.405E+01   0.586E+00 0.212E+00 0.231E+01   0.102E-05 0.251E-06 0.111E-05
   -.141E+02 0.621E+01 -.123E+02   0.135E+02 -.539E+01 0.115E+02   0.182E+01 -.112E+01 0.258E+01   0.895E-06 -.801E-06 -.476E-06
   -.125E+02 0.450E+00 0.134E+01   0.122E+02 -.109E+01 -.151E+01   0.199E+01 0.786E+00 -.331E+00   -.115E-05 0.156E-05 0.669E-06
   -.410E+01 -.207E+01 0.148E+02   0.430E+01 0.149E+01 -.140E+02   -.796E+00 0.180E+01 -.284E+01   -.651E-06 0.923E-06 -.674E-06
   -.250E+01 -.159E+02 -.529E+00   0.273E+01 0.144E+02 0.885E+00   -.243E+00 0.274E+01 -.259E+00   -.244E-06 0.840E-06 -.234E-06
   0.831E+01 -.844E+01 0.647E+01   -.809E+01 0.793E+01 -.558E+01   -.148E+01 0.640E+00 -.894E+00   0.150E-05 -.160E-05 -.905E-06
   -.132E-01 -.393E+01 0.814E+01   -.625E-01 0.332E+01 -.789E+01   -.559E-01 0.184E+01 -.172E+01   -.441E-06 -.446E-06 -.312E-06
   -.243E+01 0.662E+01 -.424E+01   0.183E+01 -.612E+01 0.352E+01   -.217E+00 -.303E+00 0.117E+01   0.172E-06 0.114E-05 0.181E-05
   0.147E+02 -.761E+00 0.803E+01   -.139E+02 0.165E+01 -.688E+01   -.200E+01 -.185E+01 -.158E+01   0.703E-06 -.517E-06 -.665E-06
   0.458E-01 -.295E+01 -.324E+01   -.865E+00 0.271E+01 0.311E+01   0.913E+00 0.478E+00 0.119E+01   0.966E-06 -.542E-06 -.618E-06
   0.885E+01 0.823E+01 -.926E+01   -.759E+01 -.797E+01 0.779E+01   -.137E+01 -.136E+01 0.270E+01   -.938E-06 -.316E-06 0.205E-05
   0.151E+01 0.102E+02 -.680E+01   -.181E+01 -.926E+01 0.630E+01   -.892E-01 -.159E+01 0.194E+01   -.303E-08 0.847E-06 0.788E-06
   -.269E+01 -.525E+01 -.994E+01   0.195E+01 0.428E+01 0.911E+01   0.964E+00 0.122E+01 0.203E+01   -.374E-07 0.500E-06 -.354E-06
   0.450E+01 -.292E-01 -.267E+01   -.432E+01 0.638E+00 0.250E+01   -.213E+01 -.988E+00 0.172E+00   -.328E-06 -.194E-05 -.435E-06
   0.889E+01 0.623E+01 0.718E+00   -.749E+01 -.616E+01 -.948E+00   -.258E+01 -.862E+00 0.133E+00   -.152E-05 0.598E-06 0.980E-06
   -.657E+01 -.102E+02 0.773E+00   0.601E+01 0.903E+01 -.162E+00   0.769E+00 0.313E+01 -.124E+00   0.292E-06 0.163E-05 -.863E-06
   0.224E+00 0.382E+01 0.681E+01   -.113E+00 -.299E+01 -.632E+01   -.485E+00 -.239E+01 -.105E+01   -.583E-07 -.248E-07 -.334E-06
 -----------------------------------------------------------------------------------------------
   0.357E+00 -.638E+00 -.620E+00   0.236E-12 -.137E-12 -.180E-12   -.357E+00 0.638E+00 0.620E+00   -.119E-05 0.144E-05 0.129E-05
 
 
 POSITION                                       TOTAL-FORCE (eV/Angst)
 -----------------------------------------------------------------------------------
     10.85773      0.09709     10.88938         0.768263     -0.716305     -0.662146
      0.17171      2.71554      2.65853        -2.056695      0.176381      0.572471
     10.87431      5.61296     16.23610         0.191343     -1.639643      1.532005
     10.98139     19.03743      8.23757        -0.683507      1.011779      0.290084
      2.83720      0.10846      2.78139         0.270675     -1.026166     -1.627987
      2.82835      2.93801      5.43719        -0.585192     -2.012868      0.039913
     13.52596     16.45780      8.21134         1.827310     -0.194624      0.050364
      2.86200      8.08610     10.92287        -0.617351      1.571048      0.057831
      5.52771     10.95104     16.43719        -0.499237     -0.353736     -1.343920
     16.36180     13.62434      8.27967         0.509732      0.648873     -1.008986
     16.39056     16.40134     10.99273         0.183812      0.282172     -0.808619
     16.45091     19.10476     13.71407        -0.627227      0.127125     -0.591694
     18.95278     10.84957      8.15572         2.352384      0.867641     -0.246117
     18.99227     13.61470     10.90161         1.124151      1.788019      0.828609
      8.22056      5.53460     13.63132        -1.168295      0.158838      0.214852
     19.03020     19.04205     16.44760         0.936144      1.694647     -0.585473
     13.57386     13.68522     21.69287         2.693822     -1.239040      1.525032
     13.62635      5.31826     13.55532         0.888183      1.428949     -0.106050
     13.63459      8.34282     16.34875         0.850568     -2.406786      1.050465
     13.71704     10.98213     19.07807         1.094278     -1.739684     -0.034691
      5.49003     13.59102     13.60080         1.889737      1.067849      0.203504
      5.65770      5.22763      5.59272        -2.680651      0.362965     -1.528741
      5.31812      8.19968      8.22717         1.642788     -0.798189     -0.525160
      5.35622     10.84239     10.82050         2.513460      0.404103      0.194685
      8.20304      2.69195      5.57450         0.230750      1.028232     -1.361961
      8.27303      5.57649      8.18199        -0.025127     -1.645631      0.631419
      8.16176      8.23095     10.97394         0.482700     -0.033512     -0.318611
      8.31933     11.00799     13.52673        -0.592157     -0.729912      0.979231
     10.84391     13.68000     19.02208         1.912069     -1.051554      1.453168
     10.91885      5.34018     10.91218        -0.223451      1.903509      0.613755
     10.79567      8.26650     13.67559         1.741874     -0.421588      0.532147
     10.89919     11.20708     16.37721        -0.121492     -3.070027     -0.224020
     16.37088      5.64156     10.92839         0.318440     -1.476678     -0.115494
      5.43107      8.14395      2.83890         0.775760      0.960552     -0.750696
     16.39779     10.90025     16.25671         0.324062      1.708072      1.241225
      5.49574     13.70024      8.29464        -0.699957     -0.389970     -0.981825
      8.00498      5.52123      2.73381         2.812704      0.112835     -0.949018
      8.25349      8.23283      5.49926        -0.566098     -0.648946      0.398158
      8.25394     10.90931      8.05968        -2.601785      1.948902      2.720220
      8.01815     13.73602     10.91202         0.865170     -1.278209      0.397541
     10.96435     16.40091     16.37577        -0.513244      0.979633      0.116646
     11.05985      8.13777      8.36810        -2.086549      1.688682     -0.191531
     11.06823     10.98118     10.98276        -1.375587      0.077937     -0.685383
     10.87391     13.75999     13.74116         0.492404      0.569088     -0.991697
     13.63826     16.37085     19.08310         0.528219      0.693593     -0.913614
     13.61078      8.18090     10.97196         2.133296      0.035129     -0.335211
     13.51210     10.91897     13.74558         2.060093      0.103741     -0.720618
     13.54987     13.79892     16.38803         1.237687     -2.325353     -0.138464
      8.18621      8.17954      0.06579         0.376451     -0.608227     -0.389652
     19.14089     11.06344     13.57538        -0.117979     -1.443614      0.482659
     19.08433     13.66386     16.37671         1.647077      0.761607      0.547989
      8.14688     16.34257      8.30342        -0.239572     -0.227442     -0.940324
     11.08393     19.01021     13.81942         0.086739      2.149078     -1.950041
     10.94382     10.98182      5.40009        -0.319078     -0.235070      0.872707
     10.95857     13.79706      8.25414        -0.056761     -2.352917      0.345261
     10.74776     16.34369     10.74440         2.862059      1.456558      0.496316
     13.62465      8.25850      5.46023         0.886186     -0.549109     -0.209423
     13.68134     10.88318      8.18069         0.221395     -0.197730      0.423307
     13.66857     13.91696     11.00127         0.107456     -2.115919      0.291275
     13.71501     16.45880     13.71839         0.137300     -0.217000     -1.143975
     16.42931     19.09336     19.13990         0.272152      1.377079     -0.135451
     16.45530     10.88511     10.86552        -0.957941      0.488990      0.839147
     16.48941     13.65589     13.77661        -0.836443     -0.049924     -2.079857
     16.40844     16.26645     16.43156         0.482923      1.123090     -0.343513
      1.43257      1.33296      1.28937         0.019209      0.086368     -0.016999
      1.33330      4.14088      4.06504         0.212532     -0.051741      0.343560
      1.24990      6.75161      6.88096         0.655465      1.204586     -1.969933
      1.46035      9.57855      9.47570        -0.543383     -0.307519      1.127458
      4.28605      1.39028      3.99938        -1.645362      0.221048      2.231160
      4.06418      4.12604      6.95361         0.487906      0.038132     -0.017004
      4.13944      6.75511      9.58471        -0.822512     -0.168122     -0.564842
      4.29691      9.51969     12.20433        -2.267350     -0.697970      1.807600
      6.84907      1.37359      6.74458        -1.042653     -0.157966      1.903477
      6.74262      4.11328      9.65113         1.019164      0.169623     -1.208530
      6.73640      6.89543     12.21936         1.123286     -0.472142      1.059870
      6.78544      9.60140     14.92640         1.553617      0.332741      1.043341
      9.43046      1.45392      9.57452         0.401154     -0.802454     -1.307298
      9.52965      4.19565     12.37768         0.635751     -2.086922     -1.046850
      9.50692      6.91126     14.99428        -0.840800      0.147802      0.193109
      9.65025      9.54512     17.81676        -0.833345      0.372151     -0.684740
      4.34351      4.07253      1.31681        -2.653746      0.163215     -0.702330
      4.13434      6.75589      4.04705        -0.938377     -1.041482      1.352828
      4.20060      9.57241      6.73928        -1.112371      0.413374      0.232203
      4.18757     12.18357      9.48980        -1.515244      1.827057     -0.036554
      6.96951      4.10465      4.10417        -1.104791     -1.904761      0.161452
      6.74903      6.59467      6.86738         1.017294      3.451108      0.456980
      6.85317      9.50298      9.54037        -0.292267      0.673457     -0.884187
      6.78148     12.20688     12.26732         0.019319      0.357893     -0.822181
      9.62953      4.04087      6.74820        -0.714115      1.597835      0.438310
      9.57012      6.89212      9.62146         0.225012     -0.902043      0.266500
      9.64579      9.53556     12.25786        -0.554086      1.269886     -0.684861
      9.49899     12.43696     15.05245        -0.105730     -0.368252     -0.599962
     12.38160      4.17626      9.59163        -1.847353     -0.309617     -1.690109
     12.24418      6.96765     12.28226        -0.587498     -2.121292      0.502904
     12.30056      9.57226     15.05138        -2.316475      0.650939      0.201588
     12.43722     12.12531     17.68936        -1.169395      3.029071      0.204205
      6.77279      6.83258      1.34843        -0.227436      1.281186      0.630779
      6.88050      9.60341      4.12481         0.594651     -0.495155     -1.055413
      6.96964     12.51829      6.93654        -1.573717     -2.042691     -0.555569
      6.69911     15.05626      9.63763         0.236126      1.219554      0.099192
      9.60341      6.87412      4.02951        -1.253665     -0.968701      1.108245
      9.49056      9.64895      6.96066         3.570751     -2.772218     -2.533902
      9.39135     12.28152      9.57634         1.517578      0.535524      0.249410
      9.58874     15.07188     12.06034        -1.774176     -1.125631      2.981709
     12.19772      7.02689      6.83525         1.080458     -2.183617     -0.606102
     12.34718      9.52193      9.65019         0.359271      1.100563     -0.428771
     12.30545     12.30128     12.44163        -0.300233      1.616227     -0.845787
     12.37953     15.16130     15.05282        -1.173953     -0.253517     -0.746856
     15.14446      6.74797      9.40734        -2.279694      0.716383      0.859644
     15.01125      9.56591     12.42879         0.003917      0.035638     -0.909275
     15.02528     12.33131     14.89906        -1.040879     -0.253265      1.554593
     15.02986     14.91333     17.70053        -0.113860      0.613881      1.192872
      9.50286      9.63211      1.22829         1.197795     -0.301044      1.816690
      9.46998     12.33074      4.09159         1.723224      0.148601     -0.497069
      9.58654     15.00423      6.94551        -0.597663      1.222246     -2.018529
      9.46680     17.73268      9.53700        -0.008359      1.234415      0.096992
     12.44866      9.64313      4.07986        -1.269090      0.122960     -0.008430
     12.30051     12.25740      6.94627        -0.131628      1.236491     -1.465281
     12.33332     15.08230      9.55421        -0.822078      0.188068      0.449759
     12.39709     17.80401     12.30659        -1.181184     -0.961546     -0.434465
     15.07191      9.53506      6.74558         0.093735      0.241216      1.065903
     14.95427     12.38785      9.53403        -0.116836     -1.100573      1.230308
     15.12601     15.12474     12.33532        -0.382815     -0.701339      1.440217
     15.04770     17.75223     15.02791         0.231291      0.246842      1.202117
     17.90180      9.50517      9.59640        -1.958187     -0.378700     -0.001462
     17.77127     12.35566     12.29149        -1.182993     -0.786885     -0.096580
     17.82711     14.94998     14.99747         0.210007      1.953509      0.486035
     17.77801     17.77184     17.86168        -0.373456     -1.563746     -0.553167
 -----------------------------------------------------------------------------------
    total drift:                               -0.000014     -0.000006      0.000004


--------------------------------------------------------------------------------------------------------



  FREE ENERGIE OF THE ION-ELECTRON SYSTEM (eV)
  ---------------------------------------------------
  free  energy   TOTEN  =      -678.81690335 eV

  energy  without entropy=     -678.81690335  energy(sigma->0) =     -678.81690335
 


--------------------------------------------------------------------------------------------------------


    POTLOK:  cpu time    0.9976: real time    0.9977


--------------------------------------------------------------------------------------------------------


     LOOP+:  cpu time 1706.1221: real time 1707.0001
    4ORBIT:  cpu time    0.0000: real time    0.0000

 total amount of memory used by VASP MPI-rank0   221701. kBytes
=======================================================================

   base      :      30000. kBytes
   nonl-proj :      10690. kBytes
   fftplans  :      66746. kBytes
   grid      :      26864. kBytes
   one-center:         24. kBytes
   wavefun   :      87377. kBytes
 
  
  
 General timing and accounting informations for this job:
 ========================================================
  
                  Total CPU time used (sec):     1730.047
                            User time (sec):     1728.844
                          System time (sec):        1.204
                         Elapsed time (sec):     1731.969
  
                   Maximum memory used (kb):      338756.
                   Average memory used (kb):           0.
  
                          Minor page faults:       142037
                          Major page faults:            0
                 Voluntary context switches:         1336
