<?xml version="1.0" encoding="ISO-8859-1"?>
<modeling>
 <generator>
  <i name="program" type="string">vasp </i>
  <i name="version" type="string">5.4.4.18Apr17-6-g9f103f2a35  </i>
  <i name="subversion" type="string">(build Nov 08 2017 09:05:29) complex            parallel </i>
  <i name="platform" type="string">Intel_17.33 </i>
  <i name="date" type="string">2020 07 18 </i>
  <i name="time" type="string">20:31:10 </i>
 </generator>
 <incar>
  <i type="string" name="SYSTEM">potpaw_PBE@./ARUN.APL1ZEROSTATE</i>
  <i type="string" name="PREC">accurate</i>
  <i type="string" name="ALGO">Normal</i>
  <i type="int" name="NSIM">     4</i>
  <i type="logical" name="ADDGRID"> T  </i>
  <i type="int" name="NELM">   120</i>
  <i type="int" name="NELMIN">     4</i>
  <i name="EDIFF">      0.00000001</i>
  <i type="int" name="NSW">     0</i>
  <i type="int" name="ISYM">     2</i>
  <i name="ENMAX">    500.00000000</i>
  <i type="logical" name="LREAL"> F  </i>
  <i type="logical" name="LPLANE"> T  </i>
  <i type="int" name="ISMEAR">     0</i>
  <i name="SIGMA">      0.01000000</i>
  <i type="logical" name="LWAVE"> F  </i>
  <i type="logical" name="LCHARG"> F  </i>
  <i type="logical" name="LELF"> F  </i>
  <i type="logical" name="LAECHG"> F  </i>
  <v type="int" name="KPOINT_BSE">    -1     0     0     0</v>
  <i type="int" name="NELM">   120</i>
 </incar>
 <structure name="primitive_cell" >
  <crystal>
   <varray name="basis" >
    <v>       0.00000000      10.93733369      10.93733369 </v>
    <v>      10.93733369       0.00000000      10.93733369 </v>
    <v>      10.93733369      10.93733369       0.00000000 </v>
   </varray>
   <i name="volume">   2616.76295363 </i>
   <varray name="rec_basis" >
    <v>      -0.04571498       0.04571498       0.04571498 </v>
    <v>       0.04571498      -0.04571498       0.04571498 </v>
    <v>       0.04571498       0.04571498      -0.04571498 </v>
   </varray>
  </crystal>
  <varray name="positions" >
   <v>       0.00588565      -0.01026998       0.00299141 </v>
   <v>       0.06205995       0.05024249      -0.18139632 </v>
   <v>       0.05438995       0.06349729       0.06748282 </v>
   <v>       0.07305159      -0.19765348       0.05987982 </v>
   <v>      -0.19569495       0.06205804       0.07146132 </v>
   <v>       0.23782544       0.00524343       0.01045624 </v>
   <v>       0.25133757      -0.01014137      -0.23980784 </v>
   <v>      -0.00321971      -0.01340171       0.25445902 </v>
   <v>       0.25253199      -0.25579777      -0.00774013 </v>
   <v>      -0.00075408      -0.26005828       0.25151641 </v>
   <v>       0.00270286       0.00331223      -0.25484777 </v>
   <v>       0.00239991      -0.25672310      -0.01042458 </v>
   <v>      -0.25513807       0.00829869      -0.00427031 </v>
   <v>      -0.25287297      -0.00282019       0.25696878 </v>
   <v>       0.00240663       0.25189555       0.00750960 </v>
   <v>      -0.26184135       0.26051923       0.00115299 </v>
   <v>      -0.00589568       0.26940475      -0.25600132 </v>
   <v>       0.05484718      -0.17744890      -0.18578989 </v>
   <v>      -0.19031334      -0.18070132       0.06302319 </v>
   <v>       0.31433037      -0.19051988      -0.18465319 </v>
   <v>       0.06337397      -0.18641189       0.31846108 </v>
   <v>       0.31782642       0.05626731      -0.19042736 </v>
   <v>       0.32200182      -0.19031099       0.06160616 </v>
   <v>      -0.20559040      -0.17707197       0.31420690 </v>
   <v>      -0.20063674       0.06828860       0.31458053 </v>
   <v>       0.05825593       0.31476520      -0.17658512 </v>
   <v>      -0.18614185       0.05810911      -0.19256028 </v>
   <v>      -0.19022748       0.31541845      -0.18195295 </v>
   <v>      -0.20332007       0.31916109       0.07370527 </v>
   <v>       0.24382161      -0.24612099       0.24443115 </v>
   <v>       0.24207557      -0.24864154      -0.24685069 </v>
   <v>      -0.25454085       0.24385885       0.24585993 </v>
   <v>       0.24860197       0.24512760      -0.24453496 </v>
   <v>      -0.23724108      -0.26539162       0.26190383 </v>
   <v>      -0.25300213       0.23536243      -0.25269524 </v>
   <v>       0.05300834      -0.43602073       0.31644852 </v>
   <v>       0.32100078      -0.43859808       0.05507580 </v>
   <v>       0.05801693      -0.44136030       0.06757029 </v>
   <v>       0.31418181       0.05748489       0.06441842 </v>
   <v>       0.31304326       0.06408774      -0.43500401 </v>
   <v>       0.05943979       0.30897809      -0.43093891 </v>
   <v>      -0.43392633       0.06305221       0.05122603 </v>
   <v>       0.06437677       0.05890991      -0.43967387 </v>
   <v>       0.05045169       0.31521132       0.07666201 </v>
   <v>       0.04781002       0.07258574       0.32454100 </v>
   <v>      -0.44634187       0.06251388       0.32154656 </v>
   <v>      -0.44225996       0.31858969       0.05987914 </v>
   <v>       0.00289891      -0.49322262       0.24322620 </v>
   <v>       0.23987722      -0.00051444       0.24637145 </v>
   <v>       0.25336171      -0.49635188      -0.00768914 </v>
   <v>      -0.49973705      -0.24066831      -0.25170519 </v>
   <v>      -0.00269631      -0.25253649       0.49948244 </v>
   <v>       0.25076696       0.49731162       0.25909161 </v>
   <v>      -0.49963310      -0.25405570       0.00566147 </v>
   <v>      -0.49216495       0.24437443       0.24186148 </v>
   <v>      -0.00323294      -0.24680709      -0.25106202 </v>
   <v>      -0.49913539      -0.00354219      -0.25157845 </v>
   <v>      -0.23943595      -0.26220723      -0.49892895 </v>
   <v>      -0.49058985       0.24135205      -0.00467440 </v>
   <v>      -0.00790291       0.25142377       0.25052974 </v>
   <v>      -0.24574198       0.00412073       0.49835477 </v>
   <v>      -0.49453025      -0.01070451       0.25731416 </v>
   <v>      -0.24755629      -0.24864015      -0.01142966 </v>
   <v>       0.25045400       0.25234322      -0.49772708 </v>
   <v>       0.00430099       0.49492778      -0.24922620 </v>
   <v>      -0.24574306       0.00492475      -0.26005613 </v>
   <v>       0.25379976       0.00576103       0.49080132 </v>
   <v>       0.01143144       0.23852107       0.49337432 </v>
   <v>      -0.24743165      -0.49829616      -0.24774058 </v>
   <v>       0.25357401       0.24354805       0.01504832 </v>
   <v>      -0.25174066      -0.49438284      -0.00151150 </v>
   <v>      -0.44591883      -0.18286325      -0.18720480 </v>
   <v>       0.31742028      -0.43773045       0.31272611 </v>
   <v>      -0.19614788      -0.18549326      -0.44032722 </v>
   <v>      -0.18373554      -0.18317138      -0.19138594 </v>
   <v>      -0.17756820      -0.44618658       0.31467913 </v>
   <v>      -0.43665077      -0.18720243       0.31184243 </v>
   <v>      -0.19117754       0.31277835       0.30725195 </v>
   <v>       0.31852435      -0.44682816      -0.18590335 </v>
   <v>       0.31924858      -0.18288498      -0.44463742 </v>
   <v>      -0.19800024       0.30067668      -0.42397815 </v>
   <v>       0.32026661      -0.19730036       0.31678523 </v>
   <v>      -0.43756000       0.31110061      -0.18346545 </v>
   <v>      -0.44272603       0.31500178       0.31158291 </v>
   <v>      -0.18936167      -0.43663747      -0.18755230 </v>
   <v>       0.31557764       0.31951924      -0.19488431 </v>
   <v>       0.32544732       0.31096572      -0.44324401 </v>
   <v>      -0.00064686      -0.49650171       0.00189976 </v>
   <v>       0.49185490      -0.00550476      -0.49524556 </v>
   <v>      -0.49697462      -0.49796048      -0.00345149 </v>
   <v>       0.00910029      -0.00991787      -0.49329288 </v>
   <v>      -0.00284953      -0.49991434      -0.49761580 </v>
   <v>      -0.49828954      -0.01724404       0.01148219 </v>
   <v>      -0.43614913      -0.43603336      -0.18099634 </v>
   <v>      -0.44204451      -0.19573546      -0.43050410 </v>
   <v>      -0.17736907       0.05853699      -0.44603790 </v>
   <v>       0.05525703      -0.43850879      -0.18346685 </v>
   <v>       0.04621105      -0.18609792      -0.42924455 </v>
   <v>      -0.43412208      -0.44866208       0.06457072 </v>
   <v>      -0.43319737      -0.19587649       0.06509364 </v>
   <v>      -0.18469193      -0.43902941      -0.42911102 </v>
   <v>       0.07608878      -0.45114225      -0.43362057 </v>
   <v>      -0.18890839      -0.44637122       0.06676385 </v>
   <v>      -0.43481629       0.06984428      -0.19334762 </v>
   <v>      -0.42924003       0.06344731      -0.42621321 </v>
   <v>       0.24896463      -0.48386998       0.49507156 </v>
   <v>      -0.49016610      -0.25307601       0.48848707 </v>
   <v>       0.48983833       0.24705794      -0.49240055 </v>
   <v>      -0.48572188       0.49156794      -0.24185136 </v>
   <v>      -0.23988624       0.49623954       0.49796169 </v>
   <v>      -0.23976488       0.23745072       0.49564883 </v>
   <v>       0.25335611      -0.25018998       0.49462305 </v>
   <v>       0.24606221      -0.49810209      -0.25101393 </v>
   <v>      -0.49516354       0.49851070       0.24771907 </v>
   <v>      -0.49290058       0.24757641      -0.24563463 </v>
   <v>      -0.49044165      -0.25919959       0.24624730 </v>
   <v>       0.30688549       0.32099896       0.29606455 </v>
   <v>      -0.25871316       0.49546195       0.26517369 </v>
   <v>       0.05665480       0.31858902       0.31863327 </v>
   <v>       0.32071202       0.31505602       0.05653192 </v>
   <v>       0.30485469       0.06516660       0.31283639 </v>
   <v>       0.23601049       0.27533146       0.24195182 </v>
   <v>      -0.25532272      -0.24234050      -0.25743683 </v>
   <v>      -0.43142161      -0.43104063      -0.44387281 </v>
   <v>      -0.44467155      -0.43459323       0.31650782 </v>
   <v>       0.31200226      -0.42968579      -0.44141237 </v>
   <v>      -0.43009341       0.30565819      -0.44700751 </v>
   <v>       0.49809693      -0.49394373      -0.49408836 </v>
  </varray>
 </structure>
 <varray name="primitive_index" >
  <v type="int" >        1 </v>
  <v type="int" >      113 </v>
  <v type="int" >       65 </v>
  <v type="int" >       77 </v>
  <v type="int" >       68 </v>
  <v type="int" >        2 </v>
  <v type="int" >       50 </v>
  <v type="int" >       17 </v>
  <v type="int" >       14 </v>
  <v type="int" >       29 </v>
  <v type="int" >       49 </v>
  <v type="int" >       13 </v>
  <v type="int" >        4 </v>
  <v type="int" >       20 </v>
  <v type="int" >        5 </v>
  <v type="int" >        8 </v>
  <v type="int" >       53 </v>
  <v type="int" >      125 </v>
  <v type="int" >       80 </v>
  <v type="int" >      126 </v>
  <v type="int" >       93 </v>
  <v type="int" >      114 </v>
  <v type="int" >       78 </v>
  <v type="int" >       96 </v>
  <v type="int" >       84 </v>
  <v type="int" >      117 </v>
  <v type="int" >      116 </v>
  <v type="int" >      120 </v>
  <v type="int" >       72 </v>
  <v type="int" >       30 </v>
  <v type="int" >       62 </v>
  <v type="int" >       24 </v>
  <v type="int" >       54 </v>
  <v type="int" >       32 </v>
  <v type="int" >       56 </v>
  <v type="int" >       89 </v>
  <v type="int" >       74 </v>
  <v type="int" >       73 </v>
  <v type="int" >       66 </v>
  <v type="int" >       98 </v>
  <v type="int" >      101 </v>
  <v type="int" >       67 </v>
  <v type="int" >       97 </v>
  <v type="int" >       69 </v>
  <v type="int" >       81 </v>
  <v type="int" >       83 </v>
  <v type="int" >       71 </v>
  <v type="int" >       25 </v>
  <v type="int" >       18 </v>
  <v type="int" >       10 </v>
  <v type="int" >       63 </v>
  <v type="int" >       45 </v>
  <v type="int" >       26 </v>
  <v type="int" >       15 </v>
  <v type="int" >       23 </v>
  <v type="int" >       61 </v>
  <v type="int" >       51 </v>
  <v type="int" >       48 </v>
  <v type="int" >        7 </v>
  <v type="int" >       21 </v>
  <v type="int" >       36 </v>
  <v type="int" >       19 </v>
  <v type="int" >       16 </v>
  <v type="int" >       38 </v>
  <v type="int" >       57 </v>
  <v type="int" >       52 </v>
  <v type="int" >       34 </v>
  <v type="int" >       37 </v>
  <v type="int" >       60 </v>
  <v type="int" >        6 </v>
  <v type="int" >       12 </v>
  <v type="int" >      127 </v>
  <v type="int" >       90 </v>
  <v type="int" >      112 </v>
  <v type="int" >      128 </v>
  <v type="int" >       92 </v>
  <v type="int" >       95 </v>
  <v type="int" >       88 </v>
  <v type="int" >      122 </v>
  <v type="int" >      110 </v>
  <v type="int" >      104 </v>
  <v type="int" >       94 </v>
  <v type="int" >      119 </v>
  <v type="int" >       87 </v>
  <v type="int" >      124 </v>
  <v type="int" >      118 </v>
  <v type="int" >      102 </v>
  <v type="int" >        9 </v>
  <v type="int" >       35 </v>
  <v type="int" >       11 </v>
  <v type="int" >       33 </v>
  <v type="int" >       41 </v>
  <v type="int" >        3 </v>
  <v type="int" >      123 </v>
  <v type="int" >      111 </v>
  <v type="int" >      100 </v>
  <v type="int" >      121 </v>
  <v type="int" >      109 </v>
  <v type="int" >       75 </v>
  <v type="int" >       79 </v>
  <v type="int" >      108 </v>
  <v type="int" >      105 </v>
  <v type="int" >       76 </v>
  <v type="int" >      115 </v>
  <v type="int" >       99 </v>
  <v type="int" >       42 </v>
  <v type="int" >       47 </v>
  <v type="int" >       39 </v>
  <v type="int" >       59 </v>
  <v type="int" >       44 </v>
  <v type="int" >       40 </v>
  <v type="int" >       46 </v>
  <v type="int" >       58 </v>
  <v type="int" >       27 </v>
  <v type="int" >       55 </v>
  <v type="int" >       31 </v>
  <v type="int" >       86 </v>
  <v type="int" >       28 </v>
  <v type="int" >       85 </v>
  <v type="int" >       70 </v>
  <v type="int" >       82 </v>
  <v type="int" >       22 </v>
  <v type="int" >       64 </v>
  <v type="int" >      107 </v>
  <v type="int" >       91 </v>
  <v type="int" >      106 </v>
  <v type="int" >      103 </v>
  <v type="int" >       43 </v>
 </varray>
 <kpoints>
  <generation param="Gamma">
   <v type="int" name="divisions">       2        2        2 </v>
   <v name="usershift">      0.00000000       0.00000000       0.00000000 </v>
   <v name="genvec1">      0.50000000       0.00000000       0.00000000 </v>
   <v name="genvec2">      0.00000000       0.50000000       0.00000000 </v>
   <v name="genvec3">      0.00000000       0.00000000       0.50000000 </v>
   <v name="shift">      0.00000000       0.00000000       0.00000000 </v>
  </generation>
  <varray name="kpointlist" >
   <v>       0.00000000       0.00000000       0.00000000 </v>
   <v>       0.50000000       0.00000000       0.00000000 </v>
   <v>       0.00000000       0.50000000       0.00000000 </v>
   <v>       0.50000000       0.50000000       0.00000000 </v>
   <v>       0.00000000       0.00000000       0.50000000 </v>
   <v>       0.50000000       0.00000000       0.50000000 </v>
   <v>       0.00000000       0.50000000       0.50000000 </v>
   <v>       0.50000000       0.50000000       0.50000000 </v>
  </varray>
  <varray name="weights" >
   <v>       0.12500000 </v>
   <v>       0.12500000 </v>
   <v>       0.12500000 </v>
   <v>       0.12500000 </v>
   <v>       0.12500000 </v>
   <v>       0.12500000 </v>
   <v>       0.12500000 </v>
   <v>       0.12500000 </v>
  </varray>
 </kpoints>
 <parameters>
  <separator name="general" >
   <i type="string" name="SYSTEM">potpaw_PBE@./ARUN.APL1ZEROSTATE</i>
   <i type="logical" name="LCOMPAT"> F  </i>
  </separator>
  <separator name="electronic" >
   <i type="string" name="PREC">accura</i>
   <i name="ENMAX">    500.00000000</i>
   <i name="ENAUG">    322.06900000</i>
   <i name="EDIFF">      0.00000001</i>
   <i type="int" name="IALGO">    38</i>
   <i type="int" name="IWAVPR">    10</i>
   <i type="int" name="NBANDS">   322</i>
   <i name="NELECT">    512.00000000</i>
   <i type="int" name="TURBO">     0</i>
   <i type="int" name="IRESTART">     0</i>
   <i type="int" name="NREBOOT">     0</i>
   <i type="int" name="NMIN">     0</i>
   <i name="EREF">      0.00000000</i>
   <separator name="electronic smearing" >
    <i type="int" name="ISMEAR">     0</i>
    <i name="SIGMA">      0.01000000</i>
    <i name="KSPACING">      0.50000000</i>
    <i type="logical" name="KGAMMA"> T  </i>
   </separator>
   <separator name="electronic projectors" >
    <i type="logical" name="LREAL"> F  </i>
    <v name="ROPT">      0.00000000</v>
    <i type="int" name="LMAXPAW">  -100</i>
    <i type="int" name="LMAXMIX">     2</i>
    <i type="logical" name="NLSPLINE"> F  </i>
   </separator>
   <separator name="electronic startup" >
    <i type="int" name="ISTART">     0</i>
    <i type="int" name="ICHARG">     2</i>
    <i type="int" name="INIWAV">     1</i>
   </separator>
   <separator name="electronic spin" >
    <i type="int" name="ISPIN">     1</i>
    <i type="logical" name="LNONCOLLINEAR"> F  </i>
    <v name="MAGMOM">      1.00000000      1.00000000      1.00000000      1.00000000      1.00000000      1.00000000      1.00000000      1.00000000      1.00000000      1.00000000      1.00000000      1.00000000      1.00000000      1.00000000      1.00000000      1.00000000      1.00000000      1.00000000      1.00000000      1.00000000
      1.00000000      1.00000000      1.00000000      1.00000000      1.00000000      1.00000000      1.00000000      1.00000000      1.00000000      1.00000000      1.00000000      1.00000000      1.00000000      1.00000000      1.00000000      1.00000000      1.00000000      1.00000000      1.00000000      1.00000000
      1.00000000      1.00000000      1.00000000      1.00000000      1.00000000      1.00000000      1.00000000      1.00000000      1.00000000      1.00000000      1.00000000      1.00000000      1.00000000      1.00000000      1.00000000      1.00000000      1.00000000      1.00000000      1.00000000      1.00000000
      1.00000000      1.00000000      1.00000000      1.00000000      1.00000000      1.00000000      1.00000000      1.00000000      1.00000000      1.00000000      1.00000000      1.00000000      1.00000000      1.00000000      1.00000000      1.00000000      1.00000000      1.00000000      1.00000000      1.00000000
      1.00000000      1.00000000      1.00000000      1.00000000      1.00000000      1.00000000      1.00000000      1.00000000      1.00000000      1.00000000      1.00000000      1.00000000      1.00000000      1.00000000      1.00000000      1.00000000      1.00000000      1.00000000      1.00000000      1.00000000
      1.00000000      1.00000000      1.00000000      1.00000000      1.00000000      1.00000000      1.00000000      1.00000000      1.00000000      1.00000000      1.00000000      1.00000000      1.00000000      1.00000000      1.00000000      1.00000000      1.00000000      1.00000000      1.00000000      1.00000000
      1.00000000      1.00000000      1.00000000      1.00000000      1.00000000      1.00000000      1.00000000      1.00000000</v>
    <i name="NUPDOWN">     -1.00000000</i>
    <i type="logical" name="LSORBIT"> F  </i>
    <v name="SAXIS">      0.00000000      0.00000000      1.00000000</v>
    <i type="logical" name="LSPIRAL"> F  </i>
    <v name="QSPIRAL">      0.00000000      0.00000000      0.00000000</v>
    <i type="logical" name="LZEROZ"> F  </i>
   </separator>
   <separator name="electronic exchange-correlation" >
    <i type="logical" name="LASPH"> F  </i>
    <i type="logical" name="LMETAGGA"> F  </i>
   </separator>
   <separator name="electronic convergence" >
    <i type="int" name="NELM">   120</i>
    <i type="int" name="NELMDL">    -5</i>
    <i type="int" name="NELMIN">     4</i>
    <i name="ENINI">    500.00000000</i>
    <separator name="electronic convergence detail" >
     <i type="logical" name="LDIAG"> T  </i>
     <i type="logical" name="LSUBROT"> F  </i>
     <i name="WEIMIN">      0.00000000</i>
     <i name="EBREAK">      0.00000000</i>
     <i name="DEPER">      0.30000000</i>
     <i type="int" name="NRMM">     4</i>
     <i name="TIME">      0.40000000</i>
    </separator>
   </separator>
   <separator name="electronic mixer" >
    <i name="AMIX">      0.40000000</i>
    <i name="BMIX">      1.00000000</i>
    <i name="AMIN">      0.10000000</i>
    <i name="AMIX_MAG">      1.60000000</i>
    <i name="BMIX_MAG">      1.00000000</i>
    <separator name="electronic mixer details" >
     <i type="int" name="IMIX">     4</i>
     <i type="logical" name="MIXFIRST"> F  </i>
     <i type="int" name="MAXMIX">   -45</i>
     <i name="WC">    100.00000000</i>
     <i type="int" name="INIMIX">     1</i>
     <i type="int" name="MIXPRE">     1</i>
     <i type="int" name="MREMOVE">     5</i>
    </separator>
   </separator>
   <separator name="electronic dipolcorrection" >
    <i type="logical" name="LDIPOL"> F  </i>
    <i type="logical" name="LMONO"> F  </i>
    <i type="int" name="IDIPOL">     0</i>
    <i name="EPSILON">      1.00000000</i>
    <v name="DIPOL">   -100.00000000   -100.00000000   -100.00000000</v>
    <i name="EFIELD">      0.00000000</i>
   </separator>
  </separator>
  <separator name="grids" >
   <i type="int" name="NGX">   120</i>
   <i type="int" name="NGY">   120</i>
   <i type="int" name="NGZ">   120</i>
   <i type="int" name="NGXF">   240</i>
   <i type="int" name="NGYF">   240</i>
   <i type="int" name="NGZF">   240</i>
   <i type="logical" name="ADDGRID"> T  </i>
  </separator>
  <separator name="ionic" >
   <i type="int" name="NSW">     0</i>
   <i type="int" name="IBRION">    -1</i>
   <i type="int" name="MDALGO">     0</i>
   <i type="int" name="ISIF">     2</i>
   <i name="PSTRESS">      0.00000000</i>
   <i name="EDIFFG">      0.00000010</i>
   <i type="int" name="NFREE">     0</i>
   <i name="POTIM">      0.50000000</i>
   <i name="SMASS">     -3.00000000</i>
   <i name="SCALEE">      1.00000000</i>
  </separator>
  <separator name="ionic md" >
   <i name="TEBEG">      0.00010000</i>
   <i name="TEEND">      0.00010000</i>
   <i type="int" name="NBLOCK">     1</i>
   <i type="int" name="KBLOCK">     1</i>
   <i type="int" name="NPACO">   256</i>
   <i name="APACO">     16.00000000</i>
  </separator>
  <separator name="symmetry" >
   <i type="int" name="ISYM">     2</i>
   <i name="SYMPREC">      0.00001000</i>
  </separator>
  <separator name="dos" >
   <i type="int" name="LORBIT">     0</i>
   <v name="RWIGS">     -1.00000000</v>
   <i type="int" name="NEDOS">   301</i>
   <i name="EMIN">     10.00000000</i>
   <i name="EMAX">    -10.00000000</i>
   <i name="EFERMI">      0.00000000</i>
  </separator>
  <separator name="writing" >
   <i type="int" name="NWRITE">     2</i>
   <i type="logical" name="LWAVE"> F  </i>
   <i type="logical" name="LDOWNSAMPLE"> F  </i>
   <i type="logical" name="LCHARG"> F  </i>
   <i type="logical" name="LPARD"> F  </i>
   <i type="logical" name="LVTOT"> F  </i>
   <i type="logical" name="LVHAR"> F  </i>
   <i type="logical" name="LELF"> F  </i>
   <i type="logical" name="LOPTICS"> F  </i>
   <v name="STM">      0.00000000      0.00000000      0.00000000      0.00000000      0.00000000      0.00000000      0.00000000</v>
  </separator>
  <separator name="performance" >
   <i type="int" name="NPAR">     2</i>
   <i type="int" name="NSIM">     4</i>
   <i type="int" name="NBLK">    -1</i>
   <i type="logical" name="LPLANE"> T  </i>
   <i type="logical" name="LSCALAPACK"> T  </i>
   <i type="logical" name="LSCAAWARE"> F  </i>
   <i type="logical" name="LSCALU"> F  </i>
   <i type="logical" name="LASYNC"> F  </i>
   <i type="logical" name="LORBITALREAL"> F  </i>
  </separator>
  <separator name="miscellaneous" >
   <i type="int" name="IDIOT">     3</i>
   <i type="int" name="ISPECIAL">     0</i>
   <i type="logical" name="LMUSIC"> F  </i>
   <v name="POMASS">     28.08500000</v>
   <v name="DARWINR">      0.00000000</v>
   <v name="DARWINV">      1.00000000</v>
   <i type="logical" name="LCORR"> T  </i>
  </separator>
  <i type="logical" name="GGA_COMPAT"> T  </i>
  <i type="logical" name="LBERRY"> F  </i>
  <i type="int" name="ICORELEVEL">     0</i>
  <i type="logical" name="LDAU"> F  </i>
  <i type="int" name="I_CONSTRAINED_M">     0</i>
  <separator name="electronic exchange-correlation" >
   <i type="string" name="GGA">--</i>
   <i type="int" name="VOSKOWN">     0</i>
   <i type="logical" name="LHFCALC"> F  </i>
   <i type="string" name="PRECFOCK"></i>
   <i type="logical" name="LSYMGRAD"> F  </i>
   <i type="logical" name="LHFONE"> F  </i>
   <i type="logical" name="LRHFCALC"> F  </i>
   <i type="logical" name="LTHOMAS"> F  </i>
   <i type="logical" name="LMODELHF"> F  </i>
   <i name="ENCUT4O">     -1.00000000</i>
   <i type="int" name="EXXOEP">     0</i>
   <i type="int" name="FOURORBIT">     0</i>
   <i name="AEXX">      0.00000000</i>
   <i name="HFALPHA">      0.00000000</i>
   <i name="MCALPHA">      0.00000000</i>
   <i name="ALDAX">      1.00000000</i>
   <i name="AGGAX">      1.00000000</i>
   <i name="ALDAC">      1.00000000</i>
   <i name="AGGAC">      1.00000000</i>
   <i type="int" name="NKREDX">     1</i>
   <i type="int" name="NKREDY">     1</i>
   <i type="int" name="NKREDZ">     1</i>
   <i type="logical" name="SHIFTRED"> F  </i>
   <i type="logical" name="ODDONLY"> F  </i>
   <i type="logical" name="EVENONLY"> F  </i>
   <i type="int" name="LMAXFOCK">     0</i>
   <i type="int" name="NMAXFOCKAE">     0</i>
   <i type="logical" name="LFOCKAEDFT"> F  </i>
   <i name="HFSCREEN">      0.00000000</i>
   <i name="HFSCREENC">      0.00000000</i>
   <i type="int" name="NBANDSGWLOW">     0</i>
  </separator>
  <separator name="vdW DFT" >
   <i type="logical" name="LUSE_VDW"> F  </i>
   <i name="Zab_VDW">     -0.84910000</i>
   <i name="PARAM1">      0.12340000</i>
   <i name="PARAM2">      1.00000000</i>
   <i name="PARAM3">      0.00000000</i>
  </separator>
  <separator name="model GW" >
   <i type="int" name="MODEL_GW">     0</i>
   <i name="MODEL_EPS0">     12.26607635</i>
   <i name="MODEL_ALPHA">      1.00000000</i>
  </separator>
  <separator name="linear response parameters" >
   <i type="logical" name="LEPSILON"> F  </i>
   <i type="logical" name="LRPA"> F  </i>
   <i type="logical" name="LNABLA"> F  </i>
   <i type="logical" name="LVEL"> F  </i>
   <i type="int" name="KINTER">     0</i>
   <i name="CSHIFT">      0.10000000</i>
   <i name="OMEGAMAX">     -1.00000000</i>
   <i name="DEG_THRESHOLD">      0.00200000</i>
   <i name="RTIME">     -0.10000000</i>
   <i name="WPLASMAI">      0.00000000</i>
   <v name="DFIELD">      0.00000000      0.00000000      0.00000000</v>
   <v name="WPLASMA">      0.00000000      0.00000000      0.00000000      0.00000000      0.00000000      0.00000000      0.00000000      0.00000000      0.00000000</v>
  </separator>
  <separator name="orbital magnetization" >
   <i type="logical" name="NUCIND"> F  </i>
   <v name="MAGPOS">      0.00000000      0.00000000      0.00000000</v>
   <i type="logical" name="LNICSALL"> T  </i>
   <i type="logical" name="ORBITALMAG"> F  </i>
   <i type="logical" name="LMAGBLOCH"> F  </i>
   <i type="logical" name="LCHIMAG"> F  </i>
   <i type="logical" name="LGAUGE"> T  </i>
   <i type="int" name="MAGATOM">     0</i>
   <v name="MAGDIPOL">      0.00000000      0.00000000      0.00000000</v>
   <v name="AVECCONST">      0.00000000      0.00000000      0.00000000</v>
  </separator>
  <separator name="response functions" >
   <i type="logical" name="LADDER"> F  </i>
   <i type="logical" name="LRPAFORCE"> F  </i>
   <i type="logical" name="LFXC"> F  </i>
   <i type="logical" name="LHARTREE"> T  </i>
   <i type="int" name="IBSE">     0</i>
   <v type="int" name="KPOINT">    -1     0     0     0</v>
   <i type="logical" name="LTCTE"> F  </i>
   <i type="logical" name="LTETE"> F  </i>
   <i type="logical" name="LTRIPLET"> F  </i>
   <i type="logical" name="LFXCEPS"> F  </i>
   <i type="logical" name="LFXHEG"> F  </i>
   <i type="int" name="NATURALO">     2</i>
   <i type="logical" name="L2ORDER"> F  </i>
   <i type="logical" name="LMP2LT"> F  </i>
   <i type="logical" name="LUSEW"> F  </i>
   <i name="ENCUTGW">     -2.00000000</i>
   <i name="ENCUTGWSOFT">     -2.00000000</i>
   <i name="ENCUTLF">     -1.00000000</i>
   <i type="int" name="LMAXMP2">    -1</i>
   <i name="SCISSOR">      0.00000000</i>
   <i type="int" name="NOMEGA">     0</i>
   <i type="int" name="NOMEGAR">     0</i>
   <i type="int" name="NBANDSGW">    -1</i>
   <i type="int" name="NBANDSO">    -1</i>
   <i type="int" name="NBANDSV">    -1</i>
   <i type="int" name="NELM">   120</i>
   <i type="int" name="NELMHF">     1</i>
   <i type="int" name="DIM">     3</i>
   <i type="int" name="ANTIRES">     0</i>
   <i name="OMEGAMAX">    -30.00000000</i>
   <i name="OMEGAMIN">    -30.00000000</i>
   <i name="OMEGATL">   -200.00000000</i>
   <i type="int" name="OMEGAGRID">   140</i>
   <i name="CSHIFT">     -0.10000000</i>
   <i type="logical" name="SELFENERGY"> F  </i>
   <i type="logical" name="LSPECTRAL"> F  </i>
   <i type="logical" name="LSPECTRALGW"> F  </i>
   <i type="logical" name="LSINGLES"> F  </i>
   <i type="logical" name="LFERMIGW"> F  </i>
   <i type="logical" name="ODDONLYGW"> F  </i>
   <i type="logical" name="EVENONLYGW"> F  </i>
   <i type="int" name="NKREDLFX">     1</i>
   <i type="int" name="NKREDLFY">     1</i>
   <i type="int" name="NKREDLFZ">     1</i>
   <i type="int" name="MAXMEM">  2800</i>
   <i type="int" name="TELESCOPE">     0</i>
   <i type="int" name="TAUPAR">     1</i>
   <i type="int" name="OMEGAPAR">    -1</i>
   <i name="LAMBDA">      1.00000000</i>
  </separator>
  <separator name="External order field" >
   <i name="OFIELD_KAPPA">      0.00000000</i>
   <v name="OFIELD_K">      0.00000000      0.00000000      0.00000000</v>
   <i name="OFIELD_Q6_NEAR">      0.00000000</i>
   <i name="OFIELD_Q6_FAR">      0.00000000</i>
   <i name="OFIELD_A">      0.00000000</i>
  </separator>
 </parameters>
 <atominfo>
  <atoms>     128 </atoms>
  <types>       1 </types>
  <array name="atoms" >
   <dimension dim="1">ion</dimension>
   <field type="string">element</field>
   <field type="int">atomtype</field>
   <set>
    <rc><c>Si</c><c>   1</c></rc>
    <rc><c>Si</c><c>   1</c></rc>
    <rc><c>Si</c><c>   1</c></rc>
    <rc><c>Si</c><c>   1</c></rc>
    <rc><c>Si</c><c>   1</c></rc>
    <rc><c>Si</c><c>   1</c></rc>
    <rc><c>Si</c><c>   1</c></rc>
    <rc><c>Si</c><c>   1</c></rc>
    <rc><c>Si</c><c>   1</c></rc>
    <rc><c>Si</c><c>   1</c></rc>
    <rc><c>Si</c><c>   1</c></rc>
    <rc><c>Si</c><c>   1</c></rc>
    <rc><c>Si</c><c>   1</c></rc>
    <rc><c>Si</c><c>   1</c></rc>
    <rc><c>Si</c><c>   1</c></rc>
    <rc><c>Si</c><c>   1</c></rc>
    <rc><c>Si</c><c>   1</c></rc>
    <rc><c>Si</c><c>   1</c></rc>
    <rc><c>Si</c><c>   1</c></rc>
    <rc><c>Si</c><c>   1</c></rc>
    <rc><c>Si</c><c>   1</c></rc>
    <rc><c>Si</c><c>   1</c></rc>
    <rc><c>Si</c><c>   1</c></rc>
    <rc><c>Si</c><c>   1</c></rc>
    <rc><c>Si</c><c>   1</c></rc>
    <rc><c>Si</c><c>   1</c></rc>
    <rc><c>Si</c><c>   1</c></rc>
    <rc><c>Si</c><c>   1</c></rc>
    <rc><c>Si</c><c>   1</c></rc>
    <rc><c>Si</c><c>   1</c></rc>
    <rc><c>Si</c><c>   1</c></rc>
    <rc><c>Si</c><c>   1</c></rc>
    <rc><c>Si</c><c>   1</c></rc>
    <rc><c>Si</c><c>   1</c></rc>
    <rc><c>Si</c><c>   1</c></rc>
    <rc><c>Si</c><c>   1</c></rc>
    <rc><c>Si</c><c>   1</c></rc>
    <rc><c>Si</c><c>   1</c></rc>
    <rc><c>Si</c><c>   1</c></rc>
    <rc><c>Si</c><c>   1</c></rc>
    <rc><c>Si</c><c>   1</c></rc>
    <rc><c>Si</c><c>   1</c></rc>
    <rc><c>Si</c><c>   1</c></rc>
    <rc><c>Si</c><c>   1</c></rc>
    <rc><c>Si</c><c>   1</c></rc>
    <rc><c>Si</c><c>   1</c></rc>
    <rc><c>Si</c><c>   1</c></rc>
    <rc><c>Si</c><c>   1</c></rc>
    <rc><c>Si</c><c>   1</c></rc>
    <rc><c>Si</c><c>   1</c></rc>
    <rc><c>Si</c><c>   1</c></rc>
    <rc><c>Si</c><c>   1</c></rc>
    <rc><c>Si</c><c>   1</c></rc>
    <rc><c>Si</c><c>   1</c></rc>
    <rc><c>Si</c><c>   1</c></rc>
    <rc><c>Si</c><c>   1</c></rc>
    <rc><c>Si</c><c>   1</c></rc>
    <rc><c>Si</c><c>   1</c></rc>
    <rc><c>Si</c><c>   1</c></rc>
    <rc><c>Si</c><c>   1</c></rc>
    <rc><c>Si</c><c>   1</c></rc>
    <rc><c>Si</c><c>   1</c></rc>
    <rc><c>Si</c><c>   1</c></rc>
    <rc><c>Si</c><c>   1</c></rc>
    <rc><c>Si</c><c>   1</c></rc>
    <rc><c>Si</c><c>   1</c></rc>
    <rc><c>Si</c><c>   1</c></rc>
    <rc><c>Si</c><c>   1</c></rc>
    <rc><c>Si</c><c>   1</c></rc>
    <rc><c>Si</c><c>   1</c></rc>
    <rc><c>Si</c><c>   1</c></rc>
    <rc><c>Si</c><c>   1</c></rc>
    <rc><c>Si</c><c>   1</c></rc>
    <rc><c>Si</c><c>   1</c></rc>
    <rc><c>Si</c><c>   1</c></rc>
    <rc><c>Si</c><c>   1</c></rc>
    <rc><c>Si</c><c>   1</c></rc>
    <rc><c>Si</c><c>   1</c></rc>
    <rc><c>Si</c><c>   1</c></rc>
    <rc><c>Si</c><c>   1</c></rc>
    <rc><c>Si</c><c>   1</c></rc>
    <rc><c>Si</c><c>   1</c></rc>
    <rc><c>Si</c><c>   1</c></rc>
    <rc><c>Si</c><c>   1</c></rc>
    <rc><c>Si</c><c>   1</c></rc>
    <rc><c>Si</c><c>   1</c></rc>
    <rc><c>Si</c><c>   1</c></rc>
    <rc><c>Si</c><c>   1</c></rc>
    <rc><c>Si</c><c>   1</c></rc>
    <rc><c>Si</c><c>   1</c></rc>
    <rc><c>Si</c><c>   1</c></rc>
    <rc><c>Si</c><c>   1</c></rc>
    <rc><c>Si</c><c>   1</c></rc>
    <rc><c>Si</c><c>   1</c></rc>
    <rc><c>Si</c><c>   1</c></rc>
    <rc><c>Si</c><c>   1</c></rc>
    <rc><c>Si</c><c>   1</c></rc>
    <rc><c>Si</c><c>   1</c></rc>
    <rc><c>Si</c><c>   1</c></rc>
    <rc><c>Si</c><c>   1</c></rc>
    <rc><c>Si</c><c>   1</c></rc>
    <rc><c>Si</c><c>   1</c></rc>
    <rc><c>Si</c><c>   1</c></rc>
    <rc><c>Si</c><c>   1</c></rc>
    <rc><c>Si</c><c>   1</c></rc>
    <rc><c>Si</c><c>   1</c></rc>
    <rc><c>Si</c><c>   1</c></rc>
    <rc><c>Si</c><c>   1</c></rc>
    <rc><c>Si</c><c>   1</c></rc>
    <rc><c>Si</c><c>   1</c></rc>
    <rc><c>Si</c><c>   1</c></rc>
    <rc><c>Si</c><c>   1</c></rc>
    <rc><c>Si</c><c>   1</c></rc>
    <rc><c>Si</c><c>   1</c></rc>
    <rc><c>Si</c><c>   1</c></rc>
    <rc><c>Si</c><c>   1</c></rc>
    <rc><c>Si</c><c>   1</c></rc>
    <rc><c>Si</c><c>   1</c></rc>
    <rc><c>Si</c><c>   1</c></rc>
    <rc><c>Si</c><c>   1</c></rc>
    <rc><c>Si</c><c>   1</c></rc>
    <rc><c>Si</c><c>   1</c></rc>
    <rc><c>Si</c><c>   1</c></rc>
    <rc><c>Si</c><c>   1</c></rc>
    <rc><c>Si</c><c>   1</c></rc>
    <rc><c>Si</c><c>   1</c></rc>
    <rc><c>Si</c><c>   1</c></rc>
    <rc><c>Si</c><c>   1</c></rc>
   </set>
  </array>
  <array name="atomtypes" >
   <dimension dim="1">type</dimension>
   <field type="int">atomspertype</field>
   <field type="string">element</field>
   <field>mass</field>
   <field>valence</field>
   <field type="string">pseudopotential</field>
   <set>
    <rc><c> 128</c><c>Si</c><c>     28.08500000</c><c>      4.00000000</c><c> PAW_PBE Si 05Jan2001                   </c></rc>
   </set>
  </array>
 </atominfo>
 <structure name="initialpos" >
  <crystal>
   <varray name="basis" >
    <v>       0.00000000      10.93733369      10.93733369 </v>
    <v>      10.93733369       0.00000000      10.93733369 </v>
    <v>      10.93733369      10.93733369       0.00000000 </v>
   </varray>
   <i name="volume">   2616.76295363 </i>
   <varray name="rec_basis" >
    <v>      -0.04571498       0.04571498       0.04571498 </v>
    <v>       0.04571498      -0.04571498       0.04571498 </v>
    <v>       0.04571498       0.04571498      -0.04571498 </v>
   </varray>
  </crystal>
  <varray name="positions" >
   <v>       0.00588565       0.98973002       0.00299141 </v>
   <v>       0.23782544       0.00524343       0.01045624 </v>
   <v>       0.50171046       0.98275596       0.01148219 </v>
   <v>       0.74486193       0.00829869       0.99572969 </v>
   <v>       0.00240663       0.25189555       0.00750960 </v>
   <v>       0.25357401       0.24354805       0.01504832 </v>
   <v>       0.50941015       0.24135205       0.99532560 </v>
   <v>       0.73815865       0.26051923       0.00115299 </v>
   <v>       0.99935314       0.50349829       0.00189976 </v>
   <v>       0.25336171       0.50364812       0.99231086 </v>
   <v>       0.50302538       0.50203952       0.99654851 </v>
   <v>       0.74825934       0.50561716       0.99848850 </v>
   <v>       0.00239991       0.74327690       0.98957542 </v>
   <v>       0.25253199       0.74420223       0.99225987 </v>
   <v>       0.50036690       0.74594430       0.00566147 </v>
   <v>       0.75244371       0.75135985       0.98857034 </v>
   <v>       0.99678029       0.98659829       0.25445902 </v>
   <v>       0.23987722       0.99948556       0.24637145 </v>
   <v>       0.50546975       0.98929549       0.25731416 </v>
   <v>       0.74712703       0.99717981       0.25696878 </v>
   <v>       0.99209709       0.25142377       0.25052974 </v>
   <v>       0.23601049       0.27533146       0.24195182 </v>
   <v>       0.50783505       0.24437443       0.24186148 </v>
   <v>       0.74545915       0.24385885       0.24585993 </v>
   <v>       0.00289891       0.50677738       0.24322620 </v>
   <v>       0.25076696       0.49731162       0.25909161 </v>
   <v>       0.50483646       0.49851070       0.24771907 </v>
   <v>       0.74128684       0.49546195       0.26517369 </v>
   <v>       0.99924592       0.73994172       0.25151641 </v>
   <v>       0.24382161       0.75387901       0.24443115 </v>
   <v>       0.50955835       0.74080041       0.24624730 </v>
   <v>       0.76275892       0.73460838       0.26190383 </v>
   <v>       0.00910029       0.99008213       0.50670712 </v>
   <v>       0.25379976       0.00576103       0.49080132 </v>
   <v>       0.49185490       0.99449524       0.50475444 </v>
   <v>       0.75425802       0.00412073       0.49835477 </v>
   <v>       0.01143144       0.23852107       0.49337432 </v>
   <v>       0.25045400       0.25234322       0.50227292 </v>
   <v>       0.48983833       0.24705794       0.50759945 </v>
   <v>       0.76023512       0.23745072       0.49564883 </v>
   <v>       0.99715047       0.50008566       0.50238420 </v>
   <v>       0.24896463       0.51613002       0.49507156 </v>
   <v>       0.49809693       0.50605627       0.50591164 </v>
   <v>       0.76011376       0.49623954       0.49796169 </v>
   <v>       0.99730369       0.74746351       0.49948244 </v>
   <v>       0.25335611       0.74981002       0.49462305 </v>
   <v>       0.50983390       0.74692399       0.48848707 </v>
   <v>       0.76056405       0.73779277       0.50107105 </v>
   <v>       0.00270286       0.00331223       0.74515223 </v>
   <v>       0.25133757       0.98985863       0.76019216 </v>
   <v>       0.50086461       0.99645781       0.74842155 </v>
   <v>       0.75425694       0.00492475       0.73994387 </v>
   <v>       0.99410432       0.26940475       0.74399868 </v>
   <v>       0.24860197       0.24512760       0.75546504 </v>
   <v>       0.50709942       0.24757641       0.75436537 </v>
   <v>       0.74699787       0.23536243       0.74730476 </v>
   <v>       0.00430099       0.49492778       0.75077380 </v>
   <v>       0.24606221       0.50189791       0.74898607 </v>
   <v>       0.51427812       0.49156794       0.75814864 </v>
   <v>       0.75256835       0.50170384       0.75225942 </v>
   <v>       0.99676706       0.75319291       0.74893798 </v>
   <v>       0.24207557       0.75135846       0.75314931 </v>
   <v>       0.50026295       0.75933169       0.74829481 </v>
   <v>       0.74467728       0.75765950       0.74256317 </v>
   <v>       0.05438995       0.06349729       0.06748282 </v>
   <v>       0.31418181       0.05748489       0.06441842 </v>
   <v>       0.56607367       0.06305221       0.05122603 </v>
   <v>       0.80430505       0.06205804       0.07146132 </v>
   <v>       0.05045169       0.31521132       0.07666201 </v>
   <v>       0.32071202       0.31505602       0.05653192 </v>
   <v>       0.55774004       0.31858969       0.05987914 </v>
   <v>       0.79667993       0.31916109       0.07370527 </v>
   <v>       0.05801693       0.55863970       0.06757029 </v>
   <v>       0.32100078       0.56140192       0.05507580 </v>
   <v>       0.56587792       0.55133792       0.06457072 </v>
   <v>       0.81109161       0.55362878       0.06676385 </v>
   <v>       0.07305159       0.80234652       0.05987982 </v>
   <v>       0.32200182       0.80968901       0.06160616 </v>
   <v>       0.56680263       0.80412351       0.06509364 </v>
   <v>       0.80968666       0.81929868       0.06302319 </v>
   <v>       0.04781002       0.07258574       0.32454100 </v>
   <v>       0.30485469       0.06516660       0.31283639 </v>
   <v>       0.55365813       0.06251388       0.32154656 </v>
   <v>       0.79936326       0.06828860       0.31458053 </v>
   <v>       0.05665480       0.31858902       0.31863327 </v>
   <v>       0.30688549       0.32099896       0.29606455 </v>
   <v>       0.55727397       0.31500178       0.31158291 </v>
   <v>       0.80882246       0.31277835       0.30725195 </v>
   <v>       0.05300834       0.56397927       0.31644852 </v>
   <v>       0.31742028       0.56226955       0.31272611 </v>
   <v>       0.55532845       0.56540677       0.31650782 </v>
   <v>       0.82243180       0.55381342       0.31467913 </v>
   <v>       0.06337397       0.81358811       0.31846108 </v>
   <v>       0.32026661       0.80269964       0.31678523 </v>
   <v>       0.56334923       0.81279757       0.31184243 </v>
   <v>       0.79440960       0.82292803       0.31420690 </v>
   <v>       0.06437677       0.05890991       0.56032613 </v>
   <v>       0.31304326       0.06408774       0.56499599 </v>
   <v>       0.57075997       0.06344731       0.57378679 </v>
   <v>       0.82263093       0.05853699       0.55396210 </v>
   <v>       0.05943979       0.30897809       0.56906109 </v>
   <v>       0.32544732       0.31096572       0.55675599 </v>
   <v>       0.56990659       0.30565819       0.55299249 </v>
   <v>       0.80199976       0.30067668       0.57602185 </v>
   <v>       0.07608878       0.54885775       0.56637943 </v>
   <v>       0.31200226       0.57031421       0.55858763 </v>
   <v>       0.56857839       0.56895937       0.55612719 </v>
   <v>       0.81530807       0.56097059       0.57088898 </v>
   <v>       0.04621105       0.81390208       0.57075545 </v>
   <v>       0.31924858       0.81711502       0.55536258 </v>
   <v>       0.55795549       0.80426454       0.56949590 </v>
   <v>       0.80385212       0.81450674       0.55967278 </v>
   <v>       0.06205995       0.05024249       0.81860368 </v>
   <v>       0.31782642       0.05626731       0.80957264 </v>
   <v>       0.56518371       0.06984428       0.80665238 </v>
   <v>       0.81385815       0.05810911       0.80743972 </v>
   <v>       0.05825593       0.31476520       0.82341488 </v>
   <v>       0.31557764       0.31951924       0.80511569 </v>
   <v>       0.56244000       0.31110061       0.81653455 </v>
   <v>       0.80977252       0.31541845       0.81804705 </v>
   <v>       0.05525703       0.56149121       0.81653315 </v>
   <v>       0.31852435       0.55317184       0.81409665 </v>
   <v>       0.56385087       0.56396664       0.81900366 </v>
   <v>       0.81063833       0.56336253       0.81244770 </v>
   <v>       0.05484718       0.82255110       0.81421011 </v>
   <v>       0.31433037       0.80948012       0.81534681 </v>
   <v>       0.55408117       0.81713675       0.81279520 </v>
   <v>       0.81626446       0.81682862       0.80861406 </v>
  </varray>
 </structure>
 <calculation>
  <scstep>
   <time name="dav">   69.47   69.50</time>
   <time name="total">   70.48   70.52</time>
   <energy>
    <i name="alphaZ">    210.77028614 </i>
    <i name="ewald"> -14463.46198034 </i>
    <i name="hartreedc">   -762.06712615 </i>
    <i name="XCdc">  -1195.21945225 </i>
    <i name="pawpsdc">   4221.13331941 </i>
    <i name="pawaedc">  -1969.18571412 </i>
    <i name="eentropy">     -0.00084600 </i>
    <i name="bandstr">   2149.75759176 </i>
    <i name="atom">  13192.48085998 </i>
    <i name="e_fr_energy">   1384.20693844 </i>
    <i name="e_wo_entrp">   1384.20778444 </i>
    <i name="e_0_energy">   1384.20736144 </i>
   </energy>
  </scstep>
  <scstep>
   <time name="dav">   78.82   78.87</time>
   <time name="total">   78.82   78.87</time>
   <energy>
    <i name="e_fr_energy">   -536.31633005 </i>
    <i name="e_wo_entrp">   -536.31633002 </i>
    <i name="e_0_energy">   -536.31633004 </i>
   </energy>
  </scstep>
  <scstep>
   <time name="dav">   80.85   80.89</time>
   <time name="total">   80.85   80.89</time>
   <energy>
    <i name="e_fr_energy">   -686.39514916 </i>
    <i name="e_wo_entrp">   -686.39514916 </i>
    <i name="e_0_energy">   -686.39514916 </i>
   </energy>
  </scstep>
  <scstep>
   <time name="dav">   79.73   79.77</time>
   <time name="total">   79.73   79.77</time>
   <energy>
    <i name="e_fr_energy">   -690.64985320 </i>
    <i name="e_wo_entrp">   -690.64985320 </i>
    <i name="e_0_energy">   -690.64985320 </i>
   </energy>
  </scstep>
  <scstep>
   <time name="dav">   80.56   80.61</time>
   <time name="total">   83.77   83.82</time>
   <energy>
    <i name="e_fr_energy">   -690.79822908 </i>
    <i name="e_wo_entrp">   -690.79822908 </i>
    <i name="e_0_energy">   -690.79822908 </i>
   </energy>
  </scstep>
  <scstep>
   <time name="dav">   76.95   76.98</time>
   <time name="total">   81.17   81.20</time>
   <energy>
    <i name="e_fr_energy">   -682.28549066 </i>
    <i name="e_wo_entrp">   -682.28549066 </i>
    <i name="e_0_energy">   -682.28549066 </i>
   </energy>
  </scstep>
  <scstep>
   <time name="dav">   77.38   77.42</time>
   <time name="total">   81.58   81.63</time>
   <energy>
    <i name="e_fr_energy">   -678.73221888 </i>
    <i name="e_wo_entrp">   -678.73221888 </i>
    <i name="e_0_energy">   -678.73221888 </i>
   </energy>
  </scstep>
  <scstep>
   <time name="dav">   75.77   75.81</time>
   <time name="total">   79.91   79.95</time>
   <energy>
    <i name="e_fr_energy">   -678.79199543 </i>
    <i name="e_wo_entrp">   -678.79199543 </i>
    <i name="e_0_energy">   -678.79199543 </i>
   </energy>
  </scstep>
  <scstep>
   <time name="dav">   78.28   78.33</time>
   <time name="total">   82.42   82.48</time>
   <energy>
    <i name="e_fr_energy">   -678.81292944 </i>
    <i name="e_wo_entrp">   -678.81292944 </i>
    <i name="e_0_energy">   -678.81292944 </i>
   </energy>
  </scstep>
  <scstep>
   <time name="dav">   76.74   76.78</time>
   <time name="total">   80.87   80.92</time>
   <energy>
    <i name="e_fr_energy">   -678.81539649 </i>
    <i name="e_wo_entrp">   -678.81539649 </i>
    <i name="e_0_energy">   -678.81539649 </i>
   </energy>
  </scstep>
  <scstep>
   <time name="dav">   76.73   76.77</time>
   <time name="total">   80.89   80.93</time>
   <energy>
    <i name="e_fr_energy">   -678.81680181 </i>
    <i name="e_wo_entrp">   -678.81680181 </i>
    <i name="e_0_energy">   -678.81680181 </i>
   </energy>
  </scstep>
  <scstep>
   <time name="dav">   79.18   79.23</time>
   <time name="total">   83.34   83.38</time>
   <energy>
    <i name="e_fr_energy">   -678.81686299 </i>
    <i name="e_wo_entrp">   -678.81686299 </i>
    <i name="e_0_energy">   -678.81686299 </i>
   </energy>
  </scstep>
  <scstep>
   <time name="dav">   75.63   75.66</time>
   <time name="total">   79.78   79.82</time>
   <energy>
    <i name="e_fr_energy">   -678.81689439 </i>
    <i name="e_wo_entrp">   -678.81689439 </i>
    <i name="e_0_energy">   -678.81689439 </i>
   </energy>
  </scstep>
  <scstep>
   <time name="dav">   79.42   79.46</time>
   <time name="total">   83.58   83.63</time>
   <energy>
    <i name="e_fr_energy">   -678.81689981 </i>
    <i name="e_wo_entrp">   -678.81689981 </i>
    <i name="e_0_energy">   -678.81689981 </i>
   </energy>
  </scstep>
  <scstep>
   <time name="dav">   78.35   78.39</time>
   <time name="total">   82.52   82.56</time>
   <energy>
    <i name="e_fr_energy">   -678.81690372 </i>
    <i name="e_wo_entrp">   -678.81690372 </i>
    <i name="e_0_energy">   -678.81690372 </i>
   </energy>
  </scstep>
  <scstep>
   <time name="dav">   77.76   77.80</time>
   <time name="total">   81.88   81.92</time>
   <energy>
    <i name="e_fr_energy">   -678.81690346 </i>
    <i name="e_wo_entrp">   -678.81690346 </i>
    <i name="e_0_energy">   -678.81690346 </i>
   </energy>
  </scstep>
  <scstep>
   <time name="dav">   78.25   78.29</time>
   <time name="total">   82.38   82.42</time>
   <energy>
    <i name="e_fr_energy">   -678.81690320 </i>
    <i name="e_wo_entrp">   -678.81690320 </i>
    <i name="e_0_energy">   -678.81690320 </i>
   </energy>
  </scstep>
  <scstep>
   <time name="dav">   52.13   52.16</time>
   <time name="total">   56.26   56.29</time>
   <energy>
    <i name="e_fr_energy">   -678.81690340 </i>
    <i name="e_wo_entrp">   -678.81690340 </i>
    <i name="e_0_energy">   -678.81690340 </i>
   </energy>
  </scstep>
  <scstep>
   <time name="dav">   50.54   50.56</time>
   <time name="total">   54.68   54.70</time>
   <energy>
    <i name="e_fr_energy">   -678.81690333 </i>
    <i name="e_wo_entrp">   -678.81690333 </i>
    <i name="e_0_energy">   -678.81690333 </i>
   </energy>
  </scstep>
  <scstep>
   <time name="dav">   49.87   49.88</time>
   <time name="total">   54.00   54.01</time>
   <energy>
    <i name="e_fr_energy">   -678.81690335 </i>
    <i name="e_wo_entrp">   -678.81690335 </i>
    <i name="e_0_energy">   -678.81690335 </i>
   </energy>
  </scstep>
  <scstep>
   <time name="dav">   49.60   49.61</time>
   <time name="total">   50.61   50.62</time>
   <energy>
    <i name="alphaZ">    210.77028614 </i>
    <i name="ewald"> -14463.46198034 </i>
    <i name="hartreedc">  -1007.50313937 </i>
    <i name="XCdc">  -1155.66651207 </i>
    <i name="pawpsdc">   4733.05800794 </i>
    <i name="pawaedc">  -2494.84769213 </i>
    <i name="eentropy">     -0.00000000 </i>
    <i name="bandstr">    306.35326648 </i>
    <i name="atom">  13192.48085998 </i>
    <i name="e_fr_energy">   -678.81690335 </i>
    <i name="e_wo_entrp">   -678.81690335 </i>
    <i name="e_0_energy">   -678.81690335 </i>
   </energy>
  </scstep>
  <structure>
   <crystal>
    <varray name="basis" >
     <v>       0.00000000      10.93733369      10.93733369 </v>
     <v>      10.93733369       0.00000000      10.93733369 </v>
     <v>      10.93733369      10.93733369       0.00000000 </v>
    </varray>
    <i name="volume">   2616.76295363 </i>
    <varray name="rec_basis" >
     <v>      -0.04571498       0.04571498       0.04571498 </v>
     <v>       0.04571498      -0.04571498       0.04571498 </v>
     <v>       0.04571498       0.04571498      -0.04571498 </v>
    </varray>
   </crystal>
   <varray name="positions" >
    <v>       0.00588565       0.98973002       0.00299141 </v>
    <v>       0.23782544       0.00524343       0.01045624 </v>
    <v>       0.50171046       0.98275596       0.01148219 </v>
    <v>       0.74486193       0.00829869       0.99572969 </v>
    <v>       0.00240663       0.25189555       0.00750960 </v>
    <v>       0.25357401       0.24354805       0.01504832 </v>
    <v>       0.50941015       0.24135205       0.99532560 </v>
    <v>       0.73815865       0.26051923       0.00115299 </v>
    <v>       0.99935314       0.50349829       0.00189976 </v>
    <v>       0.25336171       0.50364812       0.99231086 </v>
    <v>       0.50302538       0.50203952       0.99654851 </v>
    <v>       0.74825934       0.50561716       0.99848850 </v>
    <v>       0.00239991       0.74327690       0.98957542 </v>
    <v>       0.25253199       0.74420223       0.99225987 </v>
    <v>       0.50036690       0.74594430       0.00566147 </v>
    <v>       0.75244371       0.75135985       0.98857034 </v>
    <v>       0.99678029       0.98659829       0.25445902 </v>
    <v>       0.23987722       0.99948556       0.24637145 </v>
    <v>       0.50546975       0.98929549       0.25731416 </v>
    <v>       0.74712703       0.99717981       0.25696878 </v>
    <v>       0.99209709       0.25142377       0.25052974 </v>
    <v>       0.23601049       0.27533146       0.24195182 </v>
    <v>       0.50783505       0.24437443       0.24186148 </v>
    <v>       0.74545915       0.24385885       0.24585993 </v>
    <v>       0.00289891       0.50677738       0.24322620 </v>
    <v>       0.25076696       0.49731162       0.25909161 </v>
    <v>       0.50483646       0.49851070       0.24771907 </v>
    <v>       0.74128684       0.49546195       0.26517369 </v>
    <v>       0.99924592       0.73994172       0.25151641 </v>
    <v>       0.24382161       0.75387901       0.24443115 </v>
    <v>       0.50955835       0.74080041       0.24624730 </v>
    <v>       0.76275892       0.73460838       0.26190383 </v>
    <v>       0.00910029       0.99008213       0.50670712 </v>
    <v>       0.25379976       0.00576103       0.49080132 </v>
    <v>       0.49185490       0.99449524       0.50475444 </v>
    <v>       0.75425802       0.00412073       0.49835477 </v>
    <v>       0.01143144       0.23852107       0.49337432 </v>
    <v>       0.25045400       0.25234322       0.50227292 </v>
    <v>       0.48983833       0.24705794       0.50759945 </v>
    <v>       0.76023512       0.23745072       0.49564883 </v>
    <v>       0.99715047       0.50008566       0.50238420 </v>
    <v>       0.24896463       0.51613002       0.49507156 </v>
    <v>       0.49809693       0.50605627       0.50591164 </v>
    <v>       0.76011376       0.49623954       0.49796169 </v>
    <v>       0.99730369       0.74746351       0.49948244 </v>
    <v>       0.25335611       0.74981002       0.49462305 </v>
    <v>       0.50983390       0.74692399       0.48848707 </v>
    <v>       0.76056405       0.73779277       0.50107105 </v>
    <v>       0.00270286       0.00331223       0.74515223 </v>
    <v>       0.25133757       0.98985863       0.76019216 </v>
    <v>       0.50086461       0.99645781       0.74842155 </v>
    <v>       0.75425694       0.00492475       0.73994387 </v>
    <v>       0.99410432       0.26940475       0.74399868 </v>
    <v>       0.24860197       0.24512760       0.75546504 </v>
    <v>       0.50709942       0.24757641       0.75436537 </v>
    <v>       0.74699787       0.23536243       0.74730476 </v>
    <v>       0.00430099       0.49492778       0.75077380 </v>
    <v>       0.24606221       0.50189791       0.74898607 </v>
    <v>       0.51427812       0.49156794       0.75814864 </v>
    <v>       0.75256835       0.50170384       0.75225942 </v>
    <v>       0.99676706       0.75319291       0.74893798 </v>
    <v>       0.24207557       0.75135846       0.75314931 </v>
    <v>       0.50026295       0.75933169       0.74829481 </v>
    <v>       0.74467728       0.75765950       0.74256317 </v>
    <v>       0.05438995       0.06349729       0.06748282 </v>
    <v>       0.31418181       0.05748489       0.06441842 </v>
    <v>       0.56607367       0.06305221       0.05122603 </v>
    <v>       0.80430505       0.06205804       0.07146132 </v>
    <v>       0.05045169       0.31521132       0.07666201 </v>
    <v>       0.32071202       0.31505602       0.05653192 </v>
    <v>       0.55774004       0.31858969       0.05987914 </v>
    <v>       0.79667993       0.31916109       0.07370527 </v>
    <v>       0.05801693       0.55863970       0.06757029 </v>
    <v>       0.32100078       0.56140192       0.05507580 </v>
    <v>       0.56587792       0.55133792       0.06457072 </v>
    <v>       0.81109161       0.55362878       0.06676385 </v>
    <v>       0.07305159       0.80234652       0.05987982 </v>
    <v>       0.32200182       0.80968901       0.06160616 </v>
    <v>       0.56680263       0.80412351       0.06509364 </v>
    <v>       0.80968666       0.81929868       0.06302319 </v>
    <v>       0.04781002       0.07258574       0.32454100 </v>
    <v>       0.30485469       0.06516660       0.31283639 </v>
    <v>       0.55365813       0.06251388       0.32154656 </v>
    <v>       0.79936326       0.06828860       0.31458053 </v>
    <v>       0.05665480       0.31858902       0.31863327 </v>
    <v>       0.30688549       0.32099896       0.29606455 </v>
    <v>       0.55727397       0.31500178       0.31158291 </v>
    <v>       0.80882246       0.31277835       0.30725195 </v>
    <v>       0.05300834       0.56397927       0.31644852 </v>
    <v>       0.31742028       0.56226955       0.31272611 </v>
    <v>       0.55532845       0.56540677       0.31650782 </v>
    <v>       0.82243180       0.55381342       0.31467913 </v>
    <v>       0.06337397       0.81358811       0.31846108 </v>
    <v>       0.32026661       0.80269964       0.31678523 </v>
    <v>       0.56334923       0.81279757       0.31184243 </v>
    <v>       0.79440960       0.82292803       0.31420690 </v>
    <v>       0.06437677       0.05890991       0.56032613 </v>
    <v>       0.31304326       0.06408774       0.56499599 </v>
    <v>       0.57075997       0.06344731       0.57378679 </v>
    <v>       0.82263093       0.05853699       0.55396210 </v>
    <v>       0.05943979       0.30897809       0.56906109 </v>
    <v>       0.32544732       0.31096572       0.55675599 </v>
    <v>       0.56990659       0.30565819       0.55299249 </v>
    <v>       0.80199976       0.30067668       0.57602185 </v>
    <v>       0.07608878       0.54885775       0.56637943 </v>
    <v>       0.31200226       0.57031421       0.55858763 </v>
    <v>       0.56857839       0.56895937       0.55612719 </v>
    <v>       0.81530807       0.56097059       0.57088898 </v>
    <v>       0.04621105       0.81390208       0.57075545 </v>
    <v>       0.31924858       0.81711502       0.55536258 </v>
    <v>       0.55795549       0.80426454       0.56949590 </v>
    <v>       0.80385212       0.81450674       0.55967278 </v>
    <v>       0.06205995       0.05024249       0.81860368 </v>
    <v>       0.31782642       0.05626731       0.80957264 </v>
    <v>       0.56518371       0.06984428       0.80665238 </v>
    <v>       0.81385815       0.05810911       0.80743972 </v>
    <v>       0.05825593       0.31476520       0.82341488 </v>
    <v>       0.31557764       0.31951924       0.80511569 </v>
    <v>       0.56244000       0.31110061       0.81653455 </v>
    <v>       0.80977252       0.31541845       0.81804705 </v>
    <v>       0.05525703       0.56149121       0.81653315 </v>
    <v>       0.31852435       0.55317184       0.81409665 </v>
    <v>       0.56385087       0.56396664       0.81900366 </v>
    <v>       0.81063833       0.56336253       0.81244770 </v>
    <v>       0.05484718       0.82255110       0.81421011 </v>
    <v>       0.31433037       0.80948012       0.81534681 </v>
    <v>       0.55408117       0.81713675       0.81279520 </v>
    <v>       0.81626446       0.81682862       0.80861406 </v>
   </varray>
  </structure>
  <varray name="forces" >
   <v>       0.76826320      -0.71630470      -0.66214561 </v>
   <v>      -2.05669522       0.17638138       0.57247148 </v>
   <v>       0.19134301      -1.63964264       1.53200463 </v>
   <v>      -0.68350659       1.01177932       0.29008360 </v>
   <v>       0.27067466      -1.02616593      -1.62798711 </v>
   <v>      -0.58519153      -2.01286846       0.03991295 </v>
   <v>       1.82730989      -0.19462432       0.05036447 </v>
   <v>      -0.61735098       1.57104830       0.05783074 </v>
   <v>      -0.49923699      -0.35373598      -1.34391960 </v>
   <v>       0.50973188       0.64887250      -1.00898596 </v>
   <v>       0.18381247       0.28217170      -0.80861905 </v>
   <v>      -0.62722703       0.12712474      -0.59169384 </v>
   <v>       2.35238373       0.86764129      -0.24611671 </v>
   <v>       1.12415076       1.78801894       0.82860870 </v>
   <v>      -1.16829547       0.15883847       0.21485240 </v>
   <v>       0.93614367       1.69464671      -0.58547320 </v>
   <v>       2.69382246      -1.23903979       1.52503182 </v>
   <v>       0.88818256       1.42894873      -0.10605034 </v>
   <v>       0.85056824      -2.40678597       1.05046508 </v>
   <v>       1.09427768      -1.73968395      -0.03469115 </v>
   <v>       1.88973740       1.06784912       0.20350351 </v>
   <v>      -2.68065068       0.36296498      -1.52874148 </v>
   <v>       1.64278785      -0.79818874      -0.52515963 </v>
   <v>       2.51345969       0.40410316       0.19468536 </v>
   <v>       0.23075044       1.02823209      -1.36196115 </v>
   <v>      -0.02512745      -1.64563126       0.63141892 </v>
   <v>       0.48269999      -0.03351247      -0.31861110 </v>
   <v>      -0.59215687      -0.72991203       0.97923064 </v>
   <v>       1.91206915      -1.05155429       1.45316827 </v>
   <v>      -0.22345075       1.90350883       0.61375523 </v>
   <v>       1.74187352      -0.42158842       0.53214690 </v>
   <v>      -0.12149151      -3.07002740      -0.22402045 </v>
   <v>       0.31843995      -1.47667823      -0.11549392 </v>
   <v>       0.77576020       0.96055176      -0.75069591 </v>
   <v>       0.32406203       1.70807236       1.24122478 </v>
   <v>      -0.69995698      -0.38996954      -0.98182515 </v>
   <v>       2.81270353       0.11283477      -0.94901756 </v>
   <v>      -0.56609809      -0.64894618       0.39815778 </v>
   <v>      -2.60178543       1.94890161       2.72021994 </v>
   <v>       0.86517000      -1.27820893       0.39754085 </v>
   <v>      -0.51324355       0.97963329       0.11664605 </v>
   <v>      -2.08654948       1.68868228      -0.19153127 </v>
   <v>      -1.37558742       0.07793678      -0.68538258 </v>
   <v>       0.49240425       0.56908783      -0.99169741 </v>
   <v>       0.52821876       0.69359320      -0.91361407 </v>
   <v>       2.13329578       0.03512930      -0.33521100 </v>
   <v>       2.06009283       0.10374098      -0.72061776 </v>
   <v>       1.23768741      -2.32535345      -0.13846369 </v>
   <v>       0.37645138      -0.60822677      -0.38965187 </v>
   <v>      -0.11797904      -1.44361364       0.48265883 </v>
   <v>       1.64707700       0.76160694       0.54798908 </v>
   <v>      -0.23957156      -0.22744212      -0.94032352 </v>
   <v>       0.08673883       2.14907790      -1.95004085 </v>
   <v>      -0.31907751      -0.23507036       0.87270667 </v>
   <v>      -0.05676132      -2.35291700       0.34526146 </v>
   <v>       2.86205888       1.45655805       0.49631591 </v>
   <v>       0.88618577      -0.54910894      -0.20942343 </v>
   <v>       0.22139496      -0.19773049       0.42330719 </v>
   <v>       0.10745628      -2.11591946       0.29127477 </v>
   <v>       0.13730027      -0.21700021      -1.14397527 </v>
   <v>       0.27215190       1.37707880      -0.13545144 </v>
   <v>      -0.95794079       0.48899027       0.83914706 </v>
   <v>      -0.83644322      -0.04992376      -2.07985743 </v>
   <v>       0.48292320       1.12308965      -0.34351251 </v>
   <v>       0.01920915       0.08636838      -0.01699916 </v>
   <v>       0.21253174      -0.05174080       0.34356040 </v>
   <v>       0.65546538       1.20458582      -1.96993311 </v>
   <v>      -0.54338323      -0.30751853       1.12745766 </v>
   <v>      -1.64536191       0.22104771       2.23116043 </v>
   <v>       0.48790647       0.03813241      -0.01700370 </v>
   <v>      -0.82251172      -0.16812182      -0.56484216 </v>
   <v>      -2.26734959      -0.69797048       1.80759964 </v>
   <v>      -1.04265256      -0.15796580       1.90347731 </v>
   <v>       1.01916407       0.16962304      -1.20852964 </v>
   <v>       1.12328627      -0.47214249       1.05987029 </v>
   <v>       1.55361715       0.33274142       1.04334110 </v>
   <v>       0.40115375      -0.80245389      -1.30729757 </v>
   <v>       0.63575097      -2.08692247      -1.04685022 </v>
   <v>      -0.84080039       0.14780213       0.19310896 </v>
   <v>      -0.83334548       0.37215123      -0.68474003 </v>
   <v>      -2.65374607       0.16321509      -0.70232988 </v>
   <v>      -0.93837697      -1.04148166       1.35282818 </v>
   <v>      -1.11237138       0.41337380       0.23220323 </v>
   <v>      -1.51524423       1.82705716      -0.03655438 </v>
   <v>      -1.10479074      -1.90476132       0.16145227 </v>
   <v>       1.01729375       3.45110826       0.45698035 </v>
   <v>      -0.29226712       0.67345699      -0.88418663 </v>
   <v>       0.01931892       0.35789288      -0.82218129 </v>
   <v>      -0.71411467       1.59783504       0.43831027 </v>
   <v>       0.22501233      -0.90204327       0.26650047 </v>
   <v>      -0.55408568       1.26988603      -0.68486111 </v>
   <v>      -0.10572998      -0.36825159      -0.59996156 </v>
   <v>      -1.84735260      -0.30961652      -1.69010886 </v>
   <v>      -0.58749775      -2.12129229       0.50290364 </v>
   <v>      -2.31647482       0.65093885       0.20158836 </v>
   <v>      -1.16939539       3.02907056       0.20420549 </v>
   <v>      -0.22743563       1.28118555       0.63077936 </v>
   <v>       0.59465091      -0.49515461      -1.05541307 </v>
   <v>      -1.57371651      -2.04269102      -0.55556903 </v>
   <v>       0.23612569       1.21955354       0.09919195 </v>
   <v>      -1.25366530      -0.96870057       1.10824547 </v>
   <v>       3.57075100      -2.77221819      -2.53390163 </v>
   <v>       1.51757798       0.53552365       0.24941002 </v>
   <v>      -1.77417577      -1.12563125       2.98170909 </v>
   <v>       1.08045849      -2.18361723      -0.60610198 </v>
   <v>       0.35927089       1.10056319      -0.42877108 </v>
   <v>      -0.30023307       1.61622669      -0.84578656 </v>
   <v>      -1.17395342      -0.25351739      -0.74685645 </v>
   <v>      -2.27969432       0.71638280       0.85964353 </v>
   <v>       0.00391690       0.03563813      -0.90927529 </v>
   <v>      -1.04087937      -0.25326474       1.55459310 </v>
   <v>      -0.11385963       0.61388142       1.19287203 </v>
   <v>       1.19779525      -0.30104371       1.81669046 </v>
   <v>       1.72322370       0.14860064      -0.49706921 </v>
   <v>      -0.59766263       1.22224639      -2.01852869 </v>
   <v>      -0.00835928       1.23441526       0.09699201 </v>
   <v>      -1.26909046       0.12295964      -0.00842972 </v>
   <v>      -0.13162754       1.23649106      -1.46528073 </v>
   <v>      -0.82207822       0.18806806       0.44975914 </v>
   <v>      -1.18118388      -0.96154574      -0.43446457 </v>
   <v>       0.09373478       0.24121597       1.06590307 </v>
   <v>      -0.11683630      -1.10057269       1.23030778 </v>
   <v>      -0.38281454      -0.70133940       1.44021746 </v>
   <v>       0.23129102       0.24684210       1.20211674 </v>
   <v>      -1.95818665      -0.37870044      -0.00146200 </v>
   <v>      -1.18299291      -0.78688470      -0.09658014 </v>
   <v>       0.21000682       1.95350927       0.48603477 </v>
   <v>      -0.37345567      -1.56374615      -0.55316667 </v>
  </varray>
  <varray name="stress" >
   <v>      12.63389437       3.13427524       0.95456618 </v>
   <v>       3.13427524      12.65766974     -10.93660410 </v>
   <v>       0.95456619     -10.93660409      15.30519892 </v>
  </varray>
  <energy>
   <i name="e_fr_energy">   -678.81690335 </i>
   <i name="e_wo_entrp">   -678.81690335 </i>
   <i name="e_0_energy">     -0.00000000 </i>
  </energy>
  <time name="totalsc"> 1706.12 1707.00</time>
  <eigenvalues>
   <array>
    <dimension dim="1">band</dimension>
    <dimension dim="2">kpoint</dimension>
    <dimension dim="3">spin</dimension>
    <field>eigene</field>
    <field>occ</field>
    <set>
     <set comment="spin 1">
      <set comment="kpoint 1">
       <r>   -6.3182    1.0000 </r>
       <r>   -5.7392    1.0000 </r>
       <r>   -5.6767    1.0000 </r>
       <r>   -5.6098    1.0000 </r>
       <r>   -5.5714    1.0000 </r>
       <r>   -5.5241    1.0000 </r>
       <r>   -5.5040    1.0000 </r>
       <r>   -5.4312    1.0000 </r>
       <r>   -5.3888    1.0000 </r>
       <r>   -5.3083    1.0000 </r>
       <r>   -5.2690    1.0000 </r>
       <r>   -5.2051    1.0000 </r>
       <r>   -5.1875    1.0000 </r>
       <r>   -5.1506    1.0000 </r>
       <r>   -5.0823    1.0000 </r>
       <r>   -4.4852    1.0000 </r>
       <r>   -4.4630    1.0000 </r>
       <r>   -4.4327    1.0000 </r>
       <r>   -4.3875    1.0000 </r>
       <r>   -4.3734    1.0000 </r>
       <r>   -4.3493    1.0000 </r>
       <r>   -4.3048    1.0000 </r>
       <r>   -4.3035    1.0000 </r>
       <r>   -4.2594    1.0000 </r>
       <r>   -4.2211    1.0000 </r>
       <r>   -4.1651    1.0000 </r>
       <r>   -4.1388    1.0000 </r>
       <r>   -4.0460    1.0000 </r>
       <r>   -4.0252    1.0000 </r>
       <r>   -3.9932    1.0000 </r>
       <r>   -3.9490    1.0000 </r>
       <r>   -3.9021    1.0000 </r>
       <r>   -3.8252    1.0000 </r>
       <r>   -3.8038    1.0000 </r>
       <r>   -3.7672    1.0000 </r>
       <r>   -3.7354    1.0000 </r>
       <r>   -3.7214    1.0000 </r>
       <r>   -3.7023    1.0000 </r>
       <r>   -3.6905    1.0000 </r>
       <r>   -3.6736    1.0000 </r>
       <r>   -3.6137    1.0000 </r>
       <r>   -3.5985    1.0000 </r>
       <r>   -3.5732    1.0000 </r>
       <r>   -3.5553    1.0000 </r>
       <r>   -3.5307    1.0000 </r>
       <r>   -3.5292    1.0000 </r>
       <r>   -3.4919    1.0000 </r>
       <r>   -3.4499    1.0000 </r>
       <r>   -3.4230    1.0000 </r>
       <r>   -3.4121    1.0000 </r>
       <r>   -3.3939    1.0000 </r>
       <r>   -3.3261    1.0000 </r>
       <r>   -3.2878    1.0000 </r>
       <r>   -3.2101    1.0000 </r>
       <r>   -3.1691    1.0000 </r>
       <r>   -2.3575    1.0000 </r>
       <r>   -2.3231    1.0000 </r>
       <r>   -2.2776    1.0000 </r>
       <r>   -2.2387    1.0000 </r>
       <r>   -2.2261    1.0000 </r>
       <r>   -2.1818    1.0000 </r>
       <r>   -2.1333    1.0000 </r>
       <r>   -2.0922    1.0000 </r>
       <r>   -2.0661    1.0000 </r>
       <r>   -2.0627    1.0000 </r>
       <r>   -2.0467    1.0000 </r>
       <r>   -2.0191    1.0000 </r>
       <r>   -1.9974    1.0000 </r>
       <r>   -1.9389    1.0000 </r>
       <r>   -1.8905    1.0000 </r>
       <r>   -1.8562    1.0000 </r>
       <r>   -1.8090    1.0000 </r>
       <r>   -1.7828    1.0000 </r>
       <r>   -1.3945    1.0000 </r>
       <r>   -1.3220    1.0000 </r>
       <r>   -1.2569    1.0000 </r>
       <r>   -1.2270    1.0000 </r>
       <r>   -1.0558    1.0000 </r>
       <r>   -1.0139    1.0000 </r>
       <r>   -0.9979    1.0000 </r>
       <r>   -0.9843    1.0000 </r>
       <r>   -0.9228    1.0000 </r>
       <r>   -0.8749    1.0000 </r>
       <r>   -0.8642    1.0000 </r>
       <r>   -0.8259    1.0000 </r>
       <r>   -0.8011    1.0000 </r>
       <r>   -0.7985    1.0000 </r>
       <r>   -0.7486    1.0000 </r>
       <r>   -0.7177    1.0000 </r>
       <r>   -0.7065    1.0000 </r>
       <r>   -0.6689    1.0000 </r>
       <r>   -0.6581    1.0000 </r>
       <r>   -0.6300    1.0000 </r>
       <r>   -0.5981    1.0000 </r>
       <r>   -0.5885    1.0000 </r>
       <r>   -0.5636    1.0000 </r>
       <r>   -0.5436    1.0000 </r>
       <r>   -0.4600    1.0000 </r>
       <r>   -0.4485    1.0000 </r>
       <r>   -0.3882    1.0000 </r>
       <r>   -0.3581    1.0000 </r>
       <r>   -0.0730    1.0000 </r>
       <r>    0.0390    1.0000 </r>
       <r>    0.0469    1.0000 </r>
       <r>    0.1166    1.0000 </r>
       <r>    0.1604    1.0000 </r>
       <r>    0.1796    1.0000 </r>
       <r>    0.1944    1.0000 </r>
       <r>    0.2363    1.0000 </r>
       <r>    0.2766    1.0000 </r>
       <r>    0.2966    1.0000 </r>
       <r>    0.3362    1.0000 </r>
       <r>    0.4515    1.0000 </r>
       <r>    1.4130    1.0000 </r>
       <r>    1.4285    1.0000 </r>
       <r>    1.4524    1.0000 </r>
       <r>    1.4747    1.0000 </r>
       <r>    1.5189    1.0000 </r>
       <r>    1.5378    1.0000 </r>
       <r>    1.5612    1.0000 </r>
       <r>    1.6026    1.0000 </r>
       <r>    1.6171    1.0000 </r>
       <r>    1.6396    1.0000 </r>
       <r>    1.6523    1.0000 </r>
       <r>    1.6640    1.0000 </r>
       <r>    1.6888    1.0000 </r>
       <r>    1.7047    1.0000 </r>
       <r>    1.7168    1.0000 </r>
       <r>    1.7305    1.0000 </r>
       <r>    1.7598    1.0000 </r>
       <r>    1.7731    1.0000 </r>
       <r>    1.7802    1.0000 </r>
       <r>    1.7929    1.0000 </r>
       <r>    1.8162    1.0000 </r>
       <r>    1.8273    1.0000 </r>
       <r>    1.8339    1.0000 </r>
       <r>    1.8569    1.0000 </r>
       <r>    1.8594    1.0000 </r>
       <r>    1.8842    1.0000 </r>
       <r>    1.8900    1.0000 </r>
       <r>    1.8978    1.0000 </r>
       <r>    1.9280    1.0000 </r>
       <r>    1.9480    1.0000 </r>
       <r>    1.9549    1.0000 </r>
       <r>    1.9709    1.0000 </r>
       <r>    1.9851    1.0000 </r>
       <r>    1.9959    1.0000 </r>
       <r>    2.0203    1.0000 </r>
       <r>    2.0221    1.0000 </r>
       <r>    2.0488    1.0000 </r>
       <r>    2.0755    1.0000 </r>
       <r>    2.0834    1.0000 </r>
       <r>    2.0856    1.0000 </r>
       <r>    2.1015    1.0000 </r>
       <r>    2.1102    1.0000 </r>
       <r>    2.1542    1.0000 </r>
       <r>    2.1567    1.0000 </r>
       <r>    2.1911    1.0000 </r>
       <r>    2.1931    1.0000 </r>
       <r>    2.2171    1.0000 </r>
       <r>    2.2228    1.0000 </r>
       <r>    2.2461    1.0000 </r>
       <r>    2.2574    1.0000 </r>
       <r>    2.2780    1.0000 </r>
       <r>    2.3063    1.0000 </r>
       <r>    2.3130    1.0000 </r>
       <r>    2.3279    1.0000 </r>
       <r>    2.3498    1.0000 </r>
       <r>    2.3770    1.0000 </r>
       <r>    2.4019    1.0000 </r>
       <r>    2.4303    1.0000 </r>
       <r>    2.4624    1.0000 </r>
       <r>    2.4701    1.0000 </r>
       <r>    2.5138    1.0000 </r>
       <r>    2.5879    1.0000 </r>
       <r>    2.7198    1.0000 </r>
       <r>    2.7564    1.0000 </r>
       <r>    2.7887    1.0000 </r>
       <r>    2.8394    1.0000 </r>
       <r>    2.8588    1.0000 </r>
       <r>    2.8875    1.0000 </r>
       <r>    3.1003    1.0000 </r>
       <r>    3.2058    1.0000 </r>
       <r>    3.2121    1.0000 </r>
       <r>    3.2538    1.0000 </r>
       <r>    3.2818    1.0000 </r>
       <r>    3.2896    1.0000 </r>
       <r>    3.2972    1.0000 </r>
       <r>    3.3205    1.0000 </r>
       <r>    3.3546    1.0000 </r>
       <r>    3.3738    1.0000 </r>
       <r>    3.3873    1.0000 </r>
       <r>    3.4080    1.0000 </r>
       <r>    3.4314    1.0000 </r>
       <r>    3.4515    1.0000 </r>
       <r>    3.4714    1.0000 </r>
       <r>    3.4816    1.0000 </r>
       <r>    3.5051    1.0000 </r>
       <r>    3.5193    1.0000 </r>
       <r>    3.5422    1.0000 </r>
       <r>    3.5646    1.0000 </r>
       <r>    3.5826    1.0000 </r>
       <r>    3.6045    1.0000 </r>
       <r>    3.6402    1.0000 </r>
       <r>    3.6639    1.0000 </r>
       <r>    3.6787    1.0000 </r>
       <r>    3.6871    1.0000 </r>
       <r>    3.7191    1.0000 </r>
       <r>    3.7459    1.0000 </r>
       <r>    3.7589    1.0000 </r>
       <r>    3.7914    1.0000 </r>
       <r>    3.8214    1.0000 </r>
       <r>    3.8430    1.0000 </r>
       <r>    3.8558    1.0000 </r>
       <r>    3.8953    1.0000 </r>
       <r>    3.9251    1.0000 </r>
       <r>    3.9638    1.0000 </r>
       <r>    4.1139    1.0000 </r>
       <r>    4.1405    1.0000 </r>
       <r>    4.1842    1.0000 </r>
       <r>    4.2162    1.0000 </r>
       <r>    4.2516    1.0000 </r>
       <r>    4.2784    1.0000 </r>
       <r>    4.3057    1.0000 </r>
       <r>    4.3115    1.0000 </r>
       <r>    4.3359    1.0000 </r>
       <r>    4.3650    1.0000 </r>
       <r>    4.4054    1.0000 </r>
       <r>    4.4238    1.0000 </r>
       <r>    4.4464    1.0000 </r>
       <r>    4.4802    1.0000 </r>
       <r>    4.4944    1.0000 </r>
       <r>    4.5514    1.0000 </r>
       <r>    4.5712    1.0000 </r>
       <r>    4.5878    1.0000 </r>
       <r>    4.6176    1.0000 </r>
       <r>    4.6387    1.0000 </r>
       <r>    4.6885    1.0000 </r>
       <r>    4.7543    1.0000 </r>
       <r>    4.8304    1.0000 </r>
       <r>    4.8486    1.0000 </r>
       <r>    4.8929    1.0000 </r>
       <r>    4.9335    1.0000 </r>
       <r>    4.9545    1.0000 </r>
       <r>    4.9901    1.0000 </r>
       <r>    5.0079    1.0000 </r>
       <r>    5.0608    1.0000 </r>
       <r>    5.0738    1.0000 </r>
       <r>    5.1195    1.0000 </r>
       <r>    5.1654    1.0000 </r>
       <r>    5.2125    1.0000 </r>
       <r>    5.2273    1.0000 </r>
       <r>    5.2784    1.0000 </r>
       <r>    5.7179    1.0000 </r>
       <r>    5.7536    1.0000 </r>
       <r>    5.8777    1.0000 </r>
       <r>    6.1329    0.0000 </r>
       <r>    6.1968    0.0000 </r>
       <r>    6.2228    0.0000 </r>
       <r>    6.2510    0.0000 </r>
       <r>    6.3030    0.0000 </r>
       <r>    6.3359    0.0000 </r>
       <r>    6.4868    0.0000 </r>
       <r>    6.5411    0.0000 </r>
       <r>    6.5887    0.0000 </r>
       <r>    6.6176    0.0000 </r>
       <r>    6.6726    0.0000 </r>
       <r>    6.7049    0.0000 </r>
       <r>    6.7845    0.0000 </r>
       <r>    6.8102    0.0000 </r>
       <r>    6.8433    0.0000 </r>
       <r>    6.8536    0.0000 </r>
       <r>    6.8713    0.0000 </r>
       <r>    6.8986    0.0000 </r>
       <r>    6.9146    0.0000 </r>
       <r>    6.9551    0.0000 </r>
       <r>    6.9781    0.0000 </r>
       <r>    6.9818    0.0000 </r>
       <r>    6.9973    0.0000 </r>
       <r>    7.0191    0.0000 </r>
       <r>    7.0389    0.0000 </r>
       <r>    7.0607    0.0000 </r>
       <r>    7.0745    0.0000 </r>
       <r>    7.0872    0.0000 </r>
       <r>    7.1190    0.0000 </r>
       <r>    7.1265    0.0000 </r>
       <r>    7.1552    0.0000 </r>
       <r>    7.1604    0.0000 </r>
       <r>    7.1847    0.0000 </r>
       <r>    7.2075    0.0000 </r>
       <r>    7.2360    0.0000 </r>
       <r>    7.2545    0.0000 </r>
       <r>    7.3005    0.0000 </r>
       <r>    7.3185    0.0000 </r>
       <r>    7.3550    0.0000 </r>
       <r>    7.3865    0.0000 </r>
       <r>    7.3982    0.0000 </r>
       <r>    7.4713    0.0000 </r>
       <r>    7.5076    0.0000 </r>
       <r>    7.5267    0.0000 </r>
       <r>    7.5414    0.0000 </r>
       <r>    7.5695    0.0000 </r>
       <r>    7.5896    0.0000 </r>
       <r>    7.6067    0.0000 </r>
       <r>    7.8063    0.0000 </r>
       <r>    7.8714    0.0000 </r>
       <r>    7.8875    0.0000 </r>
       <r>    7.9106    0.0000 </r>
       <r>    7.9256    0.0000 </r>
       <r>    7.9419    0.0000 </r>
       <r>    7.9606    0.0000 </r>
       <r>    7.9982    0.0000 </r>
       <r>    8.0111    0.0000 </r>
       <r>    8.0689    0.0000 </r>
       <r>    8.0744    0.0000 </r>
       <r>    8.1278    0.0000 </r>
       <r>    8.1706    0.0000 </r>
       <r>    8.2391    0.0000 </r>
       <r>    8.2421    0.0000 </r>
       <r>    8.5283    0.0000 </r>
       <r>    8.5708    0.0000 </r>
       <r>    8.6015    0.0000 </r>
      </set>
      <set comment="kpoint 2">
       <r>   -6.1958    1.0000 </r>
       <r>   -6.0453    1.0000 </r>
       <r>   -5.7209    1.0000 </r>
       <r>   -5.6644    1.0000 </r>
       <r>   -5.6245    1.0000 </r>
       <r>   -5.5803    1.0000 </r>
       <r>   -5.5386    1.0000 </r>
[...]
       <r>    -3.1254    56.6384   100.4628 </r>
       <r>    -3.0707    30.9348   102.1552 </r>
       <r>    -3.0160    52.3596   105.0196 </r>
       <r>    -2.9613    54.1437   107.9815 </r>
       <r>    -2.9066    25.7956   109.3927 </r>
       <r>    -2.8519    39.9880   111.5803 </r>
       <r>    -2.7972    27.4976   113.0846 </r>
       <r>    -2.7425    31.3338   114.7987 </r>
       <r>    -2.6878    30.9831   116.4937 </r>
       <r>    -2.6331    41.5370   118.7660 </r>
       <r>    -2.5784    25.2991   120.1500 </r>
       <r>    -2.5237    35.6290   122.0991 </r>
       <r>    -2.4690    11.8646   122.7482 </r>
       <r>    -2.4143     0.0335   122.7500 </r>
       <r>    -2.3595     1.7545   122.8460 </r>
       <r>    -2.3048     7.3703   123.2492 </r>
       <r>    -2.2501     9.6955   123.7796 </r>
       <r>    -2.1954    22.4738   125.0090 </r>
       <r>    -2.1407    23.7264   126.3070 </r>
       <r>    -2.0860    29.2829   127.9090 </r>
       <r>    -2.0313    29.5259   129.5242 </r>
       <r>    -1.9766    30.7071   131.2041 </r>
       <r>    -1.9219    14.5692   132.0011 </r>
       <r>    -1.8672     9.3899   132.5148 </r>
       <r>    -1.8125     5.7108   132.8272 </r>
       <r>    -1.7578     7.7281   133.2499 </r>
       <r>    -1.7031     4.3845   133.4898 </r>
       <r>    -1.6484    11.5004   134.1189 </r>
       <r>    -1.5937    30.9870   135.8141 </r>
       <r>    -1.5390    31.9899   137.5642 </r>
       <r>    -1.4843    39.9447   139.7494 </r>
       <r>    -1.4296    39.2753   141.8980 </r>
       <r>    -1.3748    45.1010   144.3652 </r>
       <r>    -1.3201    57.6504   147.5191 </r>
       <r>    -1.2654    48.6784   150.1821 </r>
       <r>    -1.2107    71.5082   154.0940 </r>
       <r>    -1.1560    57.1406   157.2199 </r>
       <r>    -1.1013    44.6018   159.6599 </r>
       <r>    -1.0466    73.9789   163.7070 </r>
       <r>    -0.9919    69.5979   167.5144 </r>
       <r>    -0.9372    54.8664   170.5159 </r>
       <r>    -0.8825    56.1979   173.5902 </r>
       <r>    -0.8278    54.3399   176.5629 </r>
       <r>    -0.7731    72.3696   180.5220 </r>
       <r>    -0.7184    34.3394   182.4006 </r>
       <r>    -0.6637    45.4239   184.8856 </r>
       <r>    -0.6090    37.9432   186.9613 </r>
       <r>    -0.5543    28.0634   188.4965 </r>
       <r>    -0.4996    26.3594   189.9386 </r>
       <r>    -0.4449    24.0304   191.2532 </r>
       <r>    -0.3901    26.9128   192.7255 </r>
       <r>    -0.3354    52.2894   195.5860 </r>
       <r>    -0.2807    52.7337   198.4708 </r>
       <r>    -0.2260    40.8535   200.7058 </r>
       <r>    -0.1713    57.3982   203.8458 </r>
       <r>    -0.1166    45.3207   206.3251 </r>
       <r>    -0.0619    36.8113   208.3389 </r>
       <r>    -0.0072    33.6675   210.1807 </r>
       <r>     0.0475    36.6954   212.1882 </r>
       <r>     0.1022    18.5674   213.2039 </r>
       <r>     0.1569    11.4022   213.8277 </r>
       <r>     0.2116    12.2598   214.4984 </r>
       <r>     0.2663    17.8238   215.4734 </r>
       <r>     0.3210    28.0731   217.0092 </r>
       <r>     0.3757    19.2453   218.0620 </r>
       <r>     0.4304    27.1898   219.5495 </r>
       <r>     0.4851    22.3049   220.7697 </r>
       <r>     0.5399    25.4237   222.1605 </r>
       <r>     0.5946    21.2534   223.3232 </r>
       <r>     0.6493    30.1131   224.9706 </r>
       <r>     0.7040    12.6793   225.6642 </r>
       <r>     0.7587    20.1742   226.7678 </r>
       <r>     0.8134     9.0420   227.2625 </r>
       <r>     0.8681     8.9118   227.7500 </r>
       <r>     0.9228    17.8197   228.7249 </r>
       <r>     0.9775    25.6134   230.1261 </r>
       <r>     1.0322    28.7284   231.6977 </r>
       <r>     1.0869    19.1925   232.7477 </r>
       <r>     1.1416    35.8032   234.7063 </r>
       <r>     1.1963    24.1204   236.0258 </r>
       <r>     1.2510    18.1370   237.0180 </r>
       <r>     1.3057    38.1258   239.1037 </r>
       <r>     1.3604    25.2506   240.4851 </r>
       <r>     1.4151    44.1161   242.8985 </r>
       <r>     1.4698    78.8189   247.2103 </r>
       <r>     1.5246    68.7132   250.9694 </r>
       <r>     1.5793    77.2661   255.1963 </r>
       <r>     1.6340    86.5461   259.9309 </r>
       <r>     1.6887    70.4343   263.7840 </r>
       <r>     1.7434    59.0059   267.0120 </r>
       <r>     1.7981    54.8253   270.0113 </r>
       <r>     1.8528    24.7904   271.3675 </r>
       <r>     1.9075    29.5727   272.9853 </r>
       <r>     1.9622    26.6718   274.4444 </r>
       <r>     2.0169    27.6941   275.9594 </r>
       <r>     2.0716    80.6295   280.3703 </r>
       <r>     2.1263   112.2625   286.5117 </r>
       <r>     2.1810    99.5107   291.9556 </r>
       <r>     2.2357   105.6747   297.7366 </r>
       <r>     2.2904   107.7203   303.6295 </r>
       <r>     2.3451   102.4398   309.2337 </r>
       <r>     2.3998    98.4649   314.6202 </r>
       <r>     2.4545    81.1829   319.0615 </r>
       <r>     2.5093    43.8083   321.4580 </r>
       <r>     2.5640    36.0949   323.4326 </r>
       <r>     2.6187    45.7721   325.9366 </r>
       <r>     2.6734    62.3509   329.3476 </r>
       <r>     2.7281    94.9713   334.5431 </r>
       <r>     2.7828    97.4950   339.8766 </r>
       <r>     2.8375    88.5793   344.7225 </r>
       <r>     2.8922    90.9080   349.6957 </r>
       <r>     2.9469    90.5978   354.6519 </r>
       <r>     3.0016   101.9149   360.2273 </r>
       <r>     3.0563    96.2325   365.4918 </r>
       <r>     3.1110    69.6002   369.2993 </r>
       <r>     3.1657    83.6180   373.8738 </r>
       <r>     3.2204    75.9781   378.0302 </r>
       <r>     3.2751    92.1679   383.0723 </r>
       <r>     3.3298    99.4202   388.5112 </r>
       <r>     3.3845   101.9297   394.0874 </r>
       <r>     3.4393    84.4356   398.7065 </r>
       <r>     3.4940    86.5847   403.4432 </r>
       <r>     3.5487    90.0377   408.3688 </r>
       <r>     3.6034    63.0803   411.8197 </r>
       <r>     3.6581    80.3724   416.2166 </r>
       <r>     3.7128    62.9582   419.6607 </r>
       <r>     3.7675    78.7464   423.9686 </r>
       <r>     3.8222   108.5958   429.9095 </r>
       <r>     3.8769    80.9355   434.3371 </r>
       <r>     3.9316    82.1361   438.8305 </r>
       <r>     3.9863    60.2089   442.1243 </r>
       <r>     4.0410    59.7487   445.3929 </r>
       <r>     4.0957    65.3130   448.9659 </r>
       <r>     4.1504    72.9071   452.9544 </r>
       <r>     4.2051    76.4846   457.1385 </r>
       <r>     4.2598    62.8766   460.5782 </r>
       <r>     4.3145    68.9154   464.3483 </r>
       <r>     4.3692    64.8445   467.8957 </r>
       <r>     4.4240    70.8333   471.7707 </r>
       <r>     4.4787    66.1692   475.3905 </r>
       <r>     4.5334    63.7869   478.8801 </r>
       <r>     4.5881    71.9032   482.8136 </r>
       <r>     4.6428    66.6000   486.4570 </r>
       <r>     4.6975    37.1669   488.4903 </r>
       <r>     4.7522    25.5083   489.8857 </r>
       <r>     4.8069    28.3356   491.4358 </r>
       <r>     4.8616    32.5427   493.2161 </r>
       <r>     4.9163    32.4529   494.9915 </r>
       <r>     4.9710    37.3335   497.0338 </r>
       <r>     5.0257    33.6917   498.8769 </r>
       <r>     5.0804    45.7962   501.3823 </r>
       <r>     5.1351    23.6590   502.6766 </r>
       <r>     5.1898    15.0446   503.4996 </r>
       <r>     5.2445    13.5920   504.2432 </r>
       <r>     5.2992     4.6873   504.4996 </r>
       <r>     5.3539     4.5727   504.7498 </r>
       <r>     5.4087    26.2070   506.1834 </r>
       <r>     5.4634    21.8468   507.3786 </r>
       <r>     5.5181    24.9887   508.7456 </r>
       <r>     5.5728     9.4953   509.2651 </r>
       <r>     5.6275    18.2233   510.2620 </r>
       <r>     5.6822    11.8272   510.9091 </r>
       <r>     5.7369    10.8270   511.5014 </r>
       <r>     5.7916     4.5448   511.7500 </r>
       <r>     5.8463     0.0000   511.7500 </r>
       <r>     5.9010     4.5677   511.9999 </r>
       <r>     5.9557     0.0022   512.0000 </r>
       <r>     6.0104     0.0000   512.0000 </r>
       <r>     6.0651     0.0000   512.0000 </r>
       <r>     6.1198     5.1539   512.2819 </r>
       <r>     6.1745    15.5420   513.1322 </r>
       <r>     6.2292    21.9498   514.3330 </r>
       <r>     6.2839     7.6439   514.7511 </r>
       <r>     6.3387    30.7788   516.4349 </r>
       <r>     6.3934    19.0876   517.4791 </r>
       <r>     6.4481    15.0095   518.3002 </r>
       <r>     6.5028    28.3647   519.8519 </r>
       <r>     6.5575    18.4058   520.8589 </r>
       <r>     6.6122    23.7373   522.1574 </r>
       <r>     6.6669    13.1725   522.8780 </r>
       <r>     6.7216    28.0811   524.4143 </r>
       <r>     6.7763    32.3552   526.1843 </r>
       <r>     6.8310    35.4443   528.1233 </r>
       <r>     6.8857    40.5590   530.3421 </r>
       <r>     6.9404    26.2242   531.7767 </r>
       <r>     6.9951    44.0500   534.1865 </r>
       <r>     7.0498    36.8676   536.2034 </r>
       <r>     7.1045    40.1009   538.3972 </r>
       <r>     7.1592    25.4127   539.7874 </r>
       <r>     7.2139    42.7385   542.1254 </r>
       <r>     7.2686    48.3661   544.7713 </r>
       <r>     7.3234    83.5212   549.3405 </r>
       <r>     7.3781    61.7396   552.7180 </r>
       <r>     7.4328    87.4881   557.5041 </r>
       <r>     7.4875    91.4432   562.5067 </r>
       <r>     7.5422    79.1741   566.8380 </r>
       <r>     7.5969    91.4613   571.8415 </r>
       <r>     7.6516    82.7795   576.3700 </r>
       <r>     7.7063    79.2811   580.7072 </r>
       <r>     7.7610    87.9094   585.5164 </r>
       <r>     7.8157   102.4880   591.1230 </r>
       <r>     7.8704    90.4658   596.0720 </r>
       <r>     7.9251    90.1297   601.0026 </r>
       <r>     7.9798   108.1979   606.9217 </r>
       <r>     8.0345    77.9278   611.1848 </r>
       <r>     8.0892    88.0428   616.0012 </r>
       <r>     8.1439    70.1567   619.8392 </r>
       <r>     8.1986    80.5646   624.2466 </r>
       <r>     8.2533    87.0452   629.0084 </r>
       <r>     8.3081    77.6221   633.2548 </r>
       <r>     8.3628    75.6677   637.3943 </r>
       <r>     8.4175    73.4721   641.4136 </r>
       <r>     8.4722    29.3688   643.0203 </r>
       <r>     8.5269     6.1267   643.3554 </r>
       <r>     8.5816     6.9337   643.7348 </r>
       <r>     8.6363     4.8485   644.0000 </r>
       <r>     8.6910     0.0000   644.0000 </r>
       <r>     8.7457     0.0000   644.0000 </r>
       <r>     8.8004     0.0000   644.0000 </r>
       <r>     8.8551     0.0000   644.0000 </r>
       <r>     8.9098     0.0000   644.0000 </r>
       <r>     8.9645     0.0000   644.0000 </r>
       <r>     9.0192     0.0000   644.0000 </r>
       <r>     9.0739     0.0000   644.0000 </r>
       <r>     9.1286     0.0000   644.0000 </r>
       <r>     9.1833     0.0000   644.0000 </r>
       <r>     9.2381     0.0000   644.0000 </r>
       <r>     9.2928     0.0000   644.0000 </r>
       <r>     9.3475     0.0000   644.0000 </r>
      </set>
     </set>
    </array>
   </total>
  </dos>
 </calculation>
 <structure name="finalpos" >
  <crystal>
   <varray name="basis" >
    <v>       0.00000000      10.93733369      10.93733369 </v>
    <v>      10.93733369       0.00000000      10.93733369 </v>
    <v>      10.93733369      10.93733369       0.00000000 </v>
   </varray>
   <i name="volume">   2616.76295363 </i>
   <varray name="rec_basis" >
    <v>      -0.04571498       0.04571498       0.04571498 </v>
    <v>       0.04571498      -0.04571498       0.04571498 </v>
    <v>       0.04571498       0.04571498      -0.04571498 </v>
   </varray>
  </crystal>
  <varray name="positions" >
   <v>       0.00588565       0.98973002       0.00299141 </v>
   <v>       0.23782544       0.00524343       0.01045624 </v>
   <v>       0.50171046       0.98275596       0.01148219 </v>
   <v>       0.74486193       0.00829869       0.99572969 </v>
   <v>       0.00240663       0.25189555       0.00750960 </v>
   <v>       0.25357401       0.24354805       0.01504832 </v>
   <v>       0.50941015       0.24135205       0.99532560 </v>
   <v>       0.73815865       0.26051923       0.00115299 </v>
   <v>       0.99935314       0.50349829       0.00189976 </v>
   <v>       0.25336171       0.50364812       0.99231086 </v>
   <v>       0.50302538       0.50203952       0.99654851 </v>
   <v>       0.74825934       0.50561716       0.99848850 </v>
   <v>       0.00239991       0.74327690       0.98957542 </v>
   <v>       0.25253199       0.74420223       0.99225987 </v>
   <v>       0.50036690       0.74594430       0.00566147 </v>
   <v>       0.75244371       0.75135985       0.98857034 </v>
   <v>       0.99678029       0.98659829       0.25445902 </v>
   <v>       0.23987722       0.99948556       0.24637145 </v>
   <v>       0.50546975       0.98929549       0.25731416 </v>
   <v>       0.74712703       0.99717981       0.25696878 </v>
   <v>       0.99209709       0.25142377       0.25052974 </v>
   <v>       0.23601049       0.27533146       0.24195182 </v>
   <v>       0.50783505       0.24437443       0.24186148 </v>
   <v>       0.74545915       0.24385885       0.24585993 </v>
   <v>       0.00289891       0.50677738       0.24322620 </v>
   <v>       0.25076696       0.49731162       0.25909161 </v>
   <v>       0.50483646       0.49851070       0.24771907 </v>
   <v>       0.74128684       0.49546195       0.26517369 </v>
   <v>       0.99924592       0.73994172       0.25151641 </v>
   <v>       0.24382161       0.75387901       0.24443115 </v>
   <v>       0.50955835       0.74080041       0.24624730 </v>
   <v>       0.76275892       0.73460838       0.26190383 </v>
   <v>       0.00910029       0.99008213       0.50670712 </v>
   <v>       0.25379976       0.00576103       0.49080132 </v>
   <v>       0.49185490       0.99449524       0.50475444 </v>
   <v>       0.75425802       0.00412073       0.49835477 </v>
   <v>       0.01143144       0.23852107       0.49337432 </v>
   <v>       0.25045400       0.25234322       0.50227292 </v>
   <v>       0.48983833       0.24705794       0.50759945 </v>
   <v>       0.76023512       0.23745072       0.49564883 </v>
   <v>       0.99715047       0.50008566       0.50238420 </v>
   <v>       0.24896463       0.51613002       0.49507156 </v>
   <v>       0.49809693       0.50605627       0.50591164 </v>
   <v>       0.76011376       0.49623954       0.49796169 </v>
   <v>       0.99730369       0.74746351       0.49948244 </v>
   <v>       0.25335611       0.74981002       0.49462305 </v>
   <v>       0.50983390       0.74692399       0.48848707 </v>
   <v>       0.76056405       0.73779277       0.50107105 </v>
   <v>       0.00270286       0.00331223       0.74515223 </v>
   <v>       0.25133757       0.98985863       0.76019216 </v>
   <v>       0.50086461       0.99645781       0.74842155 </v>
   <v>       0.75425694       0.00492475       0.73994387 </v>
   <v>       0.99410432       0.26940475       0.74399868 </v>
   <v>       0.24860197       0.24512760       0.75546504 </v>
   <v>       0.50709942       0.24757641       0.75436537 </v>
   <v>       0.74699787       0.23536243       0.74730476 </v>
   <v>       0.00430099       0.49492778       0.75077380 </v>
   <v>       0.24606221       0.50189791       0.74898607 </v>
   <v>       0.51427812       0.49156794       0.75814864 </v>
   <v>       0.75256835       0.50170384       0.75225942 </v>
   <v>       0.99676706       0.75319291       0.74893798 </v>
   <v>       0.24207557       0.75135846       0.75314931 </v>
   <v>       0.50026295       0.75933169       0.74829481 </v>
   <v>       0.74467728       0.75765950       0.74256317 </v>
   <v>       0.05438995       0.06349729       0.06748282 </v>
   <v>       0.31418181       0.05748489       0.06441842 </v>
   <v>       0.56607367       0.06305221       0.05122603 </v>
   <v>       0.80430505       0.06205804       0.07146132 </v>
   <v>       0.05045169       0.31521132       0.07666201 </v>
   <v>       0.32071202       0.31505602       0.05653192 </v>
   <v>       0.55774004       0.31858969       0.05987914 </v>
   <v>       0.79667993       0.31916109       0.07370527 </v>
   <v>       0.05801693       0.55863970       0.06757029 </v>
   <v>       0.32100078       0.56140192       0.05507580 </v>
   <v>       0.56587792       0.55133792       0.06457072 </v>
   <v>       0.81109161       0.55362878       0.06676385 </v>
   <v>       0.07305159       0.80234652       0.05987982 </v>
   <v>       0.32200182       0.80968901       0.06160616 </v>
   <v>       0.56680263       0.80412351       0.06509364 </v>
   <v>       0.80968666       0.81929868       0.06302319 </v>
   <v>       0.04781002       0.07258574       0.32454100 </v>
   <v>       0.30485469       0.06516660       0.31283639 </v>
   <v>       0.55365813       0.06251388       0.32154656 </v>
   <v>       0.79936326       0.06828860       0.31458053 </v>
   <v>       0.05665480       0.31858902       0.31863327 </v>
   <v>       0.30688549       0.32099896       0.29606455 </v>
   <v>       0.55727397       0.31500178       0.31158291 </v>
   <v>       0.80882246       0.31277835       0.30725195 </v>
   <v>       0.05300834       0.56397927       0.31644852 </v>
   <v>       0.31742028       0.56226955       0.31272611 </v>
   <v>       0.55532845       0.56540677       0.31650782 </v>
   <v>       0.82243180       0.55381342       0.31467913 </v>
   <v>       0.06337397       0.81358811       0.31846108 </v>
   <v>       0.32026661       0.80269964       0.31678523 </v>
   <v>       0.56334923       0.81279757       0.31184243 </v>
   <v>       0.79440960       0.82292803       0.31420690 </v>
   <v>       0.06437677       0.05890991       0.56032613 </v>
   <v>       0.31304326       0.06408774       0.56499599 </v>
   <v>       0.57075997       0.06344731       0.57378679 </v>
   <v>       0.82263093       0.05853699       0.55396210 </v>
   <v>       0.05943979       0.30897809       0.56906109 </v>
   <v>       0.32544732       0.31096572       0.55675599 </v>
   <v>       0.56990659       0.30565819       0.55299249 </v>
   <v>       0.80199976       0.30067668       0.57602185 </v>
   <v>       0.07608878       0.54885775       0.56637943 </v>
   <v>       0.31200226       0.57031421       0.55858763 </v>
   <v>       0.56857839       0.56895937       0.55612719 </v>
   <v>       0.81530807       0.56097059       0.57088898 </v>
   <v>       0.04621105       0.81390208       0.57075545 </v>
   <v>       0.31924858       0.81711502       0.55536258 </v>
   <v>       0.55795549       0.80426454       0.56949590 </v>
   <v>       0.80385212       0.81450674       0.55967278 </v>
   <v>       0.06205995       0.05024249       0.81860368 </v>
   <v>       0.31782642       0.05626731       0.80957264 </v>
   <v>       0.56518371       0.06984428       0.80665238 </v>
   <v>       0.81385815       0.05810911       0.80743972 </v>
   <v>       0.05825593       0.31476520       0.82341488 </v>
   <v>       0.31557764       0.31951924       0.80511569 </v>
   <v>       0.56244000       0.31110061       0.81653455 </v>
   <v>       0.80977252       0.31541845       0.81804705 </v>
   <v>       0.05525703       0.56149121       0.81653315 </v>
   <v>       0.31852435       0.55317184       0.81409665 </v>
   <v>       0.56385087       0.56396664       0.81900366 </v>
   <v>       0.81063833       0.56336253       0.81244770 </v>
   <v>       0.05484718       0.82255110       0.81421011 </v>
   <v>       0.31433037       0.80948012       0.81534681 </v>
   <v>       0.55408117       0.81713675       0.81279520 </v>
   <v>       0.81626446       0.81682862       0.80861406 </v>
  </varray>
 </structure>
</modeling>
