potpaw_PBE@./ARUN.APL1ZEROSTATE         
           1
     0.000000   10.937334   10.937334
    10.937334    0.000000   10.937334
    10.937334   10.937334    0.000000
   Si
 128
Direct configuration=     1
   0.00588565  0.98973002  0.00299141
   0.23782544  0.00524343  0.01045624
   0.50171046  0.98275596  0.01148219
   0.74486193  0.00829869  0.99572969
   0.00240663  0.25189555  0.00750960
   0.25357401  0.24354805  0.01504832
   0.50941015  0.24135205  0.99532560
   0.73815865  0.26051923  0.00115299
   0.99935314  0.50349829  0.00189976
   0.25336171  0.50364812  0.99231086
   0.50302538  0.50203952  0.99654851
   0.74825934  0.50561716  0.99848850
   0.00239991  0.74327690  0.98957542
   0.25253199  0.74420223  0.99225987
   0.50036690  0.74594430  0.00566147
   0.75244371  0.75135985  0.98857034
   0.99678029  0.98659829  0.25445902
   0.23987722  0.99948556  0.24637145
   0.50546975  0.98929549  0.25731416
   0.74712703  0.99717981  0.25696878
   0.99209709  0.25142377  0.25052974
   0.23601049  0.27533146  0.24195182
   0.50783505  0.24437443  0.24186148
   0.74545915  0.24385885  0.24585993
   0.00289891  0.50677738  0.24322620
   0.25076696  0.49731162  0.25909161
   0.50483646  0.49851070  0.24771907
   0.74128684  0.49546195  0.26517369
   0.99924592  0.73994172  0.25151641
   0.24382161  0.75387901  0.24443115
   0.50955835  0.74080041  0.24624730
   0.76275892  0.73460838  0.26190383
   0.00910029  0.99008213  0.50670712
   0.25379976  0.00576103  0.49080132
   0.49185490  0.99449524  0.50475444
   0.75425802  0.00412073  0.49835477
   0.01143144  0.23852107  0.49337432
   0.25045400  0.25234322  0.50227292
   0.48983833  0.24705794  0.50759945
   0.76023512  0.23745072  0.49564883
   0.99715047  0.50008566  0.50238420
   0.24896463  0.51613002  0.49507156
   0.49809693  0.50605627  0.50591164
   0.76011376  0.49623954  0.49796169
   0.99730369  0.74746351  0.49948244
   0.25335611  0.74981002  0.49462305
   0.50983390  0.74692399  0.48848707
   0.76056405  0.73779277  0.50107105
   0.00270286  0.00331223  0.74515223
   0.25133757  0.98985863  0.76019216
   0.50086461  0.99645781  0.74842155
   0.75425694  0.00492475  0.73994387
   0.99410432  0.26940475  0.74399868
   0.24860197  0.24512760  0.75546504
   0.50709942  0.24757641  0.75436537
   0.74699787  0.23536243  0.74730476
   0.00430099  0.49492778  0.75077380
   0.24606221  0.50189791  0.74898607
   0.51427812  0.49156794  0.75814864
   0.75256835  0.50170384  0.75225942
   0.99676706  0.75319291  0.74893798
   0.24207557  0.75135846  0.75314931
   0.50026295  0.75933169  0.74829481
   0.74467728  0.75765950  0.74256317
   0.05438995  0.06349729  0.06748282
   0.31418181  0.05748489  0.06441842
   0.56607367  0.06305221  0.05122603
   0.80430505  0.06205804  0.07146132
   0.05045169  0.31521132  0.07666201
   0.32071202  0.31505602  0.05653192
   0.55774004  0.31858969  0.05987914
   0.79667993  0.31916109  0.07370527
   0.05801693  0.55863970  0.06757029
   0.32100078  0.56140192  0.05507580
   0.56587792  0.55133792  0.06457072
   0.81109161  0.55362878  0.06676385
   0.07305159  0.80234652  0.05987982
   0.32200182  0.80968901  0.06160616
   0.56680263  0.80412351  0.06509364
   0.80968666  0.81929868  0.06302319
   0.04781002  0.07258574  0.32454100
   0.30485469  0.06516660  0.31283639
   0.55365813  0.06251388  0.32154656
   0.79936326  0.06828860  0.31458053
   0.05665480  0.31858902  0.31863327
   0.30688549  0.32099896  0.29606455
   0.55727397  0.31500178  0.31158291
   0.80882246  0.31277835  0.30725195
   0.05300834  0.56397927  0.31644852
   0.31742028  0.56226955  0.31272611
   0.55532845  0.56540677  0.31650782
   0.82243180  0.55381342  0.31467913
   0.06337397  0.81358811  0.31846108
   0.32026661  0.80269964  0.31678523
   0.56334923  0.81279757  0.31184243
   0.79440960  0.82292803  0.31420690
   0.06437677  0.05890991  0.56032613
   0.31304326  0.06408774  0.56499599
   0.57075997  0.06344731  0.57378679
   0.82263093  0.05853699  0.55396210
   0.05943979  0.30897809  0.56906109
   0.32544732  0.31096572  0.55675599
   0.56990659  0.30565819  0.55299249
   0.80199976  0.30067668  0.57602185
   0.07608878  0.54885775  0.56637943
   0.31200226  0.57031421  0.55858763
   0.56857839  0.56895937  0.55612719
   0.81530807  0.56097059  0.57088898
   0.04621105  0.81390208  0.57075545
   0.31924858  0.81711502  0.55536258
   0.55795549  0.80426454  0.56949590
   0.80385212  0.81450674  0.55967278
   0.06205995  0.05024249  0.81860368
   0.31782642  0.05626731  0.80957264
   0.56518371  0.06984428  0.80665238
   0.81385815  0.05810911  0.80743972
   0.05825593  0.31476520  0.82341488
   0.31557764  0.31951924  0.80511569
   0.56244000  0.31110061  0.81653455
   0.80977252  0.31541845  0.81804705
   0.05525703  0.56149121  0.81653315
   0.31852435  0.55317184  0.81409665
   0.56385087  0.56396664  0.81900366
   0.81063833  0.56336253  0.81244770
   0.05484718  0.82255110  0.81421011
   0.31433037  0.80948012  0.81534681
   0.55408117  0.81713675  0.81279520
   0.81626446  0.81682862  0.80861406
