 128 128   0   0
  0.2044346E+02  0.1546773E-08  0.1546773E-08  0.1546773E-08  0.5000000E-15
  1.000000000000000E-004
  CAR 
 potpaw_PBE@./ARUN.APL1ZEROSTATE         
      9.32302191     -7.05223531  301      5.89786394      1.00000000
     -7.052  0.0000E+00  0.0000E+00
     -6.998  0.0000E+00  0.0000E+00
     -6.943  0.0000E+00  0.0000E+00
     -6.888  0.0000E+00  0.0000E+00
     -6.834  0.0000E+00  0.0000E+00
     -6.779  0.0000E+00  0.0000E+00
     -6.725  0.0000E+00  0.0000E+00
     -6.670  0.0000E+00  0.0000E+00
     -6.616  0.0000E+00  0.0000E+00
     -6.561  0.0000E+00  0.0000E+00
     -6.506  0.0000E+00  0.0000E+00
     -6.452  0.0000E+00  0.0000E+00
     -6.397  0.0000E+00  0.0000E+00
     -6.343  0.2061E-05  0.1125E-06
     -6.288  0.4569E+01  0.2494E+00
     -6.233  0.1145E-01  0.2500E+00
     -6.179  0.1728E+01  0.3443E+00
     -6.124  0.2228E+02  0.1560E+01
     -6.070  0.9594E+01  0.2084E+01
     -6.015  0.1727E+02  0.3027E+01
     -5.961  0.1323E+02  0.3749E+01
     -5.906  0.1887E-01  0.3750E+01
     -5.851  0.2851E+01  0.3906E+01
     -5.797  0.1964E+02  0.4978E+01
     -5.742  0.1532E+02  0.5814E+01
     -5.688  0.3090E+02  0.7500E+01
     -5.633  0.3165E+02  0.9228E+01
     -5.578  0.2024E+02  0.1033E+02
     -5.524  0.3163E+02  0.1206E+02
     -5.469  0.2727E+02  0.1355E+02
     -5.415  0.1296E+02  0.1426E+02
     -5.360  0.9055E+01  0.1475E+02
     -5.306  0.1135E-01  0.1475E+02
     -5.251  0.1642E+02  0.1565E+02
     -5.196  0.2929E+02  0.1725E+02
     -5.142  0.3162E+02  0.1897E+02
     -5.087  0.3673E+02  0.2098E+02
     -5.033  0.4243E+02  0.2329E+02
     -4.978  0.3878E+02  0.2541E+02
     -4.923  0.3933E+02  0.2755E+02
     -4.869  0.2146E+02  0.2873E+02
     -4.814  0.1172E+02  0.2937E+02
     -4.760  0.2241E+02  0.3059E+02
     -4.705  0.3743E+02  0.3263E+02
     -4.651  0.4003E+02  0.3482E+02
     -4.596  0.3989E+02  0.3699E+02
     -4.541  0.3488E+02  0.3890E+02
     -4.487  0.2799E+02  0.4043E+02
     -4.432  0.3996E+02  0.4261E+02
     -4.378  0.1400E+02  0.4337E+02
     -4.323  0.1188E+02  0.4402E+02
     -4.268  0.3618E+02  0.4599E+02
     -4.214  0.4260E+02  0.4832E+02
     -4.159  0.6549E+02  0.5189E+02
     -4.105  0.6207E+02  0.5528E+02
     -4.050  0.5321E+02  0.5819E+02
     -3.996  0.5960E+02  0.6144E+02
     -3.941  0.5872E+02  0.6465E+02
     -3.886  0.5009E+02  0.6738E+02
     -3.832  0.3984E+02  0.6955E+02
     -3.777  0.7065E+02  0.7341E+02
     -3.723  0.5034E+02  0.7616E+02
     -3.668  0.3166E+02  0.7789E+02
     -3.613  0.2774E+02  0.7940E+02
     -3.559  0.2904E+02  0.8099E+02
     -3.504  0.4688E+02  0.8355E+02
     -3.450  0.5904E+02  0.8677E+02
     -3.395  0.4970E+02  0.8948E+02
     -3.341  0.5251E+02  0.9235E+02
     -3.286  0.4041E+02  0.9455E+02
     -3.231  0.3231E+02  0.9632E+02
     -3.177  0.3698E+02  0.9834E+02
     -3.122  0.2746E+02  0.9983E+02
     -3.068  0.4736E+02  0.1024E+03
     -3.013  0.5130E+02  0.1052E+03
     -2.958  0.4241E+02  0.1075E+03
     -2.904  0.3998E+02  0.1097E+03
     -2.849  0.3638E+02  0.1117E+03
     -2.795  0.2804E+02  0.1132E+03
     -2.740  0.2686E+02  0.1147E+03
     -2.686  0.4797E+02  0.1173E+03
     -2.631  0.3267E+02  0.1191E+03
     -2.576  0.2743E+02  0.1206E+03
     -2.522  0.1694E+02  0.1215E+03
     -2.467  0.1793E+02  0.1225E+03
     -2.413  0.4554E+01  0.1227E+03
     -2.358  0.5269E+00  0.1228E+03
     -2.303  0.8354E+01  0.1232E+03
     -2.249  0.1140E+02  0.1239E+03
     -2.194  0.1857E+02  0.1249E+03
     -2.140  0.2642E+02  0.1263E+03
     -2.085  0.2318E+02  0.1276E+03
     -2.030  0.3431E+02  0.1295E+03
     -1.976  0.2774E+02  0.1310E+03
     -1.921  0.2349E+02  0.1322E+03
     -1.867  0.9096E+01  0.1327E+03
     -1.812  0.4704E+01  0.1330E+03
     -1.758  0.2910E+01  0.1332E+03
     -1.703  0.6250E+01  0.1335E+03
     -1.648  0.4592E+01  0.1338E+03
     -1.594  0.1576E+02  0.1346E+03
     -1.539  0.4900E+02  0.1373E+03
     -1.485  0.4088E+02  0.1395E+03
     -1.430  0.3320E+02  0.1413E+03
     -1.375  0.2745E+02  0.1428E+03
     -1.321  0.5349E+02  0.1457E+03
     -1.266  0.7090E+02  0.1496E+03
     -1.212  0.5547E+02  0.1526E+03
     -1.157  0.7080E+02  0.1565E+03
     -1.103  0.5324E+02  0.1594E+03
     -1.048  0.6178E+02  0.1628E+03
     -0.993  0.6638E+02  0.1664E+03
     -0.939  0.8682E+02  0.1711E+03
     -0.884  0.4861E+02  0.1738E+03
     -0.830  0.5816E+02  0.1770E+03
     -0.775  0.6267E+02  0.1804E+03
     -0.720  0.5006E+02  0.1831E+03
     -0.666  0.3855E+02  0.1852E+03
     -0.611  0.3307E+02  0.1870E+03
     -0.557  0.3801E+02  0.1891E+03
     -0.502  0.1620E+02  0.1900E+03
     -0.448  0.1023E+02  0.1906E+03
     -0.393  0.2532E+02  0.1919E+03
     -0.338  0.4912E+02  0.1946E+03
     -0.284  0.6270E+02  0.1980E+03
     -0.229  0.4901E+02  0.2007E+03
     -0.175  0.5379E+02  0.2037E+03
     -0.120  0.5370E+02  0.2066E+03
     -0.065  0.3281E+02  0.2084E+03
     -0.011  0.4386E+02  0.2108E+03
      0.044  0.2480E+02  0.2121E+03
      0.098  0.2439E+02  0.2135E+03
      0.153  0.1108E+02  0.2141E+03
      0.207  0.8104E+01  0.2145E+03
      0.262  0.1444E+02  0.2153E+03
      0.317  0.2314E+02  0.2166E+03
      0.371  0.3099E+02  0.2182E+03
      0.426  0.2453E+02  0.2196E+03
      0.480  0.2046E+02  0.2207E+03
      0.535  0.1480E+02  0.2215E+03
      0.590  0.2477E+02  0.2229E+03
      0.644  0.2742E+02  0.2244E+03
      0.699  0.1766E+02  0.2253E+03
      0.753  0.2214E+02  0.2265E+03
      0.808  0.1055E+02  0.2271E+03
      0.862  0.7211E+01  0.2275E+03
      0.917  0.2251E+02  0.2287E+03
      0.972  0.2086E+02  0.2299E+03
      1.026  0.2826E+02  0.2314E+03
      1.081  0.1544E+02  0.2323E+03
      1.135  0.2236E+02  0.2335E+03
      1.190  0.3602E+02  0.2354E+03
      1.245  0.2332E+02  0.2367E+03
      1.299  0.2684E+02  0.2382E+03
      1.354  0.2676E+02  0.2396E+03
      1.408  0.3930E+02  0.2418E+03
      1.463  0.6296E+02  0.2452E+03
      1.517  0.9107E+02  0.2502E+03
      1.572  0.8095E+02  0.2546E+03
      1.627  0.8333E+02  0.2592E+03
      1.681  0.8160E+02  0.2636E+03
      1.736  0.5361E+02  0.2665E+03
      1.790  0.5102E+02  0.2693E+03
      1.845  0.4736E+02  0.2719E+03
      1.900  0.2312E+02  0.2732E+03
      1.954  0.1736E+02  0.2741E+03
      2.009  0.1845E+02  0.2751E+03
      2.063  0.5562E+02  0.2782E+03
      2.118  0.1001E+03  0.2836E+03
      2.172  0.1024E+03  0.2892E+03
      2.227  0.1171E+03  0.2956E+03
      2.282  0.1120E+03  0.3017E+03
      2.336  0.1227E+03  0.3084E+03
      2.391  0.1041E+03  0.3141E+03
      2.445  0.8537E+02  0.3188E+03
      2.500  0.5436E+02  0.3217E+03
      2.555  0.3485E+02  0.3236E+03
      2.609  0.2853E+02  0.3252E+03
      2.664  0.5792E+02  0.3283E+03
      2.718  0.7137E+02  0.3322E+03
      2.773  0.8196E+02  0.3367E+03
      2.828  0.1081E+03  0.3426E+03
      2.882  0.9904E+02  0.3480E+03
      2.937  0.9584E+02  0.3533E+03
      2.991  0.9047E+02  0.3582E+03
      3.046  0.1079E+03  0.3641E+03
      3.100  0.9332E+02  0.3692E+03
      3.155  0.6873E+02  0.3729E+03
      3.210  0.6442E+02  0.3764E+03
      3.264  0.9954E+02  0.3819E+03
      3.319  0.9630E+02  0.3871E+03
      3.373  0.8773E+02  0.3919E+03
      3.428  0.8978E+02  0.3968E+03
      3.483  0.8671E+02  0.4016E+03
      3.537  0.9368E+02  0.4067E+03
      3.592  0.8847E+02  0.4115E+03
      3.646  0.7493E+02  0.4156E+03
      3.701  0.5898E+02  0.4188E+03
      3.755  0.8352E+02  0.4234E+03
      3.810  0.8889E+02  0.4282E+03
      3.865  0.8744E+02  0.4330E+03
      3.919  0.8403E+02  0.4376E+03
      3.974  0.5502E+02  0.4406E+03
      4.028  0.5521E+02  0.4436E+03
      4.083  0.6917E+02  0.4474E+03
      4.138  0.6687E+02  0.4510E+03
      4.192  0.7571E+02  0.4552E+03
      4.247  0.7868E+02  0.4595E+03
      4.301  0.7536E+02  0.4636E+03
      4.356  0.8210E+02  0.4680E+03
      4.410  0.5921E+02  0.4713E+03
      4.465  0.8366E+02  0.4758E+03
      4.520  0.6201E+02  0.4792E+03
      4.574  0.6588E+02  0.4828E+03
      4.629  0.5818E+02  0.4860E+03
      4.683  0.4531E+02  0.4885E+03
      4.738  0.3376E+02  0.4903E+03
      4.793  0.2365E+02  0.4916E+03
      4.847  0.2452E+02  0.4929E+03
      4.902  0.4066E+02  0.4952E+03
      4.956  0.3354E+02  0.4970E+03
      5.011  0.3835E+02  0.4991E+03
      5.065  0.4071E+02  0.5013E+03
      5.120  0.2478E+02  0.5027E+03
      5.175  0.2001E+02  0.5038E+03
      5.229  0.4470E+01  0.5040E+03
      5.284  0.3590E+01  0.5042E+03
      5.338  0.1008E+02  0.5047E+03
      5.393  0.2556E+02  0.5061E+03
      5.448  0.3339E+02  0.5080E+03
      5.502  0.1912E+02  0.5090E+03
      5.557  0.1957E+02  0.5101E+03
      5.611  0.7767E+01  0.5105E+03
      5.666  0.1534E+02  0.5113E+03
      5.720  0.2978E+01  0.5115E+03
      5.775  0.4070E+01  0.5117E+03
      5.830  0.3385E+01  0.5119E+03
      5.884  0.1705E+01  0.5120E+03
      5.939  0.0000E+00  0.5120E+03
      5.993  0.0000E+00  0.5120E+03
      6.048  0.0000E+00  0.5120E+03
      6.103  0.1400E+00  0.5120E+03
      6.157  0.1237E+02  0.5127E+03
      6.212  0.1882E+02  0.5137E+03
      6.266  0.1372E+02  0.5145E+03
      6.321  0.1785E+02  0.5154E+03
      6.375  0.1565E+02  0.5163E+03
      6.430  0.3682E+02  0.5183E+03
      6.485  0.2895E+02  0.5199E+03
      6.539  0.1747E+02  0.5208E+03
      6.594  0.1682E+02  0.5217E+03
      6.648  0.8968E+01  0.5222E+03
      6.703  0.3967E+02  0.5244E+03
      6.758  0.2584E+02  0.5258E+03
      6.812  0.3369E+02  0.5277E+03
      6.867  0.3182E+02  0.5294E+03
      6.921  0.2518E+02  0.5308E+03
      6.976  0.3575E+02  0.5327E+03
      7.030  0.5213E+02  0.5356E+03
      7.085  0.3652E+02  0.5376E+03
      7.140  0.3365E+02  0.5394E+03
      7.194  0.2154E+02  0.5406E+03
      7.249  0.4970E+02  0.5433E+03
      7.303  0.6378E+02  0.5468E+03
      7.358  0.7711E+02  0.5510E+03
      7.413  0.7970E+02  0.5553E+03
      7.467  0.8182E+02  0.5598E+03
      7.522  0.1050E+03  0.5655E+03
      7.576  0.6962E+02  0.5693E+03
      7.631  0.9340E+02  0.5744E+03
      7.685  0.7364E+02  0.5784E+03
      7.740  0.8971E+02  0.5833E+03
      7.795  0.9473E+02  0.5885E+03
      7.849  0.9683E+02  0.5938E+03
      7.904  0.9808E+02  0.5991E+03
      7.958  0.8513E+02  0.6038E+03
      8.013  0.9463E+02  0.6090E+03
      8.068  0.8417E+02  0.6136E+03
      8.122  0.7614E+02  0.6177E+03
      8.177  0.8133E+02  0.6221E+03
      8.231  0.8006E+02  0.6265E+03
      8.286  0.9412E+02  0.6317E+03
      8.341  0.7236E+02  0.6356E+03
      8.395  0.8188E+02  0.6401E+03
      8.450  0.5377E+02  0.6430E+03
      8.504  0.4423E+01  0.6432E+03
      8.559  0.2317E+01  0.6434E+03
      8.613  0.1142E+02  0.6440E+03
      8.668  0.0000E+00  0.6440E+03
      8.723  0.0000E+00  0.6440E+03
      8.777  0.0000E+00  0.6440E+03
      8.832  0.0000E+00  0.6440E+03
      8.886  0.0000E+00  0.6440E+03
      8.941  0.0000E+00  0.6440E+03
      8.996  0.0000E+00  0.6440E+03
      9.050  0.0000E+00  0.6440E+03
      9.105  0.0000E+00  0.6440E+03
      9.159  0.0000E+00  0.6440E+03
      9.214  0.0000E+00  0.6440E+03
      9.268  0.0000E+00  0.6440E+03
      9.323  0.0000E+00  0.6440E+03
