 vasp.5.4.4.18Apr17-6-g9f103f2a35 (build Nov 08 2017 09:05:29) complex          
  
 executed on          Intel_17.33 date 2020.07.18  21:13:41
 running on   32 total cores
 distrk:  each k-point on   32 cores,    1 groups
 distr:  one band on NCORES_PER_BAND=  16 cores,    2 groups


--------------------------------------------------------------------------------------------------------


 INCAR:
 POTCAR:   PAW_PBE Si 05Jan2001                   

 ----------------------------------------------------------------------------- 
|                                                                             |
|           W    W    AA    RRRRR   N    N  II  N    N   GGGG   !!!           |
|           W    W   A  A   R    R  NN   N  II  NN   N  G    G  !!!           |
|           W    W  A    A  R    R  N N  N  II  N N  N  G       !!!           |
|           W WW W  AAAAAA  RRRRR   N  N N  II  N  N N  G  GGG   !            |
|           WW  WW  A    A  R   R   N   NN  II  N   NN  G    G                |
|           W    W  A    A  R    R  N    N  II  N    N   GGGG   !!!           |
|                                                                             |
|      For optimal performance we recommend to set                            |
|        NCORE= 4 - approx SQRT( number of cores)                             |
|      NCORE specifies how many cores store one orbital (NPAR=cpu/NCORE).     |
|      This setting can  greatly improve the performance of VASP for DFT.     |
|      The default,   NCORE=1            might be grossly inefficient         |
|      on modern multi-core architectures or massively parallel machines.     |
|      Do your own testing !!!!                                               |
|      Unfortunately you need to use the default for GW and RPA calculations. |
|      (for HF NCORE is supported but not extensively tested yet)             |
|                                                                             |
 ----------------------------------------------------------------------------- 

 POTCAR:   PAW_PBE Si 05Jan2001                   
   VRHFIN =Si: s2p2                                                             
   LEXCH  = PE                                                                  
   EATOM  =   103.0669 eV,    7.5752 Ry                                         
                                                                                
   TITEL  = PAW_PBE Si 05Jan2001                                                
   LULTRA =        F    use ultrasoft PP ?                                      
   IUNSCR =        1    unscreen: 0-lin 1-nonlin 2-no                           
   RPACOR =    1.500    partial core radius                                     
   POMASS =   28.085; ZVAL   =    4.000    mass and valenz                      
   RCORE  =    1.900    outmost cutoff radius                                   
   RWIGS  =    2.480; RWIGS  =    1.312    wigner-seitz radius (au A)           
   ENMAX  =  245.345; ENMIN  =  184.009 eV                                      
   ICORE  =        2    local potential                                         
   LCOR   =        T    correct aug charges                                     
   LPAW   =        T    paw PP                                                  
   EAUG   =  322.069                                                            
   DEXC   =    -.007                                                            
   RMAX   =    2.944    core radius for proj-oper                               
   RAUG   =    1.300    factor for augmentation sphere                          
   RDEP   =    1.993    radius for radial grids                                 
   QCUT   =   -4.246; QGAM   =    8.493    optimization parameters              
                                                                                
   Description                                                                  
     l     E      TYP  RCUT    TYP  RCUT                                        
     0   .000     23  1.900                                                     
     0   .000     23  1.900                                                     
     1   .000     23  1.900                                                     
     1   .000     23  1.900                                                     
     2   .000      7  1.900                                                     
  local pseudopotential read in
  partial core-charges read in
  atomic valenz-charges read in
  non local Contribution for L=           0  read in
    real space projection operators read in
  non local Contribution for L=           0  read in
    real space projection operators read in
  non local Contribution for L=           1  read in
    real space projection operators read in
  non local Contribution for L=           1  read in
    real space projection operators read in
    PAW grid and wavefunctions read in
 
   number of l-projection  operators is LMAX  =           4
   number of lm-projection operators is LMMAX =           8
 

 ----------------------------------------------------------------------------- 
|                                                                             |
|  ADVICE TO THIS USER RUNNING 'VASP/VAMP'   (HEAR YOUR MASTER'S VOICE ...):  |
|                                                                             |
|      You have a (more or less) 'large supercell' and for larger cells       |
|      it might be more efficient to use real space projection operators      |
|      So try LREAL= Auto  in the INCAR   file.                               |
|      Mind: If you want to do a very accurate calculations keep the          |
|      reciprocal projection scheme          (i.e. LREAL=.FALSE.)             |
|                                                                             |
 ----------------------------------------------------------------------------- 

 PAW_PBE Si 05Jan2001                   :
 energy of atom  1       EATOM= -103.0669
 kinetic energy error for atom=    0.0006 (will be added to EATOM!!)
 
 
 POSCAR: kk                                      
  positions in direct lattice
  No initial velocities read in
 exchange correlation table for  LEXCH =        8
   RHO(1)=    0.500       N(1)  =     2000
   RHO(2)=  100.500       N(2)  =     4000
 


--------------------------------------------------------------------------------------------------------


 ion  position               nearest neighbor table
   1  0.997  0.002  0.005-  65 2.30  68 2.32  77 2.39 113 2.46
   2  0.260  0.987  0.005-  66 2.22  78 2.29 114 2.48  65 2.50
   3  0.489  0.011  0.995- 115 2.33  66 2.37  67 2.49  79 2.66
   4  0.743  0.000  0.007- 116 2.25  80 2.40  67 2.41  68 2.52
   5  0.993  0.251  0.005-  72 2.28  65 2.38  69 2.40 117 2.52
   6  0.252  0.251  0.001-  66 2.30  70 2.31  69 2.35 118 2.49
   7  0.504  0.249  0.981- 119 2.17  67 2.30  70 2.35  71 2.44
   8  0.765  0.252  0.997-  72 2.20  68 2.25 120 2.34  71 2.67
   9  0.001  0.502  0.988- 121 2.24  69 2.35  76 2.44  73 2.53
  10  0.247  0.507  0.014-  74 2.26  73 2.29  70 2.50 122 2.54
  11  0.492  0.490  0.008-  74 2.19 123 2.31  71 2.34  75 2.51
  12  0.761  0.490  0.001-  76 2.32  72 2.34 124 2.40  75 2.43
  13  0.998  0.765  0.992-  80 2.30 125 2.34  77 2.35  73 2.61
  14  0.250  0.752  0.999-  74 2.24  77 2.27  78 2.28 126 2.39
  15  0.499  0.750  0.997-  78 2.30 127 2.30  79 2.35  75 2.38
  16  0.742  0.754  0.997-  79 2.20 128 2.25  76 2.34  80 2.57
  17  0.020  0.991  0.243-  65 2.31  93 2.33  81 2.47  84 2.67
  18  0.253  0.995  0.244-  81 2.25  94 2.31  66 2.41  82 2.57
  19  0.495  0.007  0.254-  82 2.22  67 2.32  83 2.35  95 2.48
  20  0.758  0.995  0.248-  96 2.20  84 2.32  68 2.36  83 2.60
  21  0.994  0.252  0.248-  88 2.31  85 2.33  69 2.44  81 2.47
  22  0.246  0.241  0.253-  82 2.14  86 2.36  85 2.38  70 2.46
  23  0.496  0.257  0.245-  71 2.26  86 2.33  83 2.36  87 2.48
  24  0.753  0.247  0.252-  84 2.25  88 2.29  72 2.30  87 2.41
  25  0.010  0.494  0.256-  89 2.34  85 2.37  73 2.40  92 2.59
  26  0.256  0.506  0.243-  90 2.23  89 2.41  74 2.46  86 2.56
  27  0.492  0.507  0.246-  75 2.38  87 2.40  90 2.43  91 2.47
  28  0.740  0.512  0.248-  92 2.24  91 2.34  76 2.40  88 2.42
  29  0.995  0.744  0.248-  96 2.33  89 2.40  93 2.41  77 2.43
  30  0.254  0.748  0.254-  90 2.25  94 2.25  78 2.47  93 2.55
  31  0.510  0.745  0.250-  95 2.19  91 2.24  79 2.38  94 2.54
  32  0.744  0.760  0.252-  80 2.31  96 2.34  95 2.36  92 2.48
  33  0.005  0.007  0.489-  81 2.18 109 2.23  97 2.42 100 2.51
  34  0.248  0.994  0.499- 110 2.33  97 2.37  98 2.43  82 2.49
  35  0.500  0.001  0.500-  98 2.24  99 2.29  83 2.29 111 2.44
  36  0.755  0.997  0.504- 100 2.30  99 2.34 112 2.35  84 2.50
  37  0.994  0.246  0.497-  97 2.24 104 2.24  85 2.33 101 2.55
  38  0.253  0.253  0.497- 102 2.26  86 2.35  98 2.38 101 2.52
  39  0.491  0.246  0.509- 102 2.30  99 2.35 103 2.46  87 2.48
  40  0.743  0.267  0.491- 104 2.25 103 2.36  88 2.40 100 2.56
  41  0.990  0.498  0.510- 101 2.26 105 2.32  89 2.36 108 2.50
  42  0.244  0.495  0.504- 105 2.31  90 2.45 102 2.45 106 2.48
  43  0.500  0.501  0.508- 103 2.34 107 2.38 106 2.40  91 2.40
  44  0.754  0.489  0.502- 107 2.26 104 2.41  92 2.46 108 2.50
  45  0.008  0.757  0.495-  93 2.28 109 2.34 112 2.42 105 2.62
  46  0.240  0.757  0.516- 110 2.22 109 2.37 106 2.50  94 2.55
  47  0.508  0.728  0.510- 107 2.28 111 2.36 110 2.43  95 2.57
  48  0.742  0.748  0.501- 108 2.22 111 2.30  96 2.44 112 2.44
  49  0.996  0.003  0.749-  97 2.37 113 2.39 116 2.40 125 2.44
  50  0.249  0.007  0.751- 114 2.17 113 2.32 126 2.48  98 2.63
  51  0.505  0.006  0.744- 115 2.22  99 2.46 114 2.51 127 2.59
  52  0.760  0.995  0.748- 128 2.28 100 2.30 116 2.32 115 2.50
  53  0.995  0.251  0.750- 120 2.21 101 2.32 113 2.41 117 2.50
  54  0.244  0.258  0.758- 117 2.19 118 2.25 102 2.37 114 2.48
  55  0.501  0.251  0.760- 119 2.29 118 2.29 103 2.41 115 2.46
  56  0.740  0.252  0.757- 119 2.22 104 2.49 120 2.53 116 2.57
  57  0.990  0.515  0.751- 124 2.18 105 2.30 121 2.36 117 2.52
  58  0.252  0.498  0.753- 106 2.31 122 2.33 118 2.35 121 2.35
  59  0.512  0.487  0.755- 119 2.14 107 2.30 123 2.33 122 2.53
  60  0.744  0.501  0.756- 108 2.29 123 2.32 120 2.33 124 2.40
  61  0.014  0.742  0.751- 121 2.24 125 2.27 109 2.43 128 2.73
  62  0.267  0.753  0.743- 126 2.15 110 2.30 122 2.44 125 2.49
  63  0.502  0.747  0.744- 111 2.27 127 2.38 126 2.42 123 2.45
  64  0.749  0.744  0.759- 128 2.29 124 2.31 127 2.32 112 2.57
  65  0.063  0.063  0.061-   1 2.30  17 2.31   5 2.38   2 2.50
  66  0.301  0.071  0.054-   2 2.22   6 2.30   3 2.37  18 2.41
  67  0.553  0.070  0.071-   7 2.30  19 2.32   4 2.41   3 2.49
  68  0.813  0.074  0.062-   8 2.25   1 2.32  20 2.36   4 2.52
  69  0.066  0.316  0.055-   6 2.35   9 2.35   5 2.40  21 2.44
  70  0.319  0.310  0.059-   6 2.31   7 2.35  22 2.46  10 2.50
  71  0.555  0.305  0.066-  23 2.26  11 2.34   7 2.44   8 2.67
  72  0.812  0.305  0.070-   8 2.20   5 2.28  24 2.30  12 2.34
  73  0.067  0.559  0.066-  10 2.29  25 2.40   9 2.53  13 2.61
  74  0.322  0.575  0.048-  11 2.19  14 2.24  10 2.26  26 2.46
  75  0.569  0.561  0.058-  15 2.38  27 2.38  12 2.43  11 2.51
  76  0.809  0.569  0.058-  12 2.32  16 2.34  28 2.40   9 2.44
  77  0.071  0.813  0.056-  14 2.27  13 2.35   1 2.39  29 2.43
  78  0.317  0.806  0.059-  14 2.28   2 2.29  15 2.30  30 2.47
  79  0.569  0.801  0.062-  16 2.20  15 2.35  31 2.38   3 2.66
  80  0.817  0.810  0.069-  13 2.30  32 2.31   4 2.40  16 2.57
  81  0.075  0.058  0.316-  33 2.18  18 2.25  21 2.47  17 2.47
  82  0.320  0.072  0.302-  22 2.14  19 2.22  34 2.49  18 2.57
  83  0.553  0.071  0.319-  35 2.29  19 2.35  23 2.36  20 2.60
  84  0.809  0.069  0.307-  24 2.25  20 2.32  36 2.50  17 2.67
  85  0.058  0.308  0.313-  37 2.33  21 2.33  25 2.37  22 2.38
  86  0.312  0.304  0.312-  23 2.33  38 2.35  22 2.36  26 2.56
  87  0.563  0.317  0.313-  27 2.40  24 2.41  23 2.48  39 2.48
  88  0.812  0.320  0.301-  24 2.29  21 2.31  40 2.40  28 2.42
  89  0.065  0.555  0.324-  25 2.34  41 2.36  29 2.40  26 2.41
  90  0.299  0.571  0.310-  26 2.23  30 2.25  27 2.43  42 2.45
  91  0.555  0.568  0.317-  31 2.24  28 2.34  43 2.40  27 2.47
  92  0.806  0.563  0.308-  28 2.24  44 2.46  32 2.48  25 2.59
  93  0.053  0.809  0.315-  45 2.28  17 2.33  29 2.41  30 2.55
  94  0.310  0.812  0.314-  30 2.25  18 2.31  31 2.54  46 2.55
  95  0.558  0.811  0.308-  31 2.19  32 2.36  19 2.48  47 2.57
  96  0.812  0.821  0.308-  20 2.20  29 2.33  32 2.34  48 2.44
  97  0.061  0.069  0.562-  37 2.24  34 2.37  49 2.37  33 2.42
  98  0.324  0.065  0.543-  35 2.24  38 2.38  34 2.43  50 2.63
  99  0.571  0.061  0.550-  35 2.29  36 2.34  39 2.35  51 2.46
 100  0.807  0.064  0.567-  52 2.30  36 2.30  33 2.51  40 2.56
 101  0.054  0.319  0.566-  41 2.26  53 2.32  38 2.52  37 2.55
 102  0.309  0.301  0.571-  38 2.26  39 2.30  54 2.37  42 2.45
 103  0.557  0.315  0.569-  43 2.34  40 2.36  55 2.41  39 2.46
 104  0.817  0.298  0.561-  37 2.24  40 2.25  44 2.41  56 2.49
 105  0.061  0.550  0.571-  57 2.30  42 2.31  41 2.32  45 2.62
 106  0.310  0.560  0.570-  58 2.31  43 2.40  42 2.48  46 2.50
 107  0.575  0.548  0.573-  44 2.26  47 2.28  59 2.30  43 2.38
 108  0.793  0.573  0.575-  48 2.22  60 2.29  41 2.50  44 2.50
 109  0.053  0.831  0.561-  33 2.23  45 2.34  46 2.37  61 2.43
 110  0.316  0.810  0.561-  46 2.22  62 2.30  34 2.33  47 2.43
 111  0.560  0.808  0.564-  63 2.27  48 2.30  47 2.36  35 2.44
 112  0.817  0.811  0.555-  36 2.35  45 2.42  48 2.44  64 2.57
 113  0.066  0.061  0.811-  50 2.32  49 2.39  53 2.41   1 2.46
 114  0.306  0.062  0.810-  50 2.17   2 2.48  54 2.48  51 2.51
 115  0.562  0.058  0.811-  51 2.22   3 2.33  55 2.46  52 2.50
 116  0.807  0.049  0.829-   4 2.25  52 2.32  49 2.40  56 2.57
 117  0.072  0.316  0.805-  54 2.19  53 2.50  57 2.52   5 2.52
 118  0.320  0.312  0.804-  54 2.25  55 2.29  58 2.35   6 2.49
 119  0.564  0.318  0.811-  59 2.14   7 2.17  56 2.22  55 2.29
 120  0.820  0.317  0.812-  53 2.21  60 2.33   8 2.34  56 2.53
 121  0.066  0.565  0.811-  61 2.24   9 2.24  58 2.35  57 2.36
 122  0.312  0.561  0.814-  58 2.33  62 2.44  59 2.53  10 2.54
 123  0.560  0.554  0.825-  11 2.31  60 2.32  59 2.33  63 2.45
 124  0.817  0.561  0.812-  57 2.18  64 2.31  12 2.40  60 2.40
 125  0.070  0.810  0.808-  61 2.27  13 2.34  49 2.44  62 2.49
 126  0.311  0.812  0.810-  62 2.15  14 2.39  63 2.42  50 2.48
 127  0.565  0.801  0.815-  15 2.30  64 2.32  63 2.38  51 2.59
 128  0.798  0.816  0.819-  16 2.25  52 2.28  64 2.29  61 2.73
 
  LATTYP: Found a face centered cubic cell.
 ALAT       =    21.8746673814
  
  Lattice vectors:
  
 A1 = (   0.0000000000,  10.9373336907,  10.9373336907)
 A2 = (  10.9373336907,   0.0000000000,  10.9373336907)
 A3 = (  10.9373336907,  10.9373336907,   0.0000000000)


Analysis of symmetry for initial positions (statically):
=====================================================================
 Subroutine PRICEL returns:
 Original cell was already a primitive cell.
 

 Routine SETGRP: Setting up the symmetry group for a 
 face centered cubic supercell.


 Subroutine GETGRP returns: Found  1 space group operations
 (whereof  1 operations were pure point group operations)
 out of a pool of 48 trial point group operations.


The static configuration has the point symmetry C_1 .


Analysis of symmetry for dynamics (positions and initial velocities):
=====================================================================
 Subroutine PRICEL returns:
 Original cell was already a primitive cell.
 

 Routine SETGRP: Setting up the symmetry group for a 
 face centered cubic supercell.


 Subroutine GETGRP returns: Found  1 space group operations
 (whereof  1 operations were pure point group operations)
 out of a pool of 48 trial point group operations.


The dynamic configuration has the point symmetry C_1 .


 Subroutine INISYM returns: Found  1 space group operations
 (whereof  1 operations are pure point group operations),
 and found     1 'primitive' translations

 
 
 KPOINTS: KPOINTS File, automatically generated by

Automatic generation of k-mesh.
Space group operators:
 irot       det(A)        alpha          n_x          n_y          n_z        tau_x        tau_y        tau_z
    1     1.000000     0.000001     1.000000     0.000000     0.000000     0.000000     0.000000     0.000000
 
 Subroutine IBZKPT returns following result:
 ===========================================
 
 Found      8 irreducible k-points:
 
 Following reciprocal coordinates:
            Coordinates               Weight
  0.000000  0.000000  0.000000      1.000000
  0.500000  0.000000  0.000000      1.000000
  0.000000  0.500000  0.000000      1.000000
  0.500000  0.500000  0.000000      1.000000
  0.000000  0.000000  0.500000      1.000000
  0.500000  0.000000  0.500000      1.000000
  0.000000  0.500000  0.500000      1.000000
  0.500000  0.500000  0.500000      1.000000
 
 Following cartesian coordinates:
            Coordinates               Weight
  0.000000  0.000000  0.000000      1.000000
 -0.022857  0.022857  0.022857      1.000000
  0.022857 -0.022857  0.022857      1.000000
  0.000000  0.000000  0.045715      1.000000
  0.022857  0.022857 -0.022857      1.000000
  0.000000  0.045715  0.000000      1.000000
  0.045715  0.000000  0.000000      1.000000
  0.022857  0.022857  0.022857      1.000000
 


--------------------------------------------------------------------------------------------------------




 Dimension of arrays:
   k-points           NKPTS =      8   k-points in BZ     NKDIM =      8   number of bands    NBANDS=    322
   number of dos      NEDOS =    301   number of ions     NIONS =    128
   non local maximal  LDIM  =      4   non local SUM 2l+1 LMDIM =      8
   total plane-waves  NPLWV = ******
   max r-space proj   IRMAX =      1   max aug-charges    IRDMAX= 176811
   dimension x,y,z NGX =   120 NGY =  120 NGZ =  120
   dimension x,y,z NGXF=   240 NGYF=  240 NGZF=  240
   support grid    NGXF=   480 NGYF=  480 NGZF=  480
   ions per type =             128
   NGX,Y,Z   is equivalent  to a cutoff of  12.90, 12.90, 12.90 a.u.
   NGXF,Y,Z  is equivalent  to a cutoff of  25.80, 25.80, 25.80 a.u.

 SYSTEM =  potpaw_PBE@./ARUN.APL1ZEROSTATE         
 POSCAR =  kk                                      

 Startparameter for this run:
   NWRITE =      2    write-flag & timer
   PREC   = accura    normal or accurate (medium, high low for compatibility)
   ISTART =      0    job   : 0-new  1-cont  2-samecut
   ICHARG =      2    charge: 1-file 2-atom 10-const
   ISPIN  =      1    spin polarized calculation?
   LNONCOLLINEAR =      F non collinear calculations
   LSORBIT =      F    spin-orbit coupling
   INIWAV =      1    electr: 0-lowe 1-rand  2-diag
   LASPH  =      F    aspherical Exc in radial PAW
   METAGGA=      F    non-selfconsistent MetaGGA calc.

 Electronic Relaxation 1
   ENCUT  =  500.0 eV  36.75 Ry    6.06 a.u.  28.20 28.20 28.20*2*pi/ulx,y,z
   ENINI  =  500.0     initial cutoff
   ENAUG  =  322.1 eV  augmentation charge cutoff
   NELM   =    120;   NELMIN=  4; NELMDL= -5     # of ELM steps 
   EDIFF  = 0.1E-07   stopping-criterion for ELM
   LREAL  =      F    real-space projection
   NLSPLINE    = F    spline interpolate recip. space projectors
   LCOMPAT=      F    compatible to vasp.4.4
   GGA_COMPAT  = T    GGA compatible to vasp.4.4-vasp.4.6
   LMAXPAW     = -100 max onsite density
   LMAXMIX     =    2 max onsite mixed and CHGCAR
   VOSKOWN=      0    Vosko Wilk Nusair interpolation
   ROPT   =    0.00000
 Ionic relaxation
   EDIFFG = 0.1E-06   stopping-criterion for IOM
   NSW    =      0    number of steps for IOM
   NBLOCK =      1;   KBLOCK =      1    inner block; outer block 
   IBRION =     -1    ionic relax: 0-MD 1-quasi-New 2-CG
   NFREE  =      0    steps in history (QN), initial steepest desc. (CG)
   ISIF   =      2    stress and relaxation
   IWAVPR =     10    prediction:  0-non 1-charg 2-wave 3-comb
   ISYM   =      2    0-nonsym 1-usesym 2-fastsym
   LCORR  =      T    Harris-Foulkes like correction to forces

   POTIM  = 0.5000    time-step for ionic-motion
   TEIN   =    0.0    initial temperature
   TEBEG  =    0.0;   TEEND  =   0.0 temperature during run
   SMASS  =  -3.00    Nose mass-parameter (am)
   estimated Nose-frequenzy (Omega)   =  0.10E-29 period in steps =****** mass=  -0.547E-26a.u.
   SCALEE = 1.0000    scale energy and forces
   NPACO  =    256;   APACO  = 16.0  distance and # of slots for P.C.
   PSTRESS=    0.0 pullay stress

  Mass of Ions in am
   POMASS =  28.09
  Ionic Valenz
   ZVAL   =   4.00
  Atomic Wigner-Seitz radii
   RWIGS  =  -1.00
  virtual crystal weights 
   VCA    =   1.00
   NELECT =     512.0000    total number of electrons
   NUPDOWN=      -1.0000    fix difference up-down

 DOS related values:
   EMIN   =  10.00;   EMAX   =-10.00  energy-range for DOS
   EFERMI =   0.00
   ISMEAR =     0;   SIGMA  =   0.01  broadening in eV -4-tet -1-fermi 0-gaus

 Electronic relaxation 2 (details)
   IALGO  =     38    algorithm
   LDIAG  =      T    sub-space diagonalisation (order eigenvalues)
   LSUBROT=      F    optimize rotation matrix (better conditioning)
   TURBO    =      0    0=normal 1=particle mesh
   IRESTART =      0    0=no restart 2=restart with 2 vectors
   NREBOOT  =      0    no. of reboots
   NMIN     =      0    reboot dimension
   EREF     =   0.00    reference energy to select bands
   IMIX   =      4    mixing-type and parameters
     AMIX     =   0.40;   BMIX     =  1.00
     AMIX_MAG =   1.60;   BMIX_MAG =  1.00
     AMIN     =   0.10
     WC   =   100.;   INIMIX=   1;  MIXPRE=   1;  MAXMIX= -45

 Intra band minimization:
   WEIMIN = 0.0000     energy-eigenvalue tresh-hold
   EBREAK =  0.78E-11  absolut break condition
   DEPER  =   0.30     relativ break condition  

   TIME   =   0.40     timestep for ELM

  volume/ion in A,a.u.               =      20.44       137.96
  Fermi-wavevector in a.u.,A,eV,Ry     =   0.950408  1.796010 12.289804  0.903275
  Thomas-Fermi vector in A             =   2.078782
 
 Write flags
   LWAVE        =      F    write WAVECAR
   LDOWNSAMPLE  =      F    k-point downsampling of WAVECAR
   LCHARG       =      F    write CHGCAR
   LVTOT        =      F    write LOCPOT, total local potential
   LVHAR        =      F    write LOCPOT, Hartree potential only
   LELF         =      F    write electronic localiz. function (ELF)
   LORBIT       =      0    0 simple, 1 ext, 2 COOP (PROOUT), +10 PAW based schemes


 Dipole corrections
   LMONO  =      F    monopole corrections only (constant potential shift)
   LDIPOL =      F    correct potential (dipole corrections)
   IDIPOL =      0    1-x, 2-y, 3-z, 4-all directions 
   EPSILON=  1.0000000 bulk dielectric constant

 Exchange correlation treatment:
   GGA     =    --    GGA type
   LEXCH   =     8    internal setting for exchange type
   VOSKOWN=      0    Vosko Wilk Nusair interpolation
   LHFCALC =     F    Hartree Fock is set to
   LHFONE  =     F    Hartree Fock one center treatment
   AEXX    =    0.0000 exact exchange contribution

 Linear response parameters
   LEPSILON=     F    determine dielectric tensor
   LRPA    =     F    only Hartree local field effects (RPA)
   LNABLA  =     F    use nabla operator in PAW spheres
   LVEL    =     F    velocity operator in full k-point grid
   LINTERFAST=   F  fast interpolation
   KINTER  =     0    interpolate to denser k-point grid
   CSHIFT  =0.1000    complex shift for real part using Kramers Kronig
   OMEGAMAX=  -1.0    maximum frequency
   DEG_THRESHOLD= 0.2000000E-02 threshold for treating states as degnerate
   RTIME   =   -0.100 relaxation time in fs
  (WPLASMAI=    0.000 imaginary part of plasma frequency in eV, 0.658/RTIME)
   DFIELD  = 0.0000000 0.0000000 0.0000000 field for delta impulse in time
 
 Orbital magnetization related:
   ORBITALMAG=     F  switch on orbital magnetization
   LCHIMAG   =     F  perturbation theory with respect to B field
   DQ        =  0.001000  dq finite difference perturbation B field
   LLRAUG    =     F  two centre corrections for induced B field



--------------------------------------------------------------------------------------------------------


 Static calculation
 charge density and potential will be updated during run
 non-spin polarized calculation
 Variant of blocked Davidson
 Davidson routine will perform the subspace rotation
 perform sub-space diagonalisation
    after iterative eigenvector-optimisation
 modified Broyden-mixing scheme, WC =      100.0
 initial mixing is a Kerker type mixing with AMIX =  0.4000 and BMIX =      1.0000
 Hartree-type preconditioning will be used
 using additional bands           66
 reciprocal scheme for non local part
 use partial core corrections
 calculate Harris-corrections to forces 
   (improved forces if not selfconsistent)
 use gradient corrections 
 use of overlap-Matrix (Vanderbilt PP)
 Gauss-broadening in eV      SIGMA  =   0.01


--------------------------------------------------------------------------------------------------------


  energy-cutoff  :      500.00
  volume of cell :     2616.76
      direct lattice vectors                 reciprocal lattice vectors
     0.000000000 10.937333691 10.937333691    -0.045714981  0.045714981  0.045714981
    10.937333691  0.000000000 10.937333691     0.045714981 -0.045714981  0.045714981
    10.937333691 10.937333691  0.000000000     0.045714981  0.045714981 -0.045714981

  length of vectors
    15.467725642 15.467725642 15.467725642     0.079180669  0.079180669  0.079180669


 
 k-points in units of 2pi/SCALE and weight: KPOINTS File, automatically generated by
   0.00000000  0.00000000  0.00000000       0.125
  -0.02285749  0.02285749  0.02285749       0.125
   0.02285749 -0.02285749  0.02285749       0.125
   0.00000000  0.00000000  0.04571498       0.125
   0.02285749  0.02285749 -0.02285749       0.125
   0.00000000  0.04571498  0.00000000       0.125
   0.04571498  0.00000000  0.00000000       0.125
   0.02285749  0.02285749  0.02285749       0.125
 
 k-points in reciprocal lattice and weights: KPOINTS File, automatically generated by
   0.00000000  0.00000000  0.00000000       0.125
   0.50000000  0.00000000  0.00000000       0.125
   0.00000000  0.50000000  0.00000000       0.125
   0.50000000  0.50000000  0.00000000       0.125
   0.00000000  0.00000000  0.50000000       0.125
   0.50000000  0.00000000  0.50000000       0.125
   0.00000000  0.50000000  0.50000000       0.125
   0.50000000  0.50000000  0.50000000       0.125
 
 position of ions in fractional coordinates (direct lattice) 
   0.99662066  0.00228841  0.00516118
   0.25991905  0.98667769  0.00514832
   0.48871101  0.01145155  0.99541738
   0.74329774  0.00019762  0.00654314
   0.99276601  0.25099080  0.00475583
   0.25193238  0.25130936  0.00133353
   0.50414115  0.24885606  0.98140811
   0.76529298  0.25195776  0.99704105
   0.00139539  0.50216835  0.98830354
   0.24724293  0.50688399  0.01434096
   0.49218145  0.49027360  0.00753452
   0.76102393  0.49033112  0.00148286
   0.99806643  0.76527679  0.99183205
   0.25041198  0.75242870  0.99906579
   0.49925509  0.74965369  0.99673832
   0.74228066  0.75375450  0.99699422
   0.02019625  0.99121204  0.24288579
   0.25250315  0.99460418  0.24425436
   0.49533674  0.00729086  0.25395619
   0.75833170  0.99478255  0.24848788
   0.99396635  0.25184402  0.24829493
   0.24637458  0.24096256  0.25304838
   0.49581096  0.25662614  0.24460738
   0.75340837  0.24655383  0.25202951
   0.00962128  0.49406529  0.25557818
   0.25570881  0.50599429  0.24345189
   0.49180289  0.50740872  0.24640566
   0.74010131  0.51159848  0.24775542
   0.99523365  0.74362093  0.24755138
   0.25415952  0.74843470  0.25448198
   0.51044463  0.74496007  0.24962951
   0.74441861  0.75955404  0.25168164
   0.00530519  0.00650099  0.48860594
   0.24781569  0.99400612  0.49878151
   0.50037155  0.00087295  0.50018060
   0.75504800  0.99684873  0.50420571
   0.99412062  0.24559302  0.49706215
   0.25327614  0.25278506  0.49726276
   0.49139705  0.24622930  0.50891547
   0.74281984  0.26702773  0.49084617
   0.99006432  0.49834878  0.50983332
   0.24391134  0.49544709  0.50377938
   0.49998498  0.50080417  0.50751002
   0.75401391  0.48862544  0.50224988
   0.00820330  0.75692407  0.49453537
   0.23965680  0.75735526  0.51570173
   0.50810251  0.72752994  0.51039119
   0.74200656  0.74823892  0.50053079
   0.99596668  0.00283218  0.74901131
   0.24868197  0.00742703  0.75100944
   0.50485634  0.00593248  0.74449411
   0.75965232  0.99472044  0.74834284
   0.99483173  0.25145883  0.74966461
   0.24428544  0.25764194  0.75769901
   0.50077760  0.25119621  0.75984130
   0.74000407  0.25215521  0.75744651
   0.98988136  0.51478229  0.75108237
   0.25207983  0.49805900  0.75255155
   0.51169158  0.48735919  0.75532702
   0.74376658  0.50081760  0.75555103
   0.01390315  0.74221257  0.75125685
   0.26714781  0.75298029  0.74269345
   0.50215199  0.74693363  0.74388844
   0.74888679  0.74360199  0.75869620
   0.06274678  0.06296619  0.06072834
   0.30104226  0.07066777  0.05390427
   0.55250692  0.06981508  0.07051699
   0.81307493  0.07408617  0.06227930
   0.06622423  0.31634555  0.05527706
   0.31881389  0.30993874  0.05857530
   0.55476464  0.30537412  0.06648639
   0.81227604  0.30538635  0.07006299
   0.06706685  0.55863342  0.06584495
   0.32179212  0.57539210  0.04842349
   0.56863793  0.56123724  0.05825435
   0.80866415  0.56877827  0.05798286
   0.07103713  0.81346350  0.05635290
   0.31745770  0.80560248  0.05893651
   0.56881625  0.80074899  0.06172384
   0.81681016  0.81032998  0.06918701
   0.07547271  0.05787707  0.31632819
   0.31968355  0.07243648  0.30239554
   0.55288748  0.07063267  0.31937826
   0.80880237  0.06885866  0.30676607
   0.05764078  0.30793637  0.31291903
   0.31212949  0.30386039  0.31156450
   0.56302422  0.31745035  0.31270120
   0.81161154  0.32020361  0.30090293
   0.06549842  0.55488332  0.32371686
   0.29929006  0.57124786  0.31013343
   0.55502045  0.56834983  0.31742681
   0.80561813  0.56336814  0.30791490
   0.05277242  0.80896693  0.31535568
   0.30962194  0.81179205  0.31396883
   0.55834905  0.81115287  0.30825080
   0.81189987  0.82084005  0.30777100
   0.06119237  0.06890076  0.56161424
   0.32354784  0.06485222  0.54345220
   0.57095297  0.06141335  0.54962786
   0.80728001  0.06419236  0.56672719
   0.05356023  0.31938237  0.56592545
   0.30920258  0.30126461  0.57090239
   0.55681494  0.31535591  0.56920557
   0.81689525  0.29824312  0.56105587
   0.06147712  0.54976118  0.57055022
   0.31027766  0.55957398  0.56968191
   0.57520882  0.54762424  0.57324762
   0.79252046  0.57324278  0.57499842
   0.05256144  0.83081870  0.56095347
   0.31646694  0.80977482  0.56126859
   0.56030694  0.80765563  0.56429042
   0.81715130  0.81136730  0.55524626
   0.06566647  0.06055474  0.81089165
   0.30626048  0.06225752  0.81013384
   0.56190098  0.05754618  0.81145599
   0.80707300  0.04906541  0.82868025
   0.07162334  0.31635483  0.80536472
   0.32015830  0.31247216  0.80403511
   0.56411482  0.31815162  0.81056208
   0.82013518  0.31679485  0.81215075
   0.06616847  0.56479429  0.81094569
   0.31190514  0.56069089  0.81428153
   0.56026743  0.55361407  0.82483428
   0.81747747  0.56078378  0.81168744
   0.06999872  0.80964513  0.80767557
   0.31082495  0.81164344  0.81007419
   0.56544123  0.80137273  0.81463955
   0.79794420  0.81573282  0.81857952
 
 position of ions in cartesian coordinates  (Angst):
   0.08147869 10.95682222 10.92540184
  10.84793209  2.89913027 13.63444456
  11.01246143 16.23240748  5.47044484
   0.07372598  8.20125992  8.13185688
   2.79718617 10.91022921 13.60338324
   2.76323964  2.77005377  5.50412282
  13.45580973 16.24794796  8.23578182
  13.66071673 19.27523534 11.12601079
  16.30178840 10.82466744  5.50764461
   5.70081116  2.86103027  8.24813778
   5.44469349  5.46556024 10.74543867
   5.37913357  8.33979118 13.68648778
  19.21808563 21.76418369 19.28627321
  19.15667965 13.66595529 10.96840312
  19.10087215 16.36217914 13.65973202
  19.14852298 19.02302976 16.36263569
  13.49773973  2.87741603 11.06210998
  13.54980918  5.43320265 13.64002898
   2.85734620  8.19526680  5.49740581
  13.59806353 11.01192171 19.17439561
   5.47018655 13.58702616 13.62584377
   5.40316250  5.46235556  5.33016886
   5.48215831  8.09820254  8.22965568
   5.45317233 10.99680960 10.93692019
   8.19910080  2.90057493  5.50898808
   8.19694302  5.45948719  8.33100106
   8.24471936  8.07403320 10.92871074
   8.30530695 10.80451862 13.69025821
  10.84078231 13.59275460 19.01843273
  10.96923445  5.56318182 10.96570756
  10.87815815  8.31318450 13.73078006
  11.06022205 10.89468080 16.44945067
   5.41514971  5.40207094  0.12912813
  16.32711637  8.16578273 13.58221952
   5.48018984 10.94337275  5.48227832
  16.41753333 13.77287803 19.16107916
   8.12266738 16.30956353 13.55916175
   8.20352325  8.20889443  5.53496021
   8.25927035 10.94075181  8.06766554
   8.28911975 13.49301683 11.04503981
  11.02682407 16.40488108 16.27927075
  10.92887332  8.17774285  8.08660987
  11.02826870 11.01930896 10.94596483
  10.83753409 13.74017633 13.59116127
  13.68762954  5.49862063  8.36845339
  13.92384912  8.26160831 10.90465369
  13.53955644 11.13960544 13.51452436
  13.65821100 13.59004561 16.29931204
   8.22316309 19.08540647 10.92419637
   8.29527285 10.93395859  2.80114963
   8.20766603 13.66456282  5.58666773
  19.06446473 16.49344627 19.18816039
  10.94962113 19.08013863 13.63109569
  11.10512281 10.95903822  5.48974723
  11.05805461 13.78780948  8.22458849
  11.04235094 16.37811678 10.85157715
  13.84518417 19.04150128 16.45700841
  13.67834493 10.98798866  8.20451865
  13.59167378 13.85780532 10.92695167
  13.74132295 16.39853704 13.61243243
  16.33457344  8.36881027  8.26988990
  16.35868276 11.04497082 11.15748138
  16.30561849 13.62836001 13.66166622
  16.43113651 16.48893823 16.32384781
   1.35288829  1.35048860  1.37496473
   1.36248601  3.88216869  4.06551671
   1.53485864  6.81422044  6.80654335
   1.49147473  9.57404132  9.70317702
   4.06456044  1.32890012  4.18429332
   4.03056093  4.12763146  6.87687728
   4.06716253  6.79482977  9.40762465
   4.10641471  9.65043643 12.22424656
   6.83012829  1.45370072  6.84349262
   6.82287921  4.04917158  9.81280316
   6.77558619  6.85653002 12.35782168
   6.85509560  9.47880755 15.06554746
   9.51347220  1.39330727  9.67407851
   9.45575136  4.11674901 12.28328389
   9.43315314  6.89642746 14.97939203
   9.61957083  9.69044673 17.79657474
   4.09280776  4.28525714  1.45849101
   4.09966295  6.80388660  4.28874764
   4.26567973  9.54026147  6.81964794
   4.10833302 12.20134428  9.59927157
   6.79050271  4.05293631  3.99843923
   6.73110734  6.82154928  6.73728683
   6.89217777  9.57810113  9.63004418
   6.79324939 12.16794191 12.37903988
   9.60954342  4.25697748  6.78532216
   9.63996130  6.66546806  9.52136375
   9.68803476  9.54224682 12.28667559
   9.52951333 12.17908233 14.97305961
  12.29709161  4.02633989  9.42513091
  12.31282233  6.82042031 12.26527895
  12.24329147  9.47829175 14.97869949
  12.34399567 12.24621392 17.85782138
   6.89615294  6.81184369  1.42287204
   6.65322842  9.48266872  4.24806113
   6.68316160 12.25616647  6.91640150
   6.90057772 15.02797534  9.53158419
   9.68290708  6.77552155  4.07899767
   9.53918148  9.62600180  6.67688336
   9.67474409 12.31566206  9.53922364
   9.39843979 15.07111123 12.19664051
  12.25321957  6.91269385  6.68531717
  12.35104847  9.62441143  9.51385761
  12.25934956 12.56105131 12.28079990
  12.55869715 14.95701028 14.93780827
  15.22227664  6.71021732  9.66182335
  14.99555930  9.60008639 12.31808203
  15.00543173 12.30009650 14.96186310
  14.94710845 15.01037004 17.81165131
   9.53130005  9.58720871  1.38052353
   9.54163541 12.21037716  4.03060437
   9.50456676 15.02086347  6.77510031
   9.60019721 17.89077913  9.36387155
  12.26862100  9.59191111  4.24344671
  12.21161253 12.29567843  6.91929041
  12.34511840 15.03530001  9.64964241
  12.34765471 17.85285581 12.43498307
  15.04692722  9.59329017  6.90105027
  15.03853223 12.31747942  9.54387394
  15.07654957 15.14931958 12.18289371
  15.01117576 17.81872032 15.07450324
  17.68917622  9.59941661  9.62095828
  17.73726683 12.25964793 12.27681132
  17.67486556 15.09440403 14.94930035
  17.87501940 17.68045932 17.64932398
 


--------------------------------------------------------------------------------------------------------


 k-point  1 :   0.0000 0.0000 0.0000  plane waves:   66299
 k-point  2 :   0.5000 0.0000 0.0000  plane waves:   66394
 k-point  3 :   0.0000 0.5000 0.0000  plane waves:   66394
 k-point  4 :   0.5000 0.5000 0.0000  plane waves:   66552
 k-point  5 :   0.0000 0.0000 0.5000  plane waves:   66394
 k-point  6 :   0.5000 0.0000 0.5000  plane waves:   66552
 k-point  7 :   0.0000 0.5000 0.5000  plane waves:   66552
 k-point  8 :   0.5000 0.5000 0.5000  plane waves:   66394

 maximum and minimum number of plane-waves per node :      4207     4110

 maximum number of plane-waves:     66552
 maximum index in each direction: 
   IXMAX=   28   IYMAX=   28   IZMAX=   28
   IXMIN=  -28   IYMIN=  -28   IZMIN=  -28


 parallel 3D FFT for wavefunctions:
    minimum data exchange during FFTs selected (reduces bandwidth)
 parallel 3D FFT for charge:
    minimum data exchange during FFTs selected (reduces bandwidth)


 total amount of memory used by VASP MPI-rank0   221701. kBytes
=======================================================================

   base      :      30000. kBytes
   nonl-proj :      10690. kBytes
   fftplans  :      66746. kBytes
   grid      :      26864. kBytes
   one-center:         24. kBytes
   wavefun   :      87377. kBytes
 
     INWAV:  cpu time    0.0000: real time    0.0002
 Broyden mixing: mesh for mixing (old mesh)
   NGX = 57   NGY = 57   NGZ = 57
  (NGX  =240   NGY  =240   NGZ  =240)
  gives a total of 185193 points

 initial charge density was supplied:
 charge density of overlapping atoms calculated
 number of electron     512.0000000 magnetization 
 keeping initial charge density in first step


--------------------------------------------------------------------------------------------------------


 Maximum index for augmentation-charges         5606 (set IRDMAX)


--------------------------------------------------------------------------------------------------------


 First call to EWALD:  gamma=   0.129
 Maximum number of real-space cells 3x 3x 3
 Maximum number of reciprocal cells 3x 3x 3

    FEWALD:  cpu time    0.0059: real time    0.0059


--------------------------------------- Iteration      1(   1)  ---------------------------------------


    POTLOK:  cpu time    0.4888: real time    0.4969
    SETDIJ:  cpu time    0.5068: real time    0.5068
     EDDAV:  cpu time   69.9091: real time   69.9364
       DOS:  cpu time    0.0031: real time    0.0031
    --------------------------------------------
      LOOP:  cpu time   70.9079: real time   70.9433

 eigenvalue-minimisations  :  5152
 total energy-change (2. order) : 0.1383584E+04  (-0.1908261E+05)
 number of electron     512.0000000 magnetization 
 augmentation part      512.0000000 magnetization 

 Free energy of the ion-electron system (eV)
  ---------------------------------------------------
  alpha Z        PSCENC =       210.77028614
  Ewald energy   TEWEN  =    -14471.40652004
  -Hartree energ DENC   =      -755.82731597
  -exchange      EXHF   =         0.00000000
  -V(xc)+E(xc)   XCENC  =     -1195.33423675
  PAW double counting   =      4221.13331941    -1969.18571412
  entropy T*S    EENTRO =        -0.00162006
  eigenvalues    EBANDS =      2150.95510311
  atomic energy  EATOM  =     13192.48085998
  Solvation  Ediel_sol  =         0.00000000
  ---------------------------------------------------
  free energy    TOTEN  =      1383.58416171 eV

  energy without entropy =     1383.58578178  energy(sigma->0) =     1383.58497175


--------------------------------------------------------------------------------------------------------




--------------------------------------- Iteration      1(   2)  ---------------------------------------


     EDDAV:  cpu time   79.2930: real time   79.3076
       DOS:  cpu time    0.0017: real time    0.0017
    --------------------------------------------
      LOOP:  cpu time   79.2948: real time   79.3094

 eigenvalue-minimisations  :  6096
 total energy-change (2. order) :-0.1919444E+04  (-0.1825347E+04)
 number of electron     512.0000000 magnetization 
 augmentation part      512.0000000 magnetization 

 Free energy of the ion-electron system (eV)
  ---------------------------------------------------
  alpha Z        PSCENC =       210.77028614
  Ewald energy   TEWEN  =    -14471.40652004
  -Hartree energ DENC   =      -755.82731597
  -exchange      EXHF   =         0.00000000
  -V(xc)+E(xc)   XCENC  =     -1195.33423675
  PAW double counting   =      4221.13331941    -1969.18571412
  entropy T*S    EENTRO =        -0.00000000
  eigenvalues    EBANDS =       231.50914441
  atomic energy  EATOM  =     13192.48085998
  Solvation  Ediel_sol  =         0.00000000
  ---------------------------------------------------
  free energy    TOTEN  =      -535.86017692 eV

  energy without entropy =     -535.86017692  energy(sigma->0) =     -535.86017692


--------------------------------------------------------------------------------------------------------




--------------------------------------- Iteration      1(   3)  ---------------------------------------


     EDDAV:  cpu time   81.7341: real time   81.7485
       DOS:  cpu time    0.0012: real time    0.0012
    --------------------------------------------
      LOOP:  cpu time   81.7354: real time   81.7497

 eigenvalue-minimisations  :  6328
 total energy-change (2. order) :-0.1505392E+03  (-0.1475621E+03)
 number of electron     512.0000000 magnetization 
 augmentation part      512.0000000 magnetization 

 Free energy of the ion-electron system (eV)
  ---------------------------------------------------
  alpha Z        PSCENC =       210.77028614
  Ewald energy   TEWEN  =    -14471.40652004
  -Hartree energ DENC   =      -755.82731597
  -exchange      EXHF   =         0.00000000
  -V(xc)+E(xc)   XCENC  =     -1195.33423675
  PAW double counting   =      4221.13331941    -1969.18571412
  entropy T*S    EENTRO =        -0.00000000
  eigenvalues    EBANDS =        80.96991156
  atomic energy  EATOM  =     13192.48085998
  Solvation  Ediel_sol  =         0.00000000
  ---------------------------------------------------
  free energy    TOTEN  =      -686.39940977 eV

  energy without entropy =     -686.39940977  energy(sigma->0) =     -686.39940977


--------------------------------------------------------------------------------------------------------




--------------------------------------- Iteration      1(   4)  ---------------------------------------


     EDDAV:  cpu time   80.3149: real time   80.3384
       DOS:  cpu time    0.0012: real time    0.0012
    --------------------------------------------
      LOOP:  cpu time   80.3160: real time   80.3395

 eigenvalue-minimisations  :  6184
 total energy-change (2. order) :-0.4191368E+01  (-0.4158286E+01)
 number of electron     512.0000000 magnetization 
 augmentation part      512.0000000 magnetization 

 Free energy of the ion-electron system (eV)
  ---------------------------------------------------
  alpha Z        PSCENC =       210.77028614
  Ewald energy   TEWEN  =    -14471.40652004
  -Hartree energ DENC   =      -755.82731597
  -exchange      EXHF   =         0.00000000
  -V(xc)+E(xc)   XCENC  =     -1195.33423675
  PAW double counting   =      4221.13331941    -1969.18571412
  entropy T*S    EENTRO =        -0.00000000
  eigenvalues    EBANDS =        76.77854345
  atomic energy  EATOM  =     13192.48085998
  Solvation  Ediel_sol  =         0.00000000
  ---------------------------------------------------
  free energy    TOTEN  =      -690.59077789 eV

  energy without entropy =     -690.59077789  energy(sigma->0) =     -690.59077789


--------------------------------------------------------------------------------------------------------




--------------------------------------- Iteration      1(   5)  ---------------------------------------


     EDDAV:  cpu time   81.3339: real time   81.3594
       DOS:  cpu time    0.0014: real time    0.0014
    CHARGE:  cpu time    3.1949: real time    3.1954
    MIXING:  cpu time    0.0362: real time    0.0363
    --------------------------------------------
      LOOP:  cpu time   84.5665: real time   84.5926

 eigenvalue-minimisations  :  6296
 total energy-change (2. order) :-0.1434702E+00  (-0.1430702E+00)
 number of electron     511.9999998 magnetization 
 augmentation part      -30.1853488 magnetization 

 Broyden mixing:
  rms(total) = 0.23988E+01    rms(broyden)= 0.23988E+01
  rms(prec ) = 0.29070E+01
  weight for this iteration     100.00

 Free energy of the ion-electron system (eV)
  ---------------------------------------------------
  alpha Z        PSCENC =       210.77028614
  Ewald energy   TEWEN  =    -14471.40652004
  -Hartree energ DENC   =      -755.82731597
  -exchange      EXHF   =         0.00000000
  -V(xc)+E(xc)   XCENC  =     -1195.33423675
  PAW double counting   =      4221.13331941    -1969.18571412
  entropy T*S    EENTRO =        -0.00000000
  eigenvalues    EBANDS =        76.63507321
  atomic energy  EATOM  =     13192.48085998
  Solvation  Ediel_sol  =         0.00000000
  ---------------------------------------------------
  free energy    TOTEN  =      -690.73424812 eV

  energy without entropy =     -690.73424812  energy(sigma->0) =     -690.73424812


--------------------------------------------------------------------------------------------------------




--------------------------------------- Iteration      1(   6)  ---------------------------------------


    POTLOK:  cpu time    0.4904: real time    0.4912
    SETDIJ:  cpu time    0.5112: real time    0.5113
     EDDAV:  cpu time   77.6156: real time   77.6340
       DOS:  cpu time    0.0010: real time    0.0010
    CHARGE:  cpu time    3.1643: real time    3.1651
    MIXING:  cpu time    0.0459: real time    0.0460
    --------------------------------------------
      LOOP:  cpu time   81.8285: real time   81.8486

 eigenvalue-minimisations  :  5920
 total energy-change (2. order) : 0.8513850E+01  (-0.5968028E+00)
 number of electron     511.9999998 magnetization 
 augmentation part      -29.8435647 magnetization 

 Broyden mixing:
  rms(total) = 0.14246E+01    rms(broyden)= 0.14246E+01
  rms(prec ) = 0.17166E+01
  weight for this iteration     100.00

 eigenvalues of (default mixing * dielectric matrix)
  average eigenvalue GAMMA=   2.4283
  2.4283

 Free energy of the ion-electron system (eV)
  ---------------------------------------------------
  alpha Z        PSCENC =       210.77028614
  Ewald energy   TEWEN  =    -14471.40652004
  -Hartree energ DENC   =      -851.16535935
  -exchange      EXHF   =         0.00000000
  -V(xc)+E(xc)   XCENC  =     -1180.69142305
  PAW double counting   =      4465.93332997    -2220.76039201
  entropy T*S    EENTRO =        -0.00000000
  eigenvalues    EBANDS =       172.61881994
  atomic energy  EATOM  =     13192.48085998
  Solvation  Ediel_sol  =         0.00000000
  ---------------------------------------------------
  free energy    TOTEN  =      -682.22039841 eV

  energy without entropy =     -682.22039841  energy(sigma->0) =     -682.22039841


--------------------------------------------------------------------------------------------------------




--------------------------------------- Iteration      1(   7)  ---------------------------------------


    POTLOK:  cpu time    0.4894: real time    0.4900
    SETDIJ:  cpu time    0.5131: real time    0.5131
     EDDAV:  cpu time   76.1577: real time   76.1981
       DOS:  cpu time    0.0010: real time    0.0010
    CHARGE:  cpu time    3.1209: real time    3.1214
    MIXING:  cpu time    0.0337: real time    0.0337
    --------------------------------------------
      LOOP:  cpu time   80.3159: real time   80.3573

 eigenvalue-minimisations  :  5776
 total energy-change (2. order) : 0.3534364E+01  (-0.1137496E+01)
 number of electron     511.9999998 magnetization 
 augmentation part      -29.3941238 magnetization 

 Broyden mixing:
  rms(total) = 0.15775E+00    rms(broyden)= 0.15775E+00
  rms(prec ) = 0.20474E+00
  weight for this iteration     100.00

 eigenvalues of (default mixing * dielectric matrix)
  average eigenvalue GAMMA=   2.1168
  2.1168  2.1168

 Free energy of the ion-electron system (eV)
  ---------------------------------------------------
  alpha Z        PSCENC =       210.77028614
  Ewald energy   TEWEN  =    -14471.40652004
  -Hartree energ DENC   =     -1001.55681821
  -exchange      EXHF   =         0.00000000
  -V(xc)+E(xc)   XCENC  =     -1156.80880305
  PAW double counting   =      4785.61965774    -2548.97343465
  entropy T*S    EENTRO =        -0.00000000
  eigenvalues    EBANDS =       311.18873740
  atomic energy  EATOM  =     13192.48085998
  Solvation  Ediel_sol  =         0.00000000
  ---------------------------------------------------
  free energy    TOTEN  =      -678.68603468 eV

  energy without entropy =     -678.68603468  energy(sigma->0) =     -678.68603468


--------------------------------------------------------------------------------------------------------




--------------------------------------- Iteration      1(   8)  ---------------------------------------


    POTLOK:  cpu time    0.4895: real time    0.4931
    SETDIJ:  cpu time    0.5122: real time    0.5125
     EDDAV:  cpu time   76.3915: real time   76.4158
       DOS:  cpu time    0.0011: real time    0.0011
    CHARGE:  cpu time    3.1346: real time    3.1349
    MIXING:  cpu time    0.0498: real time    0.0498
    --------------------------------------------
      LOOP:  cpu time   80.5788: real time   80.6071

 eigenvalue-minimisations  :  5808
 total energy-change (2. order) :-0.5399139E-01  (-0.1121616E+00)
 number of electron     511.9999998 magnetization 
 augmentation part      -29.4660483 magnetization 

 Broyden mixing:
  rms(total) = 0.61589E-01    rms(broyden)= 0.61589E-01
  rms(prec ) = 0.76478E-01
  weight for this iteration     100.00

 eigenvalues of (default mixing * dielectric matrix)
  average eigenvalue GAMMA=   2.0104
  2.6780  1.6766  1.6766

 Free energy of the ion-electron system (eV)
  ---------------------------------------------------
  alpha Z        PSCENC =       210.77028614
  Ewald energy   TEWEN  =    -14471.40652004
  -Hartree energ DENC   =      -994.87361463
  -exchange      EXHF   =         0.00000000
  -V(xc)+E(xc)   XCENC  =     -1156.91912174
  PAW double counting   =      4737.49468806    -2499.35060168
  entropy T*S    EENTRO =        -0.00000000
  eigenvalues    EBANDS =       303.06399784
  atomic energy  EATOM  =     13192.48085998
  Solvation  Ediel_sol  =         0.00000000
  ---------------------------------------------------
  free energy    TOTEN  =      -678.74002607 eV

  energy without entropy =     -678.74002607  energy(sigma->0) =     -678.74002607


--------------------------------------------------------------------------------------------------------




--------------------------------------- Iteration      1(   9)  ---------------------------------------


    POTLOK:  cpu time    0.4901: real time    0.4912
    SETDIJ:  cpu time    0.5136: real time    0.5136
     EDDAV:  cpu time   79.5941: real time   79.6160
       DOS:  cpu time    0.0012: real time    0.0012
    CHARGE:  cpu time    3.1087: real time    3.1090
    MIXING:  cpu time    0.0564: real time    0.0564
    --------------------------------------------
      LOOP:  cpu time   83.7640: real time   83.7874

 eigenvalue-minimisations  :  6128
 total energy-change (2. order) :-0.2107226E-01  (-0.1012813E-01)
 number of electron     511.9999998 magnetization 
 augmentation part      -29.4692720 magnetization 

 Broyden mixing:
  rms(total) = 0.28888E-01    rms(broyden)= 0.28888E-01
  rms(prec ) = 0.33558E-01
  weight for this iteration     100.00

 eigenvalues of (default mixing * dielectric matrix)
  average eigenvalue GAMMA=   1.8047
  2.5789  0.9278  1.8560  1.8560

 Free energy of the ion-electron system (eV)
  ---------------------------------------------------
  alpha Z        PSCENC =       210.77028614
  Ewald energy   TEWEN  =    -14471.40652004
  -Hartree energ DENC   =     -1001.77824385
  -exchange      EXHF   =         0.00000000
  -V(xc)+E(xc)   XCENC  =     -1155.73619364
  PAW double counting   =      4741.88166853    -2503.86113489
  entropy T*S    EENTRO =        -0.00000000
  eigenvalues    EBANDS =       308.88817943
  atomic energy  EATOM  =     13192.48085998
  Solvation  Ediel_sol  =         0.00000000
  ---------------------------------------------------
  free energy    TOTEN  =      -678.76109832 eV

  energy without entropy =     -678.76109832  energy(sigma->0) =     -678.76109832


--------------------------------------------------------------------------------------------------------




--------------------------------------- Iteration      1(  10)  ---------------------------------------


    POTLOK:  cpu time    0.4923: real time    0.4934
    SETDIJ:  cpu time    0.5130: real time    0.5132
     EDDAV:  cpu time   78.1121: real time   78.1394
       DOS:  cpu time    0.0014: real time    0.0014
    CHARGE:  cpu time    3.0873: real time    3.0889
    MIXING:  cpu time    0.0333: real time    0.0333
    --------------------------------------------
      LOOP:  cpu time   82.2394: real time   82.2695

 eigenvalue-minimisations  :  5976
 total energy-change (2. order) :-0.2578528E-02  (-0.9754975E-03)
 number of electron     511.9999998 magnetization 
 augmentation part      -29.4792587 magnetization 

 Broyden mixing:
  rms(total) = 0.10683E-01    rms(broyden)= 0.10683E-01
  rms(prec ) = 0.12992E-01
  weight for this iteration     100.00

 eigenvalues of (default mixing * dielectric matrix)
  average eigenvalue GAMMA=   1.8509
  2.6770  2.6770  1.4963  1.4963  0.9077

 Free energy of the ion-electron system (eV)
  ---------------------------------------------------
  alpha Z        PSCENC =       210.77028614
  Ewald energy   TEWEN  =    -14471.40652004
  -Hartree energ DENC   =     -1000.55877666
  -exchange      EXHF   =         0.00000000
  -V(xc)+E(xc)   XCENC  =     -1155.91694057
  PAW double counting   =      4734.36313479    -2496.15463430
  entropy T*S    EENTRO =        -0.00000000
  eigenvalues    EBANDS =       307.65891381
  atomic energy  EATOM  =     13192.48085998
  Solvation  Ediel_sol  =         0.00000000
  ---------------------------------------------------
  free energy    TOTEN  =      -678.76367685 eV

  energy without entropy =     -678.76367685  energy(sigma->0) =     -678.76367685


--------------------------------------------------------------------------------------------------------




--------------------------------------- Iteration      1(  11)  ---------------------------------------


    POTLOK:  cpu time    0.4865: real time    0.4894
    SETDIJ:  cpu time    0.5146: real time    0.5146
     EDDAV:  cpu time   76.7634: real time   76.7870
       DOS:  cpu time    0.0011: real time    0.0011
    CHARGE:  cpu time    3.0830: real time    3.0846
    MIXING:  cpu time    0.0268: real time    0.0268
    --------------------------------------------
      LOOP:  cpu time   80.8755: real time   80.9036

 eigenvalue-minimisations  :  5848
 total energy-change (2. order) :-0.1386532E-02  (-0.2261541E-03)
 number of electron     511.9999998 magnetization 
 augmentation part      -29.4817064 magnetization 

 Broyden mixing:
  rms(total) = 0.39086E-02    rms(broyden)= 0.39086E-02
  rms(prec ) = 0.55203E-02
  weight for this iteration     100.00

 eigenvalues of (default mixing * dielectric matrix)
  average eigenvalue GAMMA=   1.7776
  2.8284  2.0844  2.0844  1.5127  1.2947  0.8606

 Free energy of the ion-electron system (eV)
  ---------------------------------------------------
  alpha Z        PSCENC =       210.77028614
  Ewald energy   TEWEN  =    -14471.40652004
  -Hartree energ DENC   =     -1000.50703552
  -exchange      EXHF   =         0.00000000
  -V(xc)+E(xc)   XCENC  =     -1155.92036452
  PAW double counting   =      4730.40996349    -2492.10995531
  entropy T*S    EENTRO =        -0.00000000
  eigenvalues    EBANDS =       307.51770239
  atomic energy  EATOM  =     13192.48085998
  Solvation  Ediel_sol  =         0.00000000
  ---------------------------------------------------
  free energy    TOTEN  =      -678.76506338 eV

  energy without entropy =     -678.76506338  energy(sigma->0) =     -678.76506338


--------------------------------------------------------------------------------------------------------




--------------------------------------- Iteration      1(  12)  ---------------------------------------


    POTLOK:  cpu time    0.4877: real time    0.4906
    SETDIJ:  cpu time    0.5065: real time    0.5065
     EDDAV:  cpu time   79.3441: real time   79.3739
       DOS:  cpu time    0.0011: real time    0.0011
    CHARGE:  cpu time    3.0883: real time    3.0888
    MIXING:  cpu time    0.0411: real time    0.0411
    --------------------------------------------
      LOOP:  cpu time   83.4688: real time   83.5019

 eigenvalue-minimisations  :  6096
 total energy-change (2. order) :-0.5874207E-04  (-0.4801744E-04)
 number of electron     511.9999998 magnetization 
 augmentation part      -29.4797502 magnetization 

 Broyden mixing:
  rms(total) = 0.19097E-02    rms(broyden)= 0.19096E-02
  rms(prec ) = 0.22693E-02
  weight for this iteration     100.00

 eigenvalues of (default mixing * dielectric matrix)
  average eigenvalue GAMMA=   1.8225
  3.1502  2.6796  1.7758  1.7758  0.8934  1.2415  1.2415

 Free energy of the ion-electron system (eV)
  ---------------------------------------------------
  alpha Z        PSCENC =       210.77028614
  Ewald energy   TEWEN  =    -14471.40652004
  -Hartree energ DENC   =     -1001.13197818
  -exchange      EXHF   =         0.00000000
  -V(xc)+E(xc)   XCENC  =     -1155.85115624
  PAW double counting   =      4731.71852475    -2493.46317939
  entropy T*S    EENTRO =        -0.00000000
  eigenvalues    EBANDS =       308.11804085
  atomic energy  EATOM  =     13192.48085998
  Solvation  Ediel_sol  =         0.00000000
  ---------------------------------------------------
  free energy    TOTEN  =      -678.76512212 eV

  energy without entropy =     -678.76512212  energy(sigma->0) =     -678.76512212


--------------------------------------------------------------------------------------------------------




--------------------------------------- Iteration      1(  13)  ---------------------------------------


    POTLOK:  cpu time    0.4898: real time    0.4904
    SETDIJ:  cpu time    0.5074: real time    0.5075
     EDDAV:  cpu time   75.7517: real time   75.7695
       DOS:  cpu time    0.0011: real time    0.0011
    CHARGE:  cpu time    3.0780: real time    3.0783
    MIXING:  cpu time    0.0423: real time    0.0424
    --------------------------------------------
      LOOP:  cpu time   79.8703: real time   79.8892

 eigenvalue-minimisations  :  5752
 total energy-change (2. order) :-0.3203361E-04  (-0.1245062E-04)
 number of electron     511.9999998 magnetization 
 augmentation part      -29.4797422 magnetization 

 Broyden mixing:
  rms(total) = 0.57648E-03    rms(broyden)= 0.57646E-03
  rms(prec ) = 0.75159E-03
  weight for this iteration     100.00

 eigenvalues of (default mixing * dielectric matrix)
  average eigenvalue GAMMA=   1.7826
  3.1287  2.5274  1.9588  1.9588  1.3865  1.3865  0.9571  0.9571

 Free energy of the ion-electron system (eV)
  ---------------------------------------------------
  alpha Z        PSCENC =       210.77028614
  Ewald energy   TEWEN  =    -14471.40652004
  -Hartree energ DENC   =     -1001.12375650
  -exchange      EXHF   =         0.00000000
  -V(xc)+E(xc)   XCENC  =     -1155.86230356
  PAW double counting   =      4731.09817953    -2492.83042663
  entropy T*S    EENTRO =        -0.00000000
  eigenvalues    EBANDS =       308.10852692
  atomic energy  EATOM  =     13192.48085998
  Solvation  Ediel_sol  =         0.00000000
  ---------------------------------------------------
  free energy    TOTEN  =      -678.76515416 eV

  energy without entropy =     -678.76515416  energy(sigma->0) =     -678.76515416


--------------------------------------------------------------------------------------------------------




--------------------------------------- Iteration      1(  14)  ---------------------------------------


    POTLOK:  cpu time    0.4910: real time    0.4914
    SETDIJ:  cpu time    0.5072: real time    0.5072
     EDDAV:  cpu time   80.2757: real time   80.3038
       DOS:  cpu time    0.0011: real time    0.0011
    CHARGE:  cpu time    3.0686: real time    3.0702
    MIXING:  cpu time    0.0309: real time    0.0353
    --------------------------------------------
      LOOP:  cpu time   84.3744: real time   84.4089

 eigenvalue-minimisations  :  6208
 total energy-change (2. order) :-0.4229845E-05  (-0.9527596E-06)
 number of electron     511.9999998 magnetization 
 augmentation part      -29.4796194 magnetization 

 Broyden mixing:
  rms(total) = 0.19358E-03    rms(broyden)= 0.19353E-03
  rms(prec ) = 0.26652E-03
  weight for this iteration     100.00

 eigenvalues of (default mixing * dielectric matrix)
  average eigenvalue GAMMA=   1.7696
  3.2221  2.6119  2.1911  1.6579  1.6579  1.3211  1.3211  1.0161  0.9274

 Free energy of the ion-electron system (eV)
  ---------------------------------------------------
  alpha Z        PSCENC =       210.77028614
  Ewald energy   TEWEN  =    -14471.40652004
  -Hartree energ DENC   =     -1001.17015594
  -exchange      EXHF   =         0.00000000
  -V(xc)+E(xc)   XCENC  =     -1155.85573407
  PAW double counting   =      4731.24572242    -2492.98105225
  entropy T*S    EENTRO =        -0.00000000
  eigenvalues    EBANDS =       308.15143536
  atomic energy  EATOM  =     13192.48085998
  Solvation  Ediel_sol  =         0.00000000
  ---------------------------------------------------
  free energy    TOTEN  =      -678.76515839 eV

  energy without entropy =     -678.76515839  energy(sigma->0) =     -678.76515839


--------------------------------------------------------------------------------------------------------




--------------------------------------- Iteration      1(  15)  ---------------------------------------


    POTLOK:  cpu time    0.4894: real time    0.4904
    SETDIJ:  cpu time    0.5080: real time    0.5080
     EDDAV:  cpu time   79.2223: real time   79.2398
       DOS:  cpu time    0.0010: real time    0.0010
    CHARGE:  cpu time    3.0708: real time    3.0712
    MIXING:  cpu time    0.0370: real time    0.0370
    --------------------------------------------
      LOOP:  cpu time   83.3285: real time   83.3474

 eigenvalue-minimisations  :  6104
 total energy-change (2. order) :-0.3461462E-05  (-0.1963894E-06)
 number of electron     511.9999998 magnetization 
 augmentation part      -29.4794993 magnetization 

 Broyden mixing:
  rms(total) = 0.68587E-04    rms(broyden)= 0.68435E-04
  rms(prec ) = 0.90730E-04
  weight for this iteration     100.00

 eigenvalues of (default mixing * dielectric matrix)
  average eigenvalue GAMMA=   1.7186
  3.2444  2.5776  2.1820  1.7181  1.7181  1.4191  1.4191  0.9488  0.9488  1.0100

 Free energy of the ion-electron system (eV)
  ---------------------------------------------------
  alpha Z        PSCENC =       210.77028614
  Ewald energy   TEWEN  =    -14471.40652004
  -Hartree energ DENC   =     -1001.19425647
  -exchange      EXHF   =         0.00000000
  -V(xc)+E(xc)   XCENC  =     -1155.85449726
  PAW double counting   =      4731.30906155    -2493.04646747
  entropy T*S    EENTRO =        -0.00000000
  eigenvalues    EBANDS =       308.17637172
  atomic energy  EATOM  =     13192.48085998
  Solvation  Ediel_sol  =         0.00000000
  ---------------------------------------------------
  free energy    TOTEN  =      -678.76516185 eV

  energy without entropy =     -678.76516185  energy(sigma->0) =     -678.76516185


--------------------------------------------------------------------------------------------------------




--------------------------------------- Iteration      1(  16)  ---------------------------------------


    POTLOK:  cpu time    0.4902: real time    0.4913
    SETDIJ:  cpu time    0.5079: real time    0.5080
     EDDAV:  cpu time   79.1452: real time   79.1665
       DOS:  cpu time    0.0010: real time    0.0010
    CHARGE:  cpu time    3.0932: real time    3.0968
    MIXING:  cpu time    0.0358: real time    0.0358
    --------------------------------------------
      LOOP:  cpu time   83.2734: real time   83.2994

 eigenvalue-minimisations  :  6096
 total energy-change (2. order) : 0.3493606E-06  (-0.2347539E-07)
 number of electron     511.9999998 magnetization 
 augmentation part      -29.4794959 magnetization 

 Broyden mixing:
  rms(total) = 0.31706E-04    rms(broyden)= 0.31376E-04
  rms(prec ) = 0.42364E-04
  weight for this iteration     100.00

 eigenvalues of (default mixing * dielectric matrix)
  average eigenvalue GAMMA=   1.7006
  3.2890  2.6240  2.0976  2.0976  1.4197  1.4197  1.4179  1.4179  0.9032  1.0098
  1.0098

 Free energy of the ion-electron system (eV)
  ---------------------------------------------------
  alpha Z        PSCENC =       210.77028614
  Ewald energy   TEWEN  =    -14471.40652004
  -Hartree energ DENC   =     -1001.19387898
  -exchange      EXHF   =         0.00000000
  -V(xc)+E(xc)   XCENC  =     -1155.85442974
  PAW double counting   =      4731.30586573    -2493.04297059
  entropy T*S    EENTRO =        -0.00000000
  eigenvalues    EBANDS =       308.17562599
  atomic energy  EATOM  =     13192.48085998
  Solvation  Ediel_sol  =         0.00000000
  ---------------------------------------------------
  free energy    TOTEN  =      -678.76516150 eV

  energy without entropy =     -678.76516150  energy(sigma->0) =     -678.76516150


--------------------------------------------------------------------------------------------------------




--------------------------------------- Iteration      1(  17)  ---------------------------------------


    POTLOK:  cpu time    0.4902: real time    0.4907
    SETDIJ:  cpu time    0.5077: real time    0.5079
     EDDAV:  cpu time   66.5536: real time   66.5825
       DOS:  cpu time    0.0010: real time    0.0010
    CHARGE:  cpu time    3.0925: real time    3.0929
    MIXING:  cpu time    0.0361: real time    0.0361
    --------------------------------------------
      LOOP:  cpu time   70.6810: real time   70.7111

 eigenvalue-minimisations  :  4840
 total energy-change (2. order) : 0.1678600E-06  (-0.3981358E-08)
 number of electron     511.9999998 magnetization 
 augmentation part      -29.4795003 magnetization 

 Broyden mixing:
  rms(total) = 0.15731E-04    rms(broyden)= 0.15056E-04
  rms(prec ) = 0.19170E-04
  weight for this iteration     100.00

 eigenvalues of (default mixing * dielectric matrix)
  average eigenvalue GAMMA=   1.6897
  3.2954  2.6274  2.2170  1.8288  1.8288  1.5275  1.5275  0.9429  0.9429  1.2539
  1.1421  1.1421

 Free energy of the ion-electron system (eV)
  ---------------------------------------------------
  alpha Z        PSCENC =       210.77028614
  Ewald energy   TEWEN  =    -14471.40652004
  -Hartree energ DENC   =     -1001.19274317
  -exchange      EXHF   =         0.00000000
  -V(xc)+E(xc)   XCENC  =     -1155.85452827
  PAW double counting   =      4731.30484747    -2493.04178211
  entropy T*S    EENTRO =        -0.00000000
  eigenvalues    EBANDS =       308.17441866
  atomic energy  EATOM  =     13192.48085998
  Solvation  Ediel_sol  =         0.00000000
  ---------------------------------------------------
  free energy    TOTEN  =      -678.76516133 eV

  energy without entropy =     -678.76516133  energy(sigma->0) =     -678.76516133


--------------------------------------------------------------------------------------------------------




--------------------------------------- Iteration      1(  18)  ---------------------------------------


    POTLOK:  cpu time    0.4890: real time    0.4922
    SETDIJ:  cpu time    0.5093: real time    0.5093
     EDDAV:  cpu time   52.4769: real time   52.5040
       DOS:  cpu time    0.0011: real time    0.0011
    CHARGE:  cpu time    3.0936: real time    3.0945
    MIXING:  cpu time    0.0415: real time    0.0415
    --------------------------------------------
      LOOP:  cpu time   56.6113: real time   56.6425

 eigenvalue-minimisations  :  3416
 total energy-change (2. order) :-0.1438984E-06  (-0.1025220E-08)
 number of electron     511.9999998 magnetization 
 augmentation part      -29.4794952 magnetization 

 Broyden mixing:
  rms(total) = 0.74796E-05    rms(broyden)= 0.59286E-05
  rms(prec ) = 0.76894E-05
  weight for this iteration     100.00
  WARNING: grid for Broyden might be to small

 eigenvalues of (default mixing * dielectric matrix)
  average eigenvalue GAMMA=   1.7105
  3.2915  2.6849  2.4051  2.4051  1.7538  1.7538  0.9228  0.9963  1.0048  1.2798
  1.2798  1.2293  1.2293

 Free energy of the ion-electron system (eV)
  ---------------------------------------------------
  alpha Z        PSCENC =       210.77028614
  Ewald energy   TEWEN  =    -14471.40652004
  -Hartree energ DENC   =     -1001.19374398
  -exchange      EXHF   =         0.00000000
  -V(xc)+E(xc)   XCENC  =     -1155.85442399
  PAW double counting   =      4731.30936937    -2493.04639321
  entropy T*S    EENTRO =        -0.00000000
  eigenvalues    EBANDS =       308.17540424
  atomic energy  EATOM  =     13192.48085998
  Solvation  Ediel_sol  =         0.00000000
  ---------------------------------------------------
  free energy    TOTEN  =      -678.76516148 eV

  energy without entropy =     -678.76516148  energy(sigma->0) =     -678.76516148


--------------------------------------------------------------------------------------------------------




--------------------------------------- Iteration      1(  19)  ---------------------------------------


    POTLOK:  cpu time    0.4878: real time    0.4908
    SETDIJ:  cpu time    0.5082: real time    0.5082
     EDDAV:  cpu time   51.1519: real time   51.1703
       DOS:  cpu time    0.0010: real time    0.0010
    CHARGE:  cpu time    3.0958: real time    3.0961
    MIXING:  cpu time    0.0336: real time    0.0336
    --------------------------------------------
      LOOP:  cpu time   55.2782: real time   55.3000

 eigenvalue-minimisations  :  3280
 total energy-change (2. order) : 0.4294998E-07  (-0.2231099E-09)
 number of electron     511.9999998 magnetization 
 augmentation part      -29.4794964 magnetization 

 Broyden mixing:
  rms(total) = 0.52933E-05    rms(broyden)= 0.26876E-05
  rms(prec ) = 0.37409E-05
  weight for this iteration     100.00
  WARNING: grid for Broyden might be to small

 eigenvalues of (default mixing * dielectric matrix)
  average eigenvalue GAMMA=   1.6595
  3.3178  2.6968  2.2814  2.2814  1.7304  1.7304  1.2880  1.2880  1.3637  1.3637
  1.0383  1.0383  0.9078  0.9078

 Free energy of the ion-electron system (eV)
  ---------------------------------------------------
  alpha Z        PSCENC =       210.77028614
  Ewald energy   TEWEN  =    -14471.40652004
  -Hartree energ DENC   =     -1001.19344181
  -exchange      EXHF   =         0.00000000
  -V(xc)+E(xc)   XCENC  =     -1155.85443790
  PAW double counting   =      4731.30940332    -2493.04638733
  entropy T*S    EENTRO =        -0.00000000
  eigenvalues    EBANDS =       308.17507620
  atomic energy  EATOM  =     13192.48085998
  Solvation  Ediel_sol  =         0.00000000
  ---------------------------------------------------
  free energy    TOTEN  =      -678.76516143 eV

  energy without entropy =     -678.76516143  energy(sigma->0) =     -678.76516143


--------------------------------------------------------------------------------------------------------




--------------------------------------- Iteration      1(  20)  ---------------------------------------


    POTLOK:  cpu time    0.4918: real time    0.4930
    SETDIJ:  cpu time    0.5097: real time    0.5097
     EDDAV:  cpu time   50.2862: real time   50.3137
       DOS:  cpu time    0.0011: real time    0.0011
    CHARGE:  cpu time    3.0943: real time    3.0954
    MIXING:  cpu time    0.0332: real time    0.0332
    --------------------------------------------
      LOOP:  cpu time   54.4162: real time   54.4460

 eigenvalue-minimisations  :  3192
 total energy-change (2. order) :-0.1899025E-07  (-0.4285452E-10)
 number of electron     511.9999998 magnetization 
 augmentation part      -29.4794955 magnetization 

 Broyden mixing:
  rms(total) = 0.48113E-05    rms(broyden)= 0.15339E-05
  rms(prec ) = 0.20941E-05
  weight for this iteration     100.00
  WARNING: grid for Broyden might be to small

 eigenvalues of (default mixing * dielectric matrix)
  average eigenvalue GAMMA=   1.6956
  3.2753  2.6788  2.4438  2.4438  1.9559  1.9559  1.2036  1.2036  1.4323  1.4323
  1.2962  1.2962  0.9735  0.9216  0.9216

 Free energy of the ion-electron system (eV)
  ---------------------------------------------------
  alpha Z        PSCENC =       210.77028614
  Ewald energy   TEWEN  =    -14471.40652004
  -Hartree energ DENC   =     -1001.19361734
  -exchange      EXHF   =         0.00000000
  -V(xc)+E(xc)   XCENC  =     -1155.85442138
  PAW double counting   =      4731.30975407    -2493.04675262
  entropy T*S    EENTRO =        -0.00000000
  eigenvalues    EBANDS =       308.17524973
  atomic energy  EATOM  =     13192.48085998
  Solvation  Ediel_sol  =         0.00000000
  ---------------------------------------------------
  free energy    TOTEN  =      -678.76516145 eV

  energy without entropy =     -678.76516145  energy(sigma->0) =     -678.76516145


--------------------------------------------------------------------------------------------------------




--------------------------------------- Iteration      1(  21)  ---------------------------------------


    POTLOK:  cpu time    0.4886: real time    0.4919
    SETDIJ:  cpu time    0.5088: real time    0.5088
     EDDAV:  cpu time   49.9091: real time   49.9175
       DOS:  cpu time    0.0009: real time    0.0009
    --------------------------------------------
      LOOP:  cpu time   50.9075: real time   50.9191

 eigenvalue-minimisations  :  3152
 total energy-change (2. order) : 0.3070454E-08  (-0.1707905E-10)
 number of electron     511.9999998 magnetization 
 augmentation part      -29.4794955 magnetization 

 Free energy of the ion-electron system (eV)
  ---------------------------------------------------
  alpha Z        PSCENC =       210.77028614
  Ewald energy   TEWEN  =    -14471.40652004
  -Hartree energ DENC   =     -1001.19354245
  -exchange      EXHF   =         0.00000000
  -V(xc)+E(xc)   XCENC  =     -1155.85442680
  PAW double counting   =      4731.30968706    -2493.04668382
  entropy T*S    EENTRO =        -0.00000000
  eigenvalues    EBANDS =       308.17517848
  atomic energy  EATOM  =     13192.48085998
  Solvation  Ediel_sol  =         0.00000000
  ---------------------------------------------------
  free energy    TOTEN  =      -678.76516145 eV

  energy without entropy =     -678.76516145  energy(sigma->0) =     -678.76516145


--------------------------------------------------------------------------------------------------------




 average (electrostatic) potential at core
  the test charge radii are     0.9892
  (the norm of the test charge is              1.0000)
       1 -83.4487       2 -83.4131       3 -83.5232       4 -83.4826       5 -83.4415
       6 -83.5616       7 -83.5598       8 -83.6470       9 -83.5726      10 -83.5562
      11 -83.5025      12 -83.5106      13 -83.5326      14 -83.6543      15 -83.4300
      16 -83.4315      17 -83.3626      18 -83.4540      19 -83.5380      20 -83.5365
      21 -83.5579      22 -83.5537      23 -83.5119      24 -83.5069      25 -83.4892
      26 -83.5282      27 -83.4408      28 -83.5449      29 -83.6014      30 -83.4620
      31 -83.4329      32 -83.4878      33 -83.4625      34 -83.6040      35 -83.5218
      36 -83.4079      37 -83.4761      38 -83.5505      39 -83.5276      40 -83.5552
      41 -83.5344      42 -83.5258      43 -83.4678      44 -83.4912      45 -83.4730
      46 -83.5127      47 -83.7143      48 -83.6171      49 -83.5378      50 -83.4541
      51 -83.4515      52 -83.5298      53 -83.4991      54 -83.5644      55 -83.5514
      56 -83.7185      57 -83.4369      58 -83.4649      59 -83.4622      60 -83.6240
      61 -83.5350      62 -83.4911      63 -83.6020      64 -83.3963      65 -83.3157
      66 -83.4727      67 -83.5797      68 -83.5617      69 -83.4793      70 -83.6768
      71 -83.6392      72 -83.4552      73 -83.4948      74 -83.5440      75 -83.4751
      76 -83.5221      77 -83.6183      78 -83.5846      79 -83.4598      80 -83.5345
      81 -83.5077      82 -83.3824      83 -83.4850      84 -83.3852      85 -83.4915
      86 -83.5852      87 -83.5538      88 -83.6185      89 -83.5487      90 -83.3962
      91 -83.4555      92 -83.5471      93 -83.4038      94 -83.5506      95 -83.6406
      96 -83.6109      97 -83.5337      98 -83.4842      99 -83.4117     100 -83.5883
     101 -83.5441     102 -83.4641     103 -83.4834     104 -83.5615     105 -83.4425
     106 -83.5094     107 -83.4766     108 -83.6482     109 -83.5346     110 -83.5367
     111 -83.5934     112 -83.5118     113 -83.5146     114 -83.4367     115 -83.5027
     116 -83.5472     117 -83.5443     118 -83.5613     119 -83.4809     120 -83.6868
     121 -83.4913     122 -83.6034     123 -83.5611     124 -83.4525     125 -83.4509
     126 -83.5475     127 -83.4405     128 -83.4374
 
 
 
 E-fermi :   5.8979     XC(G=0):  -9.3329     alpha+bet :-11.7321


 k-point     1 :       0.0000    0.0000    0.0000
  band No.  band energies     occupation 
      1      -6.3079      2.00000
      2      -5.7274      2.00000
      3      -5.6426      2.00000
      4      -5.6096      2.00000
      5      -5.5620      2.00000
      6      -5.5409      2.00000
      7      -5.4756      2.00000
      8      -5.4004      2.00000
      9      -5.3808      2.00000
     10      -5.2831      2.00000
     11      -5.2615      2.00000
     12      -5.2445      2.00000
     13      -5.1872      2.00000
     14      -5.1495      2.00000
     15      -5.0929      2.00000
     16      -4.5210      2.00000
     17      -4.4735      2.00000
     18      -4.4647      2.00000
     19      -4.3852      2.00000
     20      -4.3764      2.00000
     21      -4.3384      2.00000
     22      -4.2734      2.00000
     23      -4.2288      2.00000
     24      -4.2155      2.00000
     25      -4.1829      2.00000
     26      -4.1719      2.00000
     27      -4.0694      2.00000
     28      -4.0333      2.00000
     29      -4.0093      2.00000
     30      -3.9745      2.00000
     31      -3.9552      2.00000
     32      -3.8951      2.00000
     33      -3.8271      2.00000
     34      -3.8002      2.00000
     35      -3.7612      2.00000
     36      -3.7586      2.00000
     37      -3.7335      2.00000
     38      -3.6953      2.00000
     39      -3.6463      2.00000
     40      -3.6237      2.00000
     41      -3.6170      2.00000
     42      -3.5900      2.00000
     43      -3.5760      2.00000
     44      -3.5545      2.00000
     45      -3.5230      2.00000
[...]
   -.283E+01 -.966E+01 -.562E+01   0.288E+01 0.877E+01 0.527E+01   -.202E+00 0.159E+01 0.553E+00   0.218E-06 -.645E-06 0.139E-05
   -.393E+01 -.521E-01 0.472E+01   0.370E+01 -.781E+00 -.487E+01   0.138E+01 0.202E+00 -.923E+00   -.121E-05 0.804E-06 0.740E-06
   -.542E+01 -.423E+01 0.353E+01   0.525E+01 0.418E+01 -.262E+01   0.133E+01 0.113E+01 -.119E+01   -.481E-06 -.155E-05 -.198E-05
   -.145E+02 0.849E+01 -.525E+00   0.134E+02 -.737E+01 0.118E+01   0.334E+01 -.285E+01 -.102E+01   0.260E-06 0.115E-05 -.208E-06
   0.782E+01 0.192E+01 0.453E+01   -.629E+01 -.123E+01 -.409E+01   -.161E+01 -.231E+01 -.879E+00   0.196E-07 0.778E-06 -.572E-06
   -.143E+01 0.118E+02 -.120E+01   0.724E+00 -.103E+02 0.752E+00   -.144E+00 -.425E+01 0.700E+00   0.693E-06 0.349E-06 0.832E-06
   0.652E+01 -.277E+01 0.158E+02   -.616E+01 0.253E+01 -.140E+02   -.156E+01 0.925E+00 -.556E+01   0.338E-06 -.170E-05 -.652E-06
   0.721E+01 -.691E+01 -.816E+01   -.659E+01 0.660E+01 0.743E+01   -.228E+01 0.763E+00 0.170E+01   -.422E-06 -.469E-06 0.119E-05
   0.802E+00 -.128E+02 0.122E+01   -.851E+00 0.124E+02 -.108E+01   -.685E+00 0.304E+01 -.214E+00   -.704E-06 -.117E-05 0.657E-06
   -.217E+01 0.290E+01 -.552E+01   0.257E+01 -.365E+01 0.502E+01   -.367E+00 0.712E+00 0.993E+00   0.204E-05 0.202E-05 -.712E-06
   -.944E+01 0.756E+01 -.130E+01   0.907E+01 -.652E+01 0.131E+01   0.151E+01 -.170E+01 0.980E+00   -.362E-06 -.979E-06 0.501E-07
   -.455E+01 -.191E+01 0.202E+01   0.516E+01 0.172E+01 -.148E+01   -.416E+00 -.202E+00 -.112E+01   -.143E-05 -.931E-07 0.547E-06
   -.450E+01 0.478E+00 -.151E+01   0.395E+01 -.364E+00 0.128E+01   0.164E+01 0.200E+00 0.173E+00   0.206E-06 0.218E-06 -.727E-06
   -.237E+01 -.199E+01 0.527E+00   0.182E+01 0.136E+01 -.683E+00   0.428E+00 0.827E-01 0.624E+00   0.672E-07 -.672E-07 -.113E-05
   -.557E+01 -.119E+02 0.447E+01   0.507E+01 0.106E+02 -.392E+01   0.543E+00 0.364E+01 -.388E+00   -.142E-05 -.131E-05 -.471E-06
   0.227E+01 -.319E+00 0.152E+02   -.190E+01 -.279E+00 -.139E+02   -.121E+01 0.102E+01 -.249E+01   0.782E-06 0.825E-06 0.107E-05
   -.254E+00 -.795E+01 -.131E+02   -.687E-01 0.737E+01 0.123E+02   0.143E+01 0.246E+01 0.230E+01   0.129E-05 0.364E-06 0.157E-06
   0.623E+01 0.164E+01 0.475E+01   -.490E+01 -.137E+01 -.424E+01   -.233E+01 0.233E-01 0.742E+00   -.160E-05 -.877E-06 -.133E-06
   -.924E+00 -.136E+02 0.561E+00   0.838E+00 0.125E+02 -.566E+00   0.583E+00 0.302E+01 0.565E+00   -.219E-06 -.481E-06 0.121E-05
   -.139E+02 -.140E+01 -.337E+01   0.115E+02 0.120E+01 0.302E+01   0.434E+01 0.179E+01 0.153E+01   -.146E-05 0.127E-05 0.493E-06
   0.185E+00 -.741E+01 0.535E+01   -.848E+00 0.644E+01 -.486E+01   -.137E+00 0.214E+01 -.222E+01   -.292E-06 -.160E-06 -.653E-06
   -.163E+01 -.867E+01 0.215E+01   0.224E+01 0.748E+01 -.201E+01   -.160E+01 0.169E+01 -.121E+01   0.392E-06 -.252E-05 0.128E-05
   -.661E+01 0.158E+01 0.111E+02   0.624E+01 -.142E+01 -.104E+02   0.217E+01 -.359E+00 -.263E+01   0.558E-06 -.833E-06 0.124E-06
   -.167E+00 -.398E+01 -.163E+01   0.420E+00 0.439E+01 0.189E+01   0.113E+01 0.648E+00 -.502E+00   -.109E-05 -.462E-06 0.139E-06
   -.261E+01 0.346E+01 -.674E+01   0.215E+01 -.374E+01 0.598E+01   0.247E+00 -.131E+00 0.261E+01   -.339E-06 -.345E-06 0.172E-05
   0.142E+02 -.111E+00 0.100E+01   -.123E+02 -.206E-01 -.119E+01   -.379E+01 0.402E+00 -.421E+00   0.341E-06 -.213E-05 0.601E-07
   -.185E+01 0.531E+00 -.277E+01   0.139E+01 -.753E+00 0.312E+01   0.163E+01 0.707E-01 0.636E+00   -.447E-06 -.947E-06 -.371E-06
   0.943E+01 0.433E+01 0.695E+01   -.864E+01 -.422E+01 -.609E+01   -.111E+01 -.257E+00 -.127E+01   0.307E-05 0.177E-05 0.281E-05
   -.460E+01 -.884E+01 0.375E+01   0.348E+01 0.766E+01 -.301E+01   0.338E+01 0.124E+01 -.864E+00   0.147E-05 -.663E-06 0.654E-06
   -.275E+01 0.763E+01 -.872E+01   0.239E+01 -.677E+01 0.814E+01   0.144E+01 -.182E+01 0.188E+01   -.899E-06 -.938E-06 -.129E-05
   0.714E+01 0.138E+02 -.413E+01   -.645E+01 -.125E+02 0.385E+01   -.710E+00 -.228E+01 0.810E+00   0.156E-06 0.148E-05 0.481E-06
   0.268E+01 0.553E+01 -.299E+00   -.340E+01 -.505E+01 0.745E+00   0.313E+00 -.122E+01 -.130E+01   -.129E-06 0.322E-05 -.275E-05
   0.116E+02 -.393E+00 -.483E+01   -.109E+02 0.517E-01 0.500E+01   -.348E+01 0.973E+00 -.494E+00   0.443E-07 -.222E-06 -.752E-06
   -.137E+01 -.985E+00 0.109E+02   0.114E+01 0.728E+00 -.958E+01   -.674E+00 0.192E+01 -.229E+01   0.435E-06 0.355E-06 -.314E-06
   0.420E+01 -.587E+00 -.109E+02   -.392E+01 0.586E-01 0.912E+01   -.206E+00 0.152E+01 0.273E+01   -.438E-06 0.131E-05 -.522E-06
   -.440E+01 0.110E+02 -.772E+01   0.361E+01 -.977E+01 0.728E+01   0.769E+00 -.222E+01 0.999E+00   -.206E-05 0.123E-05 -.301E-06
   0.157E+01 -.264E+01 0.298E+01   -.143E+01 0.259E+01 -.189E+01   0.306E+00 0.828E+00 -.183E+01   -.109E-05 -.937E-06 -.929E-06
   0.114E+01 0.251E+01 0.222E+01   -.140E+01 -.231E+01 -.204E+01   0.109E+01 -.562E+00 -.703E+00   0.767E-06 0.763E-06 -.438E-06
   -.247E+01 -.571E+01 -.755E+01   0.167E+01 0.543E+01 0.627E+01   0.249E+01 0.264E+01 0.315E+01   0.131E-05 0.985E-06 -.788E-06
   0.370E+01 -.414E+01 -.634E+01   -.380E+01 0.386E+01 0.517E+01   0.106E+01 0.123E+01 0.301E+01   0.233E-05 0.201E-05 0.157E-05
   0.205E+00 0.973E+00 -.614E+01   0.476E-03 -.450E+00 0.519E+01   -.118E+00 -.161E+01 0.282E+01   0.211E-05 -.105E-05 -.306E-06
   -.288E+01 0.590E+01 0.666E+01   0.277E+01 -.509E+01 -.596E+01   0.228E+01 -.258E+01 -.279E+01   0.836E-06 -.192E-05 -.140E-05
   0.100E+00 -.479E+00 0.222E+01   0.280E+00 0.384E+00 -.191E+01   0.135E+01 0.103E+01 -.531E+00   0.121E-05 0.156E-05 0.181E-05
   0.945E+01 -.993E+00 0.104E+01   -.859E+01 0.118E+01 -.541E+00   -.248E+01 -.268E+00 -.126E+01   0.221E-05 -.468E-06 0.159E-05
   0.518E+01 0.528E+01 0.675E+01   -.529E+01 -.428E+01 -.553E+01   0.303E+00 -.243E+01 -.275E+01   0.182E-05 -.138E-05 -.868E-06
   0.336E+01 0.727E+00 -.208E+01   -.237E+01 -.677E+00 0.220E+01   -.217E+01 -.282E+00 -.159E+00   0.614E-06 0.106E-06 -.573E-06
   -.512E+01 -.155E+00 0.253E+01   0.529E+01 0.822E-01 -.291E+01   0.399E+00 0.124E+01 0.108E+01   -.157E-05 0.282E-05 0.185E-05
   -.760E+01 0.483E+00 -.499E+01   0.697E+01 0.127E-01 0.427E+01   0.702E+00 -.119E+01 0.125E+01   -.223E-05 -.991E-07 -.361E-05
   -.101E+01 0.422E+01 0.506E+01   0.113E+01 -.382E+01 -.379E+01   0.909E+00 -.115E+01 -.300E+01   -.205E-06 -.302E-06 -.205E-05
   -.149E+01 -.162E+01 -.370E+01   0.147E+01 0.107E+01 0.300E+01   0.497E+00 0.792E+00 0.193E+01   -.125E-07 0.140E-05 -.721E-06
   -.112E+02 -.154E+00 -.979E+01   0.991E+01 -.652E+00 0.908E+01   0.319E+01 0.221E+01 0.284E+01   0.956E-06 0.223E-05 -.176E-05
   -.295E+01 0.119E+02 -.661E+01   0.273E+01 -.106E+02 0.648E+01   0.803E+00 -.246E+01 0.107E+01   -.453E-06 0.230E-06 -.138E-05
   0.812E+01 -.491E+01 -.116E+02   -.706E+01 0.440E+01 0.105E+02   -.260E+01 0.169E+01 0.235E+01   -.343E-06 0.186E-05 -.779E-06
 -----------------------------------------------------------------------------------------------
   -.278E+00 0.154E+00 -.285E+00   0.488E-13 0.114E-12 0.139E-12   0.278E+00 -.154E+00 0.285E+00   0.154E-06 -.362E-07 -.414E-06
 
 
 POSITION                                       TOTAL-FORCE (eV/Angst)
 -----------------------------------------------------------------------------------
      0.08148     10.95682     10.92540        -1.043591     -0.132402      0.383766
     10.84793      2.89913     13.63444        -0.343231     -2.771840     -0.254812
     11.01246     16.23241      5.47044        -0.349632      1.694219     -0.637829
      0.07373      8.20126      8.13186         0.940995      1.023535     -0.276297
      2.79719     10.91023     13.60338        -1.221351      0.555987      1.425398
      2.76324      2.77005      5.50412        -0.451778     -1.440744      0.352208
     13.45581     16.24795      8.23578         2.441009      1.926514     -0.998610
     13.66072     19.27524     11.12601         0.458446     -2.283163     -1.502874
     16.30179     10.82467      5.50764         1.831886      1.318298     -0.455317
      5.70081      2.86103      8.24814        -2.452006     -0.835376     -0.262822
      5.44469      5.46556     10.74544        -0.320770      1.800590      1.850044
      5.37913      8.33979     13.68649         0.306776     -1.036434     -0.248785
     19.21809     21.76418     19.28627        -1.129805      1.427909     -0.673607
     19.15668     13.66596     10.96840        -0.557285     -0.716300      0.878384
     19.10087     16.36218     13.65973        -0.538666      0.781531     -0.167851
     19.14852     19.02303     16.36264         0.097491      2.015655      1.249396
     13.49774      2.87742     11.06211         1.738828     -0.766123     -0.800871
     13.54981      5.43320     13.64003         0.256838      0.636652      1.911891
      2.85735      8.19527      5.49741        -0.785914      1.117556      0.024815
     13.59806     11.01192     19.17440         2.056882     -2.038883      0.463730
      5.47019     13.58703     13.62584        -0.963163      0.420649      0.581408
      5.40316      5.46236      5.33017         1.258117     -1.746060      1.774167
      5.48216      8.09820      8.22966         0.713873      1.344104     -0.284745
      5.45317     10.99681     10.93692         0.771652     -1.049961     -0.404380
      8.19910      2.90057      5.50899         0.130727     -1.383226     -0.856755
      8.19694      5.45949      8.33100        -1.218473     -0.733536     -1.426840
      8.24472      8.07403     10.92871         0.291934      0.608651      0.091769
      8.30531     10.80452     13.69026        -1.408826     -0.328856     -0.503563
     10.84078     13.59275     19.01843        -0.079484      0.678482      0.609456
     10.96923      5.56318     10.96571        -0.121472     -2.248784     -0.622294
     10.87816      8.31318     13.73078        -0.028905     -2.540833     -1.011980
     11.06022     10.89468     16.44945        -0.733367      0.382639     -0.805697
      5.41515      5.40207      0.12913         2.818524      0.295212     -0.968533
     16.32712      8.16578     13.58222         0.129274     -0.115773      1.619767
      5.48019     10.94337      5.48228        -0.902481      0.700964     -0.420414
     16.41753     13.77288     19.16108        -0.892008     -1.147151      0.173886
      8.12267     16.30956     13.55916         0.768980      0.904656      1.932104
      8.20352      8.20889      5.53496        -0.323573     -0.993916     -1.332498
      8.25927     10.94075      8.06767        -0.552272      0.187759      1.405859
      8.28912     13.49302     11.04504        -1.357018      0.087568     -1.498801
     11.02682     16.40488     16.27927         0.879335     -0.897167      0.217289
     10.92887      8.17774      8.08661        -0.455980      0.752828      0.659793
     11.02827     11.01931     10.94596         0.021895     -0.496095     -0.151016
     10.83753     13.74018     13.59116        -0.265176      0.351533      1.136783
     13.68763      5.49862      8.36845        -0.311472      0.346370     -1.849506
     13.92385      8.26161     10.90465        -2.265583     -1.151269     -0.858398
     13.53956     11.13961     13.51452         0.487768     -1.850064      1.211475
     13.65821     13.59005     16.29931         0.645662     -0.264727      2.084797
      8.22316     19.08541     10.92420        -0.178457      0.563836     -0.288906
      8.29527     10.93396      2.80115        -2.819330     -1.502648     -0.776847
      8.20767     13.66456      5.58667        -1.554007     -1.352417     -1.864518
     19.06446     16.49345     19.18816         1.041221     -0.830838     -0.809407
     10.94962     19.08014     13.63110        -0.837013      1.757662      1.336169
     11.10512     10.95904      5.48975        -2.594932      0.684764     -0.204370
     11.05805     13.78781      8.22459        -1.849864     -0.432576     -0.161927
     11.04235     16.37812     10.85158        -1.923050      1.804874      1.047894
     13.84518     19.04150     16.45701        -1.941537      1.981758      0.532484
     13.67834     10.98799      8.20452        -0.115033     -0.032262     -0.250690
     13.59167     13.85781     10.92695         2.436567     -2.121594      0.638493
     13.74132     16.39854     13.61243         0.469155      0.743175      0.319907
     16.33457      8.36881      8.26989         1.147394     -2.456495     -0.312178
     16.35868     11.04497     11.15748        -0.933677     -1.505935     -2.893770
     16.30562     13.62836     13.66167         0.920167      0.986108     -0.980904
     16.43114     16.48894     16.32385        -0.849752     -1.109951      0.740074
      1.35289      1.35049      1.37496        -0.319574      0.766963      0.817352
      1.36249      3.88217      4.06552         0.428085      1.836626      0.264447
      1.53486      6.81422      6.80654        -1.785757     -0.344636     -0.141835
      1.49147      9.57404      9.70318        -1.358998      0.053459     -1.642285
      4.06456      1.32890      4.18429         0.253509     -0.003112     -0.858210
      4.03056      4.12763      6.87688         1.282835      0.096202      0.206083
      4.06716      6.79483      9.40762        -1.490563     -0.160443      1.228846
      4.10641      9.65044     12.22425         1.041359      0.277044      0.996796
      6.83013      1.45370      6.84349         0.756543     -1.325597     -0.098628
      6.82288      4.04917      9.81280         1.410795      0.410617     -2.006360
      6.77559      6.85653     12.35782        -0.301553     -0.211073     -0.624047
      6.85510      9.47881     15.06555        -0.146795      0.697493      0.208843
      9.51347      1.39331      9.67408         1.153080     -0.630737     -1.072935
      9.45575      4.11675     12.28328         1.164464      1.074324     -0.281416
      9.43315      6.89643     14.97939         2.228833     -1.734483     -0.358867
      9.61957      9.69045     17.79657        -0.077232     -1.622926     -0.431040
      4.09281      4.28526      1.45849        -0.849972     -2.770649      0.256363
      4.09966      6.80389      4.28875        -1.201284      0.686158     -3.759250
      4.26568      9.54026      6.81965        -1.658206      0.456891      0.973074
      4.10833     12.20134      9.59927        -0.733655      2.665871     -0.079218
      6.79050      4.05294      3.99844         0.030637     -0.037632      0.491451
      6.73111      6.82155      6.73729         1.140779     -0.662992      0.985862
      6.89218      9.57810      9.63004         0.194087     -0.387483     -0.578857
      6.79325     12.16794     12.37904         1.088129      0.313682     -0.051501
      9.60954      4.25698      6.78532        -0.119079     -0.552040      0.468553
      9.63996      6.66547      9.52136         0.047916      2.333722      0.160153
      9.68803      9.54225     12.28668        -0.845575      0.418955     -1.199265
      9.52951     12.17908     14.97306         1.111631      1.880049      1.481914
     12.29709      4.02634      9.42513        -1.007383      0.291054      1.251766
     12.31282      6.82042     12.26528         0.496477      1.924925      0.560308
     12.24329      9.47829     14.97870         2.001644      1.585706      1.173663
     12.34400     12.24621     17.85782        -0.799867      1.166207     -1.721851
      6.89615      6.81184      1.42287        -0.983381      0.494793     -1.067519
      6.65323      9.48267      4.24806         1.806075     -0.202640     -1.868921
      6.68316     12.25617      6.91640         1.387239      1.054476     -0.237000
      6.90058     15.02798      9.53158        -0.210082     -0.407512      1.845718
      9.68291      6.77552      4.07900        -1.938529      0.270220     -0.611653
      9.53918      9.62600      6.67688         1.168123     -0.151376      0.980966
      9.67474     12.31566      9.53922        -0.326678     -0.148103     -0.405354
      9.39844     15.07111     12.19664         2.260230      0.060839     -0.132590
     12.25322      6.91269      6.68532         1.073961     -0.957583      1.303412
     12.35105      9.62441      9.51386        -0.027745     -1.008187      0.528384
     12.25935     12.56105     12.28080        -0.409354     -0.741506     -0.848936
     12.55870     14.95701     14.93781        -2.837944      0.630865     -0.323936
     15.22228      6.71022      9.66182        -0.910825      1.662173     -0.954155
     14.99556      9.60009     12.31808         0.072763      0.994323      0.984476
     15.00543     12.30010     14.96186        -0.016626     -1.032556      0.563433
     14.94711     15.01037     17.81165         0.448218      0.776872     -0.739209
      9.53130      9.58721      1.38052         0.826424     -0.360679     -0.524055
      9.54164     12.21038      4.03060         1.687991      2.353427      1.876706
      9.50457     15.02086      6.77510         0.956106      0.950393      1.837832
      9.60020     17.89078      9.36387         0.087238     -1.090521      1.868097
     12.26862      9.59191      4.24345         2.165989     -1.760890     -2.093744
     12.21161     12.29568      6.91929         1.731575      0.937074     -0.213899
     12.34512     15.03530      9.64964        -1.614267     -0.083765     -0.767849
     12.34765     17.85286     12.43498         0.185198     -1.419458     -1.536015
     15.04693      9.59329      6.90105        -1.182004     -0.232426     -0.042016
     15.03853     12.31748      9.54387         0.562464      1.164265      0.699957
     15.07655     15.14932     12.18289         0.078644     -0.693313      0.532183
     15.01118     17.81872     15.07450         1.032679     -0.750161     -1.725954
     17.68918      9.59942      9.62096         0.478344      0.246615      1.235121
     17.73727     12.25965     12.27681         1.874362      1.400250      2.130393
     17.67487     15.09440     14.94930         0.592290     -1.193560      0.945292
     17.87502     17.68046     17.64932        -1.545251      1.176868      1.306333
 -----------------------------------------------------------------------------------
    total drift:                                0.000018     -0.000019      0.000010


--------------------------------------------------------------------------------------------------------



  FREE ENERGIE OF THE ION-ELECTRON SYSTEM (eV)
  ---------------------------------------------------
  free  energy   TOTEN  =      -678.76516145 eV

  energy  without entropy=     -678.76516145  energy(sigma->0) =     -678.76516145
 


--------------------------------------------------------------------------------------------------------


    POTLOK:  cpu time    0.9983: real time    0.9986


--------------------------------------------------------------------------------------------------------


     LOOP+:  cpu time 1705.6801: real time 1706.2544
    4ORBIT:  cpu time    0.0000: real time    0.0000

 total amount of memory used by VASP MPI-rank0   221701. kBytes
=======================================================================

   base      :      30000. kBytes
   nonl-proj :      10690. kBytes
   fftplans  :      66746. kBytes
   grid      :      26864. kBytes
   one-center:         24. kBytes
   wavefun   :      87377. kBytes
 
  
  
 General timing and accounting informations for this job:
 ========================================================
  
                  Total CPU time used (sec):     1729.711
                            User time (sec):     1728.731
                          System time (sec):        0.980
                         Elapsed time (sec):     1731.260
  
                   Maximum memory used (kb):      337540.
                   Average memory used (kb):           0.
  
                          Minor page faults:       146304
                          Major page faults:            0
                 Voluntary context switches:         1298
