<?xml version="1.0" encoding="ISO-8859-1"?>
<modeling>
 <generator>
  <i name="program" type="string">vasp </i>
  <i name="version" type="string">5.4.4.18Apr17-6-g9f103f2a35  </i>
  <i name="subversion" type="string">(build Nov 08 2017 09:05:29) complex            parallel </i>
  <i name="platform" type="string">Intel_17.33 </i>
  <i name="date" type="string">2020 07 18 </i>
  <i name="time" type="string">21:13:41 </i>
 </generator>
 <incar>
  <i type="string" name="SYSTEM">potpaw_PBE@./ARUN.APL1ZEROSTATE</i>
  <i type="string" name="PREC">accurate</i>
  <i type="string" name="ALGO">Normal</i>
  <i type="int" name="NSIM">     4</i>
  <i type="logical" name="ADDGRID"> T  </i>
  <i type="int" name="NELM">   120</i>
  <i type="int" name="NELMIN">     4</i>
  <i name="EDIFF">      0.00000001</i>
  <i type="int" name="NSW">     0</i>
  <i type="int" name="ISYM">     2</i>
  <i name="ENMAX">    500.00000000</i>
  <i type="logical" name="LREAL"> F  </i>
  <i type="logical" name="LPLANE"> T  </i>
  <i type="int" name="ISMEAR">     0</i>
  <i name="SIGMA">      0.01000000</i>
  <i type="logical" name="LWAVE"> F  </i>
  <i type="logical" name="LCHARG"> F  </i>
  <i type="logical" name="LELF"> F  </i>
  <i type="logical" name="LAECHG"> F  </i>
  <v type="int" name="KPOINT_BSE">    -1     0     0     0</v>
  <i type="int" name="NELM">   120</i>
 </incar>
 <structure name="primitive_cell" >
  <crystal>
   <varray name="basis" >
    <v>       0.00000000      10.93733369      10.93733369 </v>
    <v>      10.93733369       0.00000000      10.93733369 </v>
    <v>      10.93733369      10.93733369       0.00000000 </v>
   </varray>
   <i name="volume">   2616.76295363 </i>
   <varray name="rec_basis" >
    <v>      -0.04571498       0.04571498       0.04571498 </v>
    <v>       0.04571498      -0.04571498       0.04571498 </v>
    <v>       0.04571498       0.04571498      -0.04571498 </v>
   </varray>
  </crystal>
  <varray name="positions" >
   <v>      -0.00337934       0.00228841       0.00516118 </v>
   <v>       0.06274678       0.06296619       0.06072834 </v>
   <v>      -0.18692507       0.07408617       0.06227930 </v>
   <v>       0.07103713      -0.18653650       0.05635290 </v>
   <v>       0.06566647       0.06055474      -0.18910835 </v>
   <v>      -0.23470702       0.25195776      -0.00295895 </v>
   <v>      -0.24166830      -0.00521745       0.24848788 </v>
   <v>      -0.00193357      -0.23472321      -0.00816795 </v>
   <v>       0.02019625      -0.00878796       0.24288579 </v>
   <v>      -0.00723399       0.25099080       0.00475583 </v>
   <v>      -0.00476635      -0.25637907       0.24755138 </v>
   <v>       0.25041198      -0.24757130      -0.00093421 </v>
   <v>      -0.00516827       0.25145883      -0.25033539 </v>
   <v>       0.24868197       0.00742703      -0.24899056 </v>
   <v>      -0.25670226       0.00019762       0.00654314 </v>
   <v>       0.25991905      -0.01332231       0.00514832 </v>
   <v>      -0.00403332       0.00283218      -0.25098869 </v>
   <v>      -0.18810013      -0.17915995       0.30777100 </v>
   <v>      -0.19119763       0.06885866       0.30676607 </v>
   <v>      -0.18772396       0.30538635       0.07006299 </v>
   <v>       0.05277242      -0.19103307       0.31535568 </v>
   <v>      -0.18318984      -0.18967002       0.06918701 </v>
   <v>       0.30626048       0.06225752      -0.18986616 </v>
   <v>      -0.17986482       0.31679485      -0.18784925 </v>
   <v>      -0.19292700       0.04906541      -0.17131975 </v>
   <v>       0.31745770      -0.19439752       0.05893651 </v>
   <v>       0.31082495      -0.18835656      -0.18992581 </v>
   <v>       0.07162334       0.31635483      -0.19463528 </v>
   <v>       0.06999872      -0.19035487      -0.19232443 </v>
   <v>      -0.24659163       0.24655383       0.25202951 </v>
   <v>      -0.25558139      -0.24044596       0.25168164 </v>
   <v>       0.24428544       0.25764194      -0.24230099 </v>
   <v>      -0.25999593       0.25215521      -0.24255349 </v>
   <v>       0.25415952      -0.25156530       0.25448198 </v>
   <v>       0.26714781      -0.24701971      -0.25730655 </v>
   <v>       0.30104226       0.07066777       0.05390427 </v>
   <v>       0.32179212      -0.42460790       0.04842349 </v>
   <v>       0.06622423       0.31634555       0.05527706 </v>
   <v>      -0.44523536       0.30537412       0.06648639 </v>
   <v>       0.05356023       0.31938237      -0.43407455 </v>
   <v>       0.06119237       0.06890076      -0.43838576 </v>
   <v>      -0.44749308       0.06981508       0.07051699 </v>
   <v>       0.06706685      -0.44136658       0.06584495 </v>
   <v>      -0.44711252       0.07063267       0.31937826 </v>
   <v>       0.07547271       0.05787707       0.31632819 </v>
   <v>       0.06549842      -0.44511668       0.32371686 </v>
   <v>       0.32354784       0.06485222      -0.45654780 </v>
   <v>      -0.23897607       0.49033112       0.00148286 </v>
   <v>       0.25250315      -0.00539582       0.24425436 </v>
   <v>      -0.00603365       0.25184402       0.24829493 </v>
   <v>       0.24724293      -0.49311601       0.01434096 </v>
   <v>       0.00820330      -0.24307593       0.49453537 </v>
   <v>       0.25570881      -0.49400571       0.24345189 </v>
   <v>      -0.24495200      -0.00315127      -0.49579429 </v>
   <v>       0.49581096       0.25662614       0.24460738 </v>
   <v>      -0.24034768      -0.00527956      -0.25165716 </v>
   <v>       0.49533674       0.00729086       0.25395619 </v>
   <v>      -0.25623342      -0.49918240      -0.24444897 </v>
   <v>       0.49925509      -0.25034631      -0.00326168 </v>
   <v>      -0.25799344      -0.25176108      -0.49946921 </v>
   <v>      -0.49585885       0.24885606      -0.01859189 </v>
   <v>       0.25193238       0.25130936       0.00133353 </v>
   <v>       0.01390315      -0.25778743      -0.24874315 </v>
   <v>       0.00962128       0.49406529       0.25557818 </v>
   <v>       0.25327614       0.25278506       0.49726276 </v>
   <v>      -0.25771934      -0.24624550      -0.00300578 </v>
   <v>      -0.00587938       0.24559302       0.49706215 </v>
   <v>       0.24781569      -0.00599388       0.49878151 </v>
   <v>      -0.49784801      -0.25306637      -0.25611156 </v>
   <v>      -0.49514366       0.00593248      -0.25550589 </v>
   <v>      -0.01011864      -0.48521771      -0.24891763 </v>
   <v>       0.29929006      -0.42875214       0.31013343 </v>
   <v>      -0.18284870      -0.18863270      -0.44475374 </v>
   <v>      -0.18838846       0.32020361       0.30090293 </v>
   <v>       0.30920258       0.30126461      -0.42909761 </v>
   <v>       0.30962194      -0.18820795       0.31396883 </v>
   <v>      -0.18252253      -0.43921622      -0.18831256 </v>
   <v>      -0.43697578       0.31745035       0.31270120 </v>
   <v>      -0.43588518       0.31815162      -0.18943792 </v>
   <v>      -0.18310475       0.29824312      -0.43894413 </v>
   <v>      -0.44165095      -0.18884713       0.30825080 </v>
   <v>      -0.19438187      -0.43663186       0.30791490 </v>
   <v>       0.32015830       0.31247216      -0.19596489 </v>
   <v>       0.31190514      -0.43930911      -0.18571847 </v>
   <v>      -0.43455877      -0.19862727      -0.18536045 </v>
   <v>      -0.20205580      -0.18426718      -0.18142048 </v>
   <v>       0.31646694      -0.19022518      -0.43873141 </v>
   <v>       0.00530519       0.00650099       0.48860594 </v>
   <v>       0.48871101       0.01145155      -0.00458262 </v>
   <v>       0.00139539      -0.49783165      -0.01169646 </v>
   <v>      -0.49962845       0.00087295      -0.49981940 </v>
   <v>      -0.00993568       0.49834878      -0.49016668 </v>
   <v>       0.49218145       0.49027360       0.00753452 </v>
   <v>      -0.42904703       0.06141335      -0.45037214 </v>
   <v>       0.06147712      -0.45023882      -0.42944978 </v>
   <v>      -0.43973257      -0.44638593      -0.17516572 </v>
   <v>      -0.43136207      -0.43876276       0.05825435 </v>
   <v>       0.05256144      -0.16918130      -0.43904653 </v>
   <v>      -0.43809902       0.05754618      -0.18854401 </v>
   <v>      -0.19271999       0.06419236      -0.43327281 </v>
   <v>      -0.19133585      -0.43122173       0.05798286 </v>
   <v>      -0.43969306      -0.19234437      -0.43570958 </v>
   <v>       0.06616847      -0.43520571      -0.18905431 </v>
   <v>      -0.43118375      -0.19925101       0.06172384 </v>
   <v>      -0.20747954      -0.42675722      -0.42500158 </v>
   <v>      -0.48830842       0.48735919      -0.24467298 </v>
   <v>       0.23965680      -0.24264474      -0.48429827 </v>
   <v>       0.49180289      -0.49259128       0.24640566 </v>
   <v>       0.49139705       0.24622930      -0.49108453 </v>
   <v>      -0.49922240       0.25119621      -0.24015870 </v>
   <v>      -0.48955537      -0.25503993       0.24962951 </v>
   <v>       0.24391134       0.49544709      -0.49622062 </v>
   <v>      -0.24598609       0.48862544      -0.49775012 </v>
   <v>      -0.25718016       0.26702773       0.49084617 </v>
   <v>      -0.25989869      -0.48840152       0.24775542 </v>
   <v>       0.25207983       0.49805900      -0.24744845 </v>
   <v>      -0.49189749      -0.27247006      -0.48960881 </v>
   <v>       0.05764078       0.30793637       0.31291903 </v>
   <v>       0.31968355       0.07243648       0.30239554 </v>
   <v>       0.31881389       0.30993874       0.05857530 </v>
   <v>       0.31212949       0.30386039       0.31156450 </v>
   <v>       0.24637458       0.24096256       0.25304838 </v>
   <v>      -0.25111321      -0.25639801      -0.24130380 </v>
   <v>      -0.42479118      -0.45237576      -0.42675238 </v>
   <v>       0.31027766      -0.44042602      -0.43031809 </v>
   <v>      -0.44497955      -0.43165017       0.31742681 </v>
   <v>      -0.44318506       0.31535591      -0.43079443 </v>
   <v>       0.49998498      -0.49919583      -0.49248998 </v>
  </varray>
 </structure>
 <varray name="primitive_index" >
  <v type="int" >        1 </v>
  <v type="int" >       65 </v>
  <v type="int" >       68 </v>
  <v type="int" >       77 </v>
  <v type="int" >      113 </v>
  <v type="int" >        8 </v>
  <v type="int" >       20 </v>
  <v type="int" >       13 </v>
  <v type="int" >       17 </v>
  <v type="int" >        5 </v>
  <v type="int" >       29 </v>
  <v type="int" >       14 </v>
  <v type="int" >       53 </v>
  <v type="int" >       50 </v>
  <v type="int" >        4 </v>
  <v type="int" >        2 </v>
  <v type="int" >       49 </v>
  <v type="int" >       96 </v>
  <v type="int" >       84 </v>
  <v type="int" >       72 </v>
  <v type="int" >       93 </v>
  <v type="int" >       80 </v>
  <v type="int" >      114 </v>
  <v type="int" >      120 </v>
  <v type="int" >      116 </v>
  <v type="int" >       78 </v>
  <v type="int" >      126 </v>
  <v type="int" >      117 </v>
  <v type="int" >      125 </v>
  <v type="int" >       24 </v>
  <v type="int" >       32 </v>
  <v type="int" >       54 </v>
  <v type="int" >       56 </v>
  <v type="int" >       30 </v>
  <v type="int" >       62 </v>
  <v type="int" >       66 </v>
  <v type="int" >       74 </v>
  <v type="int" >       69 </v>
  <v type="int" >       71 </v>
  <v type="int" >      101 </v>
  <v type="int" >       97 </v>
  <v type="int" >       67 </v>
  <v type="int" >       73 </v>
  <v type="int" >       83 </v>
  <v type="int" >       81 </v>
  <v type="int" >       89 </v>
  <v type="int" >       98 </v>
  <v type="int" >       12 </v>
  <v type="int" >       18 </v>
  <v type="int" >       21 </v>
  <v type="int" >       10 </v>
  <v type="int" >       45 </v>
  <v type="int" >       26 </v>
  <v type="int" >       36 </v>
  <v type="int" >       23 </v>
  <v type="int" >       52 </v>
  <v type="int" >       19 </v>
  <v type="int" >       60 </v>
  <v type="int" >       15 </v>
  <v type="int" >       48 </v>
  <v type="int" >        7 </v>
  <v type="int" >        6 </v>
  <v type="int" >       61 </v>
  <v type="int" >       25 </v>
  <v type="int" >       38 </v>
  <v type="int" >       16 </v>
  <v type="int" >       37 </v>
  <v type="int" >       34 </v>
  <v type="int" >       63 </v>
  <v type="int" >       51 </v>
  <v type="int" >       57 </v>
  <v type="int" >       90 </v>
  <v type="int" >      112 </v>
  <v type="int" >       88 </v>
  <v type="int" >      102 </v>
  <v type="int" >       94 </v>
  <v type="int" >      124 </v>
  <v type="int" >       87 </v>
  <v type="int" >      119 </v>
  <v type="int" >      104 </v>
  <v type="int" >       95 </v>
  <v type="int" >       92 </v>
  <v type="int" >      118 </v>
  <v type="int" >      122 </v>
  <v type="int" >      127 </v>
  <v type="int" >      128 </v>
  <v type="int" >      110 </v>
  <v type="int" >       33 </v>
  <v type="int" >        3 </v>
  <v type="int" >        9 </v>
  <v type="int" >       35 </v>
  <v type="int" >       41 </v>
  <v type="int" >       11 </v>
  <v type="int" >       99 </v>
  <v type="int" >      105 </v>
  <v type="int" >      123 </v>
  <v type="int" >       75 </v>
  <v type="int" >      109 </v>
  <v type="int" >      115 </v>
  <v type="int" >      100 </v>
  <v type="int" >       76 </v>
  <v type="int" >      111 </v>
  <v type="int" >      121 </v>
  <v type="int" >       79 </v>
  <v type="int" >      108 </v>
  <v type="int" >       59 </v>
  <v type="int" >       46 </v>
  <v type="int" >       27 </v>
  <v type="int" >       39 </v>
  <v type="int" >       55 </v>
  <v type="int" >       31 </v>
  <v type="int" >       42 </v>
  <v type="int" >       44 </v>
  <v type="int" >       40 </v>
  <v type="int" >       28 </v>
  <v type="int" >       58 </v>
  <v type="int" >       47 </v>
  <v type="int" >       85 </v>
  <v type="int" >       82 </v>
  <v type="int" >       70 </v>
  <v type="int" >       86 </v>
  <v type="int" >       22 </v>
  <v type="int" >       64 </v>
  <v type="int" >      107 </v>
  <v type="int" >      106 </v>
  <v type="int" >       91 </v>
  <v type="int" >      103 </v>
  <v type="int" >       43 </v>
 </varray>
 <kpoints>
  <generation param="Gamma">
   <v type="int" name="divisions">       2        2        2 </v>
   <v name="usershift">      0.00000000       0.00000000       0.00000000 </v>
   <v name="genvec1">      0.50000000       0.00000000       0.00000000 </v>
   <v name="genvec2">      0.00000000       0.50000000       0.00000000 </v>
   <v name="genvec3">      0.00000000       0.00000000       0.50000000 </v>
   <v name="shift">      0.00000000       0.00000000       0.00000000 </v>
  </generation>
  <varray name="kpointlist" >
   <v>       0.00000000       0.00000000       0.00000000 </v>
   <v>       0.50000000       0.00000000       0.00000000 </v>
   <v>       0.00000000       0.50000000       0.00000000 </v>
   <v>       0.50000000       0.50000000       0.00000000 </v>
   <v>       0.00000000       0.00000000       0.50000000 </v>
   <v>       0.50000000       0.00000000       0.50000000 </v>
   <v>       0.00000000       0.50000000       0.50000000 </v>
   <v>       0.50000000       0.50000000       0.50000000 </v>
  </varray>
  <varray name="weights" >
   <v>       0.12500000 </v>
   <v>       0.12500000 </v>
   <v>       0.12500000 </v>
   <v>       0.12500000 </v>
   <v>       0.12500000 </v>
   <v>       0.12500000 </v>
   <v>       0.12500000 </v>
   <v>       0.12500000 </v>
  </varray>
 </kpoints>
 <parameters>
  <separator name="general" >
   <i type="string" name="SYSTEM">potpaw_PBE@./ARUN.APL1ZEROSTATE</i>
   <i type="logical" name="LCOMPAT"> F  </i>
  </separator>
  <separator name="electronic" >
   <i type="string" name="PREC">accura</i>
   <i name="ENMAX">    500.00000000</i>
   <i name="ENAUG">    322.06900000</i>
   <i name="EDIFF">      0.00000001</i>
   <i type="int" name="IALGO">    38</i>
   <i type="int" name="IWAVPR">    10</i>
   <i type="int" name="NBANDS">   322</i>
   <i name="NELECT">    512.00000000</i>
   <i type="int" name="TURBO">     0</i>
   <i type="int" name="IRESTART">     0</i>
   <i type="int" name="NREBOOT">     0</i>
   <i type="int" name="NMIN">     0</i>
   <i name="EREF">      0.00000000</i>
   <separator name="electronic smearing" >
    <i type="int" name="ISMEAR">     0</i>
    <i name="SIGMA">      0.01000000</i>
    <i name="KSPACING">      0.50000000</i>
    <i type="logical" name="KGAMMA"> T  </i>
   </separator>
   <separator name="electronic projectors" >
    <i type="logical" name="LREAL"> F  </i>
    <v name="ROPT">      0.00000000</v>
    <i type="int" name="LMAXPAW">  -100</i>
    <i type="int" name="LMAXMIX">     2</i>
    <i type="logical" name="NLSPLINE"> F  </i>
   </separator>
   <separator name="electronic startup" >
    <i type="int" name="ISTART">     0</i>
    <i type="int" name="ICHARG">     2</i>
    <i type="int" name="INIWAV">     1</i>
   </separator>
   <separator name="electronic spin" >
    <i type="int" name="ISPIN">     1</i>
    <i type="logical" name="LNONCOLLINEAR"> F  </i>
    <v name="MAGMOM">      1.00000000      1.00000000      1.00000000      1.00000000      1.00000000      1.00000000      1.00000000      1.00000000      1.00000000      1.00000000      1.00000000      1.00000000      1.00000000      1.00000000      1.00000000      1.00000000      1.00000000      1.00000000      1.00000000      1.00000000
      1.00000000      1.00000000      1.00000000      1.00000000      1.00000000      1.00000000      1.00000000      1.00000000      1.00000000      1.00000000      1.00000000      1.00000000      1.00000000      1.00000000      1.00000000      1.00000000      1.00000000      1.00000000      1.00000000      1.00000000
      1.00000000      1.00000000      1.00000000      1.00000000      1.00000000      1.00000000      1.00000000      1.00000000      1.00000000      1.00000000      1.00000000      1.00000000      1.00000000      1.00000000      1.00000000      1.00000000      1.00000000      1.00000000      1.00000000      1.00000000
      1.00000000      1.00000000      1.00000000      1.00000000      1.00000000      1.00000000      1.00000000      1.00000000      1.00000000      1.00000000      1.00000000      1.00000000      1.00000000      1.00000000      1.00000000      1.00000000      1.00000000      1.00000000      1.00000000      1.00000000
      1.00000000      1.00000000      1.00000000      1.00000000      1.00000000      1.00000000      1.00000000      1.00000000      1.00000000      1.00000000      1.00000000      1.00000000      1.00000000      1.00000000      1.00000000      1.00000000      1.00000000      1.00000000      1.00000000      1.00000000
      1.00000000      1.00000000      1.00000000      1.00000000      1.00000000      1.00000000      1.00000000      1.00000000      1.00000000      1.00000000      1.00000000      1.00000000      1.00000000      1.00000000      1.00000000      1.00000000      1.00000000      1.00000000      1.00000000      1.00000000
      1.00000000      1.00000000      1.00000000      1.00000000      1.00000000      1.00000000      1.00000000      1.00000000</v>
    <i name="NUPDOWN">     -1.00000000</i>
    <i type="logical" name="LSORBIT"> F  </i>
    <v name="SAXIS">      0.00000000      0.00000000      1.00000000</v>
    <i type="logical" name="LSPIRAL"> F  </i>
    <v name="QSPIRAL">      0.00000000      0.00000000      0.00000000</v>
    <i type="logical" name="LZEROZ"> F  </i>
   </separator>
   <separator name="electronic exchange-correlation" >
    <i type="logical" name="LASPH"> F  </i>
    <i type="logical" name="LMETAGGA"> F  </i>
   </separator>
   <separator name="electronic convergence" >
    <i type="int" name="NELM">   120</i>
    <i type="int" name="NELMDL">    -5</i>
    <i type="int" name="NELMIN">     4</i>
    <i name="ENINI">    500.00000000</i>
    <separator name="electronic convergence detail" >
     <i type="logical" name="LDIAG"> T  </i>
     <i type="logical" name="LSUBROT"> F  </i>
     <i name="WEIMIN">      0.00000000</i>
     <i name="EBREAK">      0.00000000</i>
     <i name="DEPER">      0.30000000</i>
     <i type="int" name="NRMM">     4</i>
     <i name="TIME">      0.40000000</i>
    </separator>
   </separator>
   <separator name="electronic mixer" >
    <i name="AMIX">      0.40000000</i>
    <i name="BMIX">      1.00000000</i>
    <i name="AMIN">      0.10000000</i>
    <i name="AMIX_MAG">      1.60000000</i>
    <i name="BMIX_MAG">      1.00000000</i>
    <separator name="electronic mixer details" >
     <i type="int" name="IMIX">     4</i>
     <i type="logical" name="MIXFIRST"> F  </i>
     <i type="int" name="MAXMIX">   -45</i>
     <i name="WC">    100.00000000</i>
     <i type="int" name="INIMIX">     1</i>
     <i type="int" name="MIXPRE">     1</i>
     <i type="int" name="MREMOVE">     5</i>
    </separator>
   </separator>
   <separator name="electronic dipolcorrection" >
    <i type="logical" name="LDIPOL"> F  </i>
    <i type="logical" name="LMONO"> F  </i>
    <i type="int" name="IDIPOL">     0</i>
    <i name="EPSILON">      1.00000000</i>
    <v name="DIPOL">   -100.00000000   -100.00000000   -100.00000000</v>
    <i name="EFIELD">      0.00000000</i>
   </separator>
  </separator>
  <separator name="grids" >
   <i type="int" name="NGX">   120</i>
   <i type="int" name="NGY">   120</i>
   <i type="int" name="NGZ">   120</i>
   <i type="int" name="NGXF">   240</i>
   <i type="int" name="NGYF">   240</i>
   <i type="int" name="NGZF">   240</i>
   <i type="logical" name="ADDGRID"> T  </i>
  </separator>
  <separator name="ionic" >
   <i type="int" name="NSW">     0</i>
   <i type="int" name="IBRION">    -1</i>
   <i type="int" name="MDALGO">     0</i>
   <i type="int" name="ISIF">     2</i>
   <i name="PSTRESS">      0.00000000</i>
   <i name="EDIFFG">      0.00000010</i>
   <i type="int" name="NFREE">     0</i>
   <i name="POTIM">      0.50000000</i>
   <i name="SMASS">     -3.00000000</i>
   <i name="SCALEE">      1.00000000</i>
  </separator>
  <separator name="ionic md" >
   <i name="TEBEG">      0.00010000</i>
   <i name="TEEND">      0.00010000</i>
   <i type="int" name="NBLOCK">     1</i>
   <i type="int" name="KBLOCK">     1</i>
   <i type="int" name="NPACO">   256</i>
   <i name="APACO">     16.00000000</i>
  </separator>
  <separator name="symmetry" >
   <i type="int" name="ISYM">     2</i>
   <i name="SYMPREC">      0.00001000</i>
  </separator>
  <separator name="dos" >
   <i type="int" name="LORBIT">     0</i>
   <v name="RWIGS">     -1.00000000</v>
   <i type="int" name="NEDOS">   301</i>
   <i name="EMIN">     10.00000000</i>
   <i name="EMAX">    -10.00000000</i>
   <i name="EFERMI">      0.00000000</i>
  </separator>
  <separator name="writing" >
   <i type="int" name="NWRITE">     2</i>
   <i type="logical" name="LWAVE"> F  </i>
   <i type="logical" name="LDOWNSAMPLE"> F  </i>
   <i type="logical" name="LCHARG"> F  </i>
   <i type="logical" name="LPARD"> F  </i>
   <i type="logical" name="LVTOT"> F  </i>
   <i type="logical" name="LVHAR"> F  </i>
   <i type="logical" name="LELF"> F  </i>
   <i type="logical" name="LOPTICS"> F  </i>
   <v name="STM">      0.00000000      0.00000000      0.00000000      0.00000000      0.00000000      0.00000000      0.00000000</v>
  </separator>
  <separator name="performance" >
   <i type="int" name="NPAR">     2</i>
   <i type="int" name="NSIM">     4</i>
   <i type="int" name="NBLK">    -1</i>
   <i type="logical" name="LPLANE"> T  </i>
   <i type="logical" name="LSCALAPACK"> T  </i>
   <i type="logical" name="LSCAAWARE"> F  </i>
   <i type="logical" name="LSCALU"> F  </i>
   <i type="logical" name="LASYNC"> F  </i>
   <i type="logical" name="LORBITALREAL"> F  </i>
  </separator>
  <separator name="miscellaneous" >
   <i type="int" name="IDIOT">     3</i>
   <i type="int" name="ISPECIAL">     0</i>
   <i type="logical" name="LMUSIC"> F  </i>
   <v name="POMASS">     28.08500000</v>
   <v name="DARWINR">      0.00000000</v>
   <v name="DARWINV">      1.00000000</v>
   <i type="logical" name="LCORR"> T  </i>
  </separator>
  <i type="logical" name="GGA_COMPAT"> T  </i>
  <i type="logical" name="LBERRY"> F  </i>
  <i type="int" name="ICORELEVEL">     0</i>
  <i type="logical" name="LDAU"> F  </i>
  <i type="int" name="I_CONSTRAINED_M">     0</i>
  <separator name="electronic exchange-correlation" >
   <i type="string" name="GGA">--</i>
   <i type="int" name="VOSKOWN">     0</i>
   <i type="logical" name="LHFCALC"> F  </i>
   <i type="string" name="PRECFOCK"></i>
   <i type="logical" name="LSYMGRAD"> F  </i>
   <i type="logical" name="LHFONE"> F  </i>
   <i type="logical" name="LRHFCALC"> F  </i>
   <i type="logical" name="LTHOMAS"> F  </i>
   <i type="logical" name="LMODELHF"> F  </i>
   <i name="ENCUT4O">     -1.00000000</i>
   <i type="int" name="EXXOEP">     0</i>
   <i type="int" name="FOURORBIT">     0</i>
   <i name="AEXX">      0.00000000</i>
   <i name="HFALPHA">      0.00000000</i>
   <i name="MCALPHA">      0.00000000</i>
   <i name="ALDAX">      1.00000000</i>
   <i name="AGGAX">      1.00000000</i>
   <i name="ALDAC">      1.00000000</i>
   <i name="AGGAC">      1.00000000</i>
   <i type="int" name="NKREDX">     1</i>
   <i type="int" name="NKREDY">     1</i>
   <i type="int" name="NKREDZ">     1</i>
   <i type="logical" name="SHIFTRED"> F  </i>
   <i type="logical" name="ODDONLY"> F  </i>
   <i type="logical" name="EVENONLY"> F  </i>
   <i type="int" name="LMAXFOCK">     0</i>
   <i type="int" name="NMAXFOCKAE">     0</i>
   <i type="logical" name="LFOCKAEDFT"> F  </i>
   <i name="HFSCREEN">      0.00000000</i>
   <i name="HFSCREENC">      0.00000000</i>
   <i type="int" name="NBANDSGWLOW">     0</i>
  </separator>
  <separator name="vdW DFT" >
   <i type="logical" name="LUSE_VDW"> F  </i>
   <i name="Zab_VDW">     -0.84910000</i>
   <i name="PARAM1">      0.12340000</i>
   <i name="PARAM2">      1.00000000</i>
   <i name="PARAM3">      0.00000000</i>
  </separator>
  <separator name="model GW" >
   <i type="int" name="MODEL_GW">     0</i>
   <i name="MODEL_EPS0">     12.26607635</i>
   <i name="MODEL_ALPHA">      1.00000000</i>
  </separator>
  <separator name="linear response parameters" >
   <i type="logical" name="LEPSILON"> F  </i>
   <i type="logical" name="LRPA"> F  </i>
   <i type="logical" name="LNABLA"> F  </i>
   <i type="logical" name="LVEL"> F  </i>
   <i type="int" name="KINTER">     0</i>
   <i name="CSHIFT">      0.10000000</i>
   <i name="OMEGAMAX">     -1.00000000</i>
   <i name="DEG_THRESHOLD">      0.00200000</i>
   <i name="RTIME">     -0.10000000</i>
   <i name="WPLASMAI">      0.00000000</i>
   <v name="DFIELD">      0.00000000      0.00000000      0.00000000</v>
   <v name="WPLASMA">      0.00000000      0.00000000      0.00000000      0.00000000      0.00000000      0.00000000      0.00000000      0.00000000      0.00000000</v>
  </separator>
  <separator name="orbital magnetization" >
   <i type="logical" name="NUCIND"> F  </i>
   <v name="MAGPOS">      0.00000000      0.00000000      0.00000000</v>
   <i type="logical" name="LNICSALL"> T  </i>
   <i type="logical" name="ORBITALMAG"> F  </i>
   <i type="logical" name="LMAGBLOCH"> F  </i>
   <i type="logical" name="LCHIMAG"> F  </i>
   <i type="logical" name="LGAUGE"> T  </i>
   <i type="int" name="MAGATOM">     0</i>
   <v name="MAGDIPOL">      0.00000000      0.00000000      0.00000000</v>
   <v name="AVECCONST">      0.00000000      0.00000000      0.00000000</v>
  </separator>
  <separator name="response functions" >
   <i type="logical" name="LADDER"> F  </i>
   <i type="logical" name="LRPAFORCE"> F  </i>
   <i type="logical" name="LFXC"> F  </i>
   <i type="logical" name="LHARTREE"> T  </i>
   <i type="int" name="IBSE">     0</i>
   <v type="int" name="KPOINT">    -1     0     0     0</v>
   <i type="logical" name="LTCTE"> F  </i>
   <i type="logical" name="LTETE"> F  </i>
   <i type="logical" name="LTRIPLET"> F  </i>
   <i type="logical" name="LFXCEPS"> F  </i>
   <i type="logical" name="LFXHEG"> F  </i>
   <i type="int" name="NATURALO">     2</i>
   <i type="logical" name="L2ORDER"> F  </i>
   <i type="logical" name="LMP2LT"> F  </i>
   <i type="logical" name="LUSEW"> F  </i>
   <i name="ENCUTGW">     -2.00000000</i>
   <i name="ENCUTGWSOFT">     -2.00000000</i>
   <i name="ENCUTLF">     -1.00000000</i>
   <i type="int" name="LMAXMP2">    -1</i>
   <i name="SCISSOR">      0.00000000</i>
   <i type="int" name="NOMEGA">     0</i>
   <i type="int" name="NOMEGAR">     0</i>
   <i type="int" name="NBANDSGW">    -1</i>
   <i type="int" name="NBANDSO">    -1</i>
   <i type="int" name="NBANDSV">    -1</i>
   <i type="int" name="NELM">   120</i>
   <i type="int" name="NELMHF">     1</i>
   <i type="int" name="DIM">     3</i>
   <i type="int" name="ANTIRES">     0</i>
   <i name="OMEGAMAX">    -30.00000000</i>
   <i name="OMEGAMIN">    -30.00000000</i>
   <i name="OMEGATL">   -200.00000000</i>
   <i type="int" name="OMEGAGRID">   140</i>
   <i name="CSHIFT">     -0.10000000</i>
   <i type="logical" name="SELFENERGY"> F  </i>
   <i type="logical" name="LSPECTRAL"> F  </i>
   <i type="logical" name="LSPECTRALGW"> F  </i>
   <i type="logical" name="LSINGLES"> F  </i>
   <i type="logical" name="LFERMIGW"> F  </i>
   <i type="logical" name="ODDONLYGW"> F  </i>
   <i type="logical" name="EVENONLYGW"> F  </i>
   <i type="int" name="NKREDLFX">     1</i>
   <i type="int" name="NKREDLFY">     1</i>
   <i type="int" name="NKREDLFZ">     1</i>
   <i type="int" name="MAXMEM">  2800</i>
   <i type="int" name="TELESCOPE">     0</i>
   <i type="int" name="TAUPAR">     1</i>
   <i type="int" name="OMEGAPAR">    -1</i>
   <i name="LAMBDA">      1.00000000</i>
  </separator>
  <separator name="External order field" >
   <i name="OFIELD_KAPPA">      0.00000000</i>
   <v name="OFIELD_K">      0.00000000      0.00000000      0.00000000</v>
   <i name="OFIELD_Q6_NEAR">      0.00000000</i>
   <i name="OFIELD_Q6_FAR">      0.00000000</i>
   <i name="OFIELD_A">      0.00000000</i>
  </separator>
 </parameters>
 <atominfo>
  <atoms>     128 </atoms>
  <types>       1 </types>
  <array name="atoms" >
   <dimension dim="1">ion</dimension>
   <field type="string">element</field>
   <field type="int">atomtype</field>
   <set>
    <rc><c>Si</c><c>   1</c></rc>
    <rc><c>Si</c><c>   1</c></rc>
    <rc><c>Si</c><c>   1</c></rc>
    <rc><c>Si</c><c>   1</c></rc>
    <rc><c>Si</c><c>   1</c></rc>
    <rc><c>Si</c><c>   1</c></rc>
    <rc><c>Si</c><c>   1</c></rc>
    <rc><c>Si</c><c>   1</c></rc>
    <rc><c>Si</c><c>   1</c></rc>
    <rc><c>Si</c><c>   1</c></rc>
    <rc><c>Si</c><c>   1</c></rc>
    <rc><c>Si</c><c>   1</c></rc>
    <rc><c>Si</c><c>   1</c></rc>
    <rc><c>Si</c><c>   1</c></rc>
    <rc><c>Si</c><c>   1</c></rc>
    <rc><c>Si</c><c>   1</c></rc>
    <rc><c>Si</c><c>   1</c></rc>
    <rc><c>Si</c><c>   1</c></rc>
    <rc><c>Si</c><c>   1</c></rc>
    <rc><c>Si</c><c>   1</c></rc>
    <rc><c>Si</c><c>   1</c></rc>
    <rc><c>Si</c><c>   1</c></rc>
    <rc><c>Si</c><c>   1</c></rc>
    <rc><c>Si</c><c>   1</c></rc>
    <rc><c>Si</c><c>   1</c></rc>
    <rc><c>Si</c><c>   1</c></rc>
    <rc><c>Si</c><c>   1</c></rc>
    <rc><c>Si</c><c>   1</c></rc>
    <rc><c>Si</c><c>   1</c></rc>
    <rc><c>Si</c><c>   1</c></rc>
    <rc><c>Si</c><c>   1</c></rc>
    <rc><c>Si</c><c>   1</c></rc>
    <rc><c>Si</c><c>   1</c></rc>
    <rc><c>Si</c><c>   1</c></rc>
    <rc><c>Si</c><c>   1</c></rc>
    <rc><c>Si</c><c>   1</c></rc>
    <rc><c>Si</c><c>   1</c></rc>
    <rc><c>Si</c><c>   1</c></rc>
    <rc><c>Si</c><c>   1</c></rc>
    <rc><c>Si</c><c>   1</c></rc>
    <rc><c>Si</c><c>   1</c></rc>
    <rc><c>Si</c><c>   1</c></rc>
    <rc><c>Si</c><c>   1</c></rc>
    <rc><c>Si</c><c>   1</c></rc>
    <rc><c>Si</c><c>   1</c></rc>
    <rc><c>Si</c><c>   1</c></rc>
    <rc><c>Si</c><c>   1</c></rc>
    <rc><c>Si</c><c>   1</c></rc>
    <rc><c>Si</c><c>   1</c></rc>
    <rc><c>Si</c><c>   1</c></rc>
    <rc><c>Si</c><c>   1</c></rc>
    <rc><c>Si</c><c>   1</c></rc>
    <rc><c>Si</c><c>   1</c></rc>
    <rc><c>Si</c><c>   1</c></rc>
    <rc><c>Si</c><c>   1</c></rc>
    <rc><c>Si</c><c>   1</c></rc>
    <rc><c>Si</c><c>   1</c></rc>
    <rc><c>Si</c><c>   1</c></rc>
    <rc><c>Si</c><c>   1</c></rc>
    <rc><c>Si</c><c>   1</c></rc>
    <rc><c>Si</c><c>   1</c></rc>
    <rc><c>Si</c><c>   1</c></rc>
    <rc><c>Si</c><c>   1</c></rc>
    <rc><c>Si</c><c>   1</c></rc>
    <rc><c>Si</c><c>   1</c></rc>
    <rc><c>Si</c><c>   1</c></rc>
    <rc><c>Si</c><c>   1</c></rc>
    <rc><c>Si</c><c>   1</c></rc>
    <rc><c>Si</c><c>   1</c></rc>
    <rc><c>Si</c><c>   1</c></rc>
    <rc><c>Si</c><c>   1</c></rc>
    <rc><c>Si</c><c>   1</c></rc>
    <rc><c>Si</c><c>   1</c></rc>
    <rc><c>Si</c><c>   1</c></rc>
    <rc><c>Si</c><c>   1</c></rc>
    <rc><c>Si</c><c>   1</c></rc>
    <rc><c>Si</c><c>   1</c></rc>
    <rc><c>Si</c><c>   1</c></rc>
    <rc><c>Si</c><c>   1</c></rc>
    <rc><c>Si</c><c>   1</c></rc>
    <rc><c>Si</c><c>   1</c></rc>
    <rc><c>Si</c><c>   1</c></rc>
    <rc><c>Si</c><c>   1</c></rc>
    <rc><c>Si</c><c>   1</c></rc>
    <rc><c>Si</c><c>   1</c></rc>
    <rc><c>Si</c><c>   1</c></rc>
    <rc><c>Si</c><c>   1</c></rc>
    <rc><c>Si</c><c>   1</c></rc>
    <rc><c>Si</c><c>   1</c></rc>
    <rc><c>Si</c><c>   1</c></rc>
    <rc><c>Si</c><c>   1</c></rc>
    <rc><c>Si</c><c>   1</c></rc>
    <rc><c>Si</c><c>   1</c></rc>
    <rc><c>Si</c><c>   1</c></rc>
    <rc><c>Si</c><c>   1</c></rc>
    <rc><c>Si</c><c>   1</c></rc>
    <rc><c>Si</c><c>   1</c></rc>
    <rc><c>Si</c><c>   1</c></rc>
    <rc><c>Si</c><c>   1</c></rc>
    <rc><c>Si</c><c>   1</c></rc>
    <rc><c>Si</c><c>   1</c></rc>
    <rc><c>Si</c><c>   1</c></rc>
    <rc><c>Si</c><c>   1</c></rc>
    <rc><c>Si</c><c>   1</c></rc>
    <rc><c>Si</c><c>   1</c></rc>
    <rc><c>Si</c><c>   1</c></rc>
    <rc><c>Si</c><c>   1</c></rc>
    <rc><c>Si</c><c>   1</c></rc>
    <rc><c>Si</c><c>   1</c></rc>
    <rc><c>Si</c><c>   1</c></rc>
    <rc><c>Si</c><c>   1</c></rc>
    <rc><c>Si</c><c>   1</c></rc>
    <rc><c>Si</c><c>   1</c></rc>
    <rc><c>Si</c><c>   1</c></rc>
    <rc><c>Si</c><c>   1</c></rc>
    <rc><c>Si</c><c>   1</c></rc>
    <rc><c>Si</c><c>   1</c></rc>
    <rc><c>Si</c><c>   1</c></rc>
    <rc><c>Si</c><c>   1</c></rc>
    <rc><c>Si</c><c>   1</c></rc>
    <rc><c>Si</c><c>   1</c></rc>
    <rc><c>Si</c><c>   1</c></rc>
    <rc><c>Si</c><c>   1</c></rc>
    <rc><c>Si</c><c>   1</c></rc>
    <rc><c>Si</c><c>   1</c></rc>
    <rc><c>Si</c><c>   1</c></rc>
    <rc><c>Si</c><c>   1</c></rc>
    <rc><c>Si</c><c>   1</c></rc>
   </set>
  </array>
  <array name="atomtypes" >
   <dimension dim="1">type</dimension>
   <field type="int">atomspertype</field>
   <field type="string">element</field>
   <field>mass</field>
   <field>valence</field>
   <field type="string">pseudopotential</field>
   <set>
    <rc><c> 128</c><c>Si</c><c>     28.08500000</c><c>      4.00000000</c><c> PAW_PBE Si 05Jan2001                   </c></rc>
   </set>
  </array>
 </atominfo>
 <structure name="initialpos" >
  <crystal>
   <varray name="basis" >
    <v>       0.00000000      10.93733369      10.93733369 </v>
    <v>      10.93733369       0.00000000      10.93733369 </v>
    <v>      10.93733369      10.93733369       0.00000000 </v>
   </varray>
   <i name="volume">   2616.76295363 </i>
   <varray name="rec_basis" >
    <v>      -0.04571498       0.04571498       0.04571498 </v>
    <v>       0.04571498      -0.04571498       0.04571498 </v>
    <v>       0.04571498       0.04571498      -0.04571498 </v>
   </varray>
  </crystal>
  <varray name="positions" >
   <v>       0.99662066       0.00228841       0.00516118 </v>
   <v>       0.25991905       0.98667769       0.00514832 </v>
   <v>       0.48871101       0.01145155       0.99541738 </v>
   <v>       0.74329774       0.00019762       0.00654314 </v>
   <v>       0.99276601       0.25099080       0.00475583 </v>
   <v>       0.25193238       0.25130936       0.00133353 </v>
   <v>       0.50414115       0.24885606       0.98140811 </v>
   <v>       0.76529298       0.25195776       0.99704105 </v>
   <v>       0.00139539       0.50216835       0.98830354 </v>
   <v>       0.24724293       0.50688399       0.01434096 </v>
   <v>       0.49218145       0.49027360       0.00753452 </v>
   <v>       0.76102393       0.49033112       0.00148286 </v>
   <v>       0.99806643       0.76527679       0.99183205 </v>
   <v>       0.25041198       0.75242870       0.99906579 </v>
   <v>       0.49925509       0.74965369       0.99673832 </v>
   <v>       0.74228066       0.75375450       0.99699422 </v>
   <v>       0.02019625       0.99121204       0.24288579 </v>
   <v>       0.25250315       0.99460418       0.24425436 </v>
   <v>       0.49533674       0.00729086       0.25395619 </v>
   <v>       0.75833170       0.99478255       0.24848788 </v>
   <v>       0.99396635       0.25184402       0.24829493 </v>
   <v>       0.24637458       0.24096256       0.25304838 </v>
   <v>       0.49581096       0.25662614       0.24460738 </v>
   <v>       0.75340837       0.24655383       0.25202951 </v>
   <v>       0.00962128       0.49406529       0.25557818 </v>
   <v>       0.25570881       0.50599429       0.24345189 </v>
   <v>       0.49180289       0.50740872       0.24640566 </v>
   <v>       0.74010131       0.51159848       0.24775542 </v>
   <v>       0.99523365       0.74362093       0.24755138 </v>
   <v>       0.25415952       0.74843470       0.25448198 </v>
   <v>       0.51044463       0.74496007       0.24962951 </v>
   <v>       0.74441861       0.75955404       0.25168164 </v>
   <v>       0.00530519       0.00650099       0.48860594 </v>
   <v>       0.24781569       0.99400612       0.49878151 </v>
   <v>       0.50037155       0.00087295       0.50018060 </v>
   <v>       0.75504800       0.99684873       0.50420571 </v>
   <v>       0.99412062       0.24559302       0.49706215 </v>
   <v>       0.25327614       0.25278506       0.49726276 </v>
   <v>       0.49139705       0.24622930       0.50891547 </v>
   <v>       0.74281984       0.26702773       0.49084617 </v>
   <v>       0.99006432       0.49834878       0.50983332 </v>
   <v>       0.24391134       0.49544709       0.50377938 </v>
   <v>       0.49998498       0.50080417       0.50751002 </v>
   <v>       0.75401391       0.48862544       0.50224988 </v>
   <v>       0.00820330       0.75692407       0.49453537 </v>
   <v>       0.23965680       0.75735526       0.51570173 </v>
   <v>       0.50810251       0.72752994       0.51039119 </v>
   <v>       0.74200656       0.74823892       0.50053079 </v>
   <v>       0.99596668       0.00283218       0.74901131 </v>
   <v>       0.24868197       0.00742703       0.75100944 </v>
   <v>       0.50485634       0.00593248       0.74449411 </v>
   <v>       0.75965232       0.99472044       0.74834284 </v>
   <v>       0.99483173       0.25145883       0.74966461 </v>
   <v>       0.24428544       0.25764194       0.75769901 </v>
   <v>       0.50077760       0.25119621       0.75984130 </v>
   <v>       0.74000407       0.25215521       0.75744651 </v>
   <v>       0.98988136       0.51478229       0.75108237 </v>
   <v>       0.25207983       0.49805900       0.75255155 </v>
   <v>       0.51169158       0.48735919       0.75532702 </v>
   <v>       0.74376658       0.50081760       0.75555103 </v>
   <v>       0.01390315       0.74221257       0.75125685 </v>
   <v>       0.26714781       0.75298029       0.74269345 </v>
   <v>       0.50215199       0.74693363       0.74388844 </v>
   <v>       0.74888679       0.74360199       0.75869620 </v>
   <v>       0.06274678       0.06296619       0.06072834 </v>
   <v>       0.30104226       0.07066777       0.05390427 </v>
   <v>       0.55250692       0.06981508       0.07051699 </v>
   <v>       0.81307493       0.07408617       0.06227930 </v>
   <v>       0.06622423       0.31634555       0.05527706 </v>
   <v>       0.31881389       0.30993874       0.05857530 </v>
   <v>       0.55476464       0.30537412       0.06648639 </v>
   <v>       0.81227604       0.30538635       0.07006299 </v>
   <v>       0.06706685       0.55863342       0.06584495 </v>
   <v>       0.32179212       0.57539210       0.04842349 </v>
   <v>       0.56863793       0.56123724       0.05825435 </v>
   <v>       0.80866415       0.56877827       0.05798286 </v>
   <v>       0.07103713       0.81346350       0.05635290 </v>
   <v>       0.31745770       0.80560248       0.05893651 </v>
   <v>       0.56881625       0.80074899       0.06172384 </v>
   <v>       0.81681016       0.81032998       0.06918701 </v>
   <v>       0.07547271       0.05787707       0.31632819 </v>
   <v>       0.31968355       0.07243648       0.30239554 </v>
   <v>       0.55288748       0.07063267       0.31937826 </v>
   <v>       0.80880237       0.06885866       0.30676607 </v>
   <v>       0.05764078       0.30793637       0.31291903 </v>
   <v>       0.31212949       0.30386039       0.31156450 </v>
   <v>       0.56302422       0.31745035       0.31270120 </v>
   <v>       0.81161154       0.32020361       0.30090293 </v>
   <v>       0.06549842       0.55488332       0.32371686 </v>
   <v>       0.29929006       0.57124786       0.31013343 </v>
   <v>       0.55502045       0.56834983       0.31742681 </v>
   <v>       0.80561813       0.56336814       0.30791490 </v>
   <v>       0.05277242       0.80896693       0.31535568 </v>
   <v>       0.30962194       0.81179205       0.31396883 </v>
   <v>       0.55834905       0.81115287       0.30825080 </v>
   <v>       0.81189987       0.82084005       0.30777100 </v>
   <v>       0.06119237       0.06890076       0.56161424 </v>
   <v>       0.32354784       0.06485222       0.54345220 </v>
   <v>       0.57095297       0.06141335       0.54962786 </v>
   <v>       0.80728001       0.06419236       0.56672719 </v>
   <v>       0.05356023       0.31938237       0.56592545 </v>
   <v>       0.30920258       0.30126461       0.57090239 </v>
   <v>       0.55681494       0.31535591       0.56920557 </v>
   <v>       0.81689525       0.29824312       0.56105587 </v>
   <v>       0.06147712       0.54976118       0.57055022 </v>
   <v>       0.31027766       0.55957398       0.56968191 </v>
   <v>       0.57520882       0.54762424       0.57324762 </v>
   <v>       0.79252046       0.57324278       0.57499842 </v>
   <v>       0.05256144       0.83081870       0.56095347 </v>
   <v>       0.31646694       0.80977482       0.56126859 </v>
   <v>       0.56030694       0.80765563       0.56429042 </v>
   <v>       0.81715130       0.81136730       0.55524626 </v>
   <v>       0.06566647       0.06055474       0.81089165 </v>
   <v>       0.30626048       0.06225752       0.81013384 </v>
   <v>       0.56190098       0.05754618       0.81145599 </v>
   <v>       0.80707300       0.04906541       0.82868025 </v>
   <v>       0.07162334       0.31635483       0.80536472 </v>
   <v>       0.32015830       0.31247216       0.80403511 </v>
   <v>       0.56411482       0.31815162       0.81056208 </v>
   <v>       0.82013518       0.31679485       0.81215075 </v>
   <v>       0.06616847       0.56479429       0.81094569 </v>
   <v>       0.31190514       0.56069089       0.81428153 </v>
   <v>       0.56026743       0.55361407       0.82483428 </v>
   <v>       0.81747747       0.56078378       0.81168744 </v>
   <v>       0.06999872       0.80964513       0.80767557 </v>
   <v>       0.31082495       0.81164344       0.81007419 </v>
   <v>       0.56544123       0.80137273       0.81463955 </v>
   <v>       0.79794420       0.81573282       0.81857952 </v>
  </varray>
 </structure>
 <calculation>
  <scstep>
   <time name="dav">   69.91   69.94</time>
   <time name="total">   70.91   70.94</time>
   <energy>
    <i name="alphaZ">    210.77028614 </i>
    <i name="ewald"> -14471.40652004 </i>
    <i name="hartreedc">   -755.82731597 </i>
    <i name="XCdc">  -1195.33423675 </i>
    <i name="pawpsdc">   4221.13331941 </i>
    <i name="pawaedc">  -1969.18571412 </i>
    <i name="eentropy">     -0.00162006 </i>
    <i name="bandstr">   2150.95510311 </i>
    <i name="atom">  13192.48085998 </i>
    <i name="e_fr_energy">   1383.58416171 </i>
    <i name="e_wo_entrp">   1383.58578178 </i>
    <i name="e_0_energy">   1383.58497175 </i>
   </energy>
  </scstep>
  <scstep>
   <time name="dav">   79.29   79.31</time>
   <time name="total">   79.29   79.31</time>
   <energy>
    <i name="e_fr_energy">   -535.86017692 </i>
    <i name="e_wo_entrp">   -535.86017692 </i>
    <i name="e_0_energy">   -535.86017692 </i>
   </energy>
  </scstep>
  <scstep>
   <time name="dav">   81.73   81.75</time>
   <time name="total">   81.74   81.75</time>
   <energy>
    <i name="e_fr_energy">   -686.39940977 </i>
    <i name="e_wo_entrp">   -686.39940977 </i>
    <i name="e_0_energy">   -686.39940977 </i>
   </energy>
  </scstep>
  <scstep>
   <time name="dav">   80.31   80.34</time>
   <time name="total">   80.32   80.34</time>
   <energy>
    <i name="e_fr_energy">   -690.59077789 </i>
    <i name="e_wo_entrp">   -690.59077789 </i>
    <i name="e_0_energy">   -690.59077789 </i>
   </energy>
  </scstep>
  <scstep>
   <time name="dav">   81.33   81.36</time>
   <time name="total">   84.57   84.59</time>
   <energy>
    <i name="e_fr_energy">   -690.73424812 </i>
    <i name="e_wo_entrp">   -690.73424812 </i>
    <i name="e_0_energy">   -690.73424812 </i>
   </energy>
  </scstep>
  <scstep>
   <time name="dav">   77.62   77.63</time>
   <time name="total">   81.83   81.85</time>
   <energy>
    <i name="e_fr_energy">   -682.22039841 </i>
    <i name="e_wo_entrp">   -682.22039841 </i>
    <i name="e_0_energy">   -682.22039841 </i>
   </energy>
  </scstep>
  <scstep>
   <time name="dav">   76.16   76.20</time>
   <time name="total">   80.32   80.36</time>
   <energy>
    <i name="e_fr_energy">   -678.68603468 </i>
    <i name="e_wo_entrp">   -678.68603468 </i>
    <i name="e_0_energy">   -678.68603468 </i>
   </energy>
  </scstep>
  <scstep>
   <time name="dav">   76.39   76.42</time>
   <time name="total">   80.58   80.61</time>
   <energy>
    <i name="e_fr_energy">   -678.74002607 </i>
    <i name="e_wo_entrp">   -678.74002607 </i>
    <i name="e_0_energy">   -678.74002607 </i>
   </energy>
  </scstep>
  <scstep>
   <time name="dav">   79.59   79.62</time>
   <time name="total">   83.76   83.79</time>
   <energy>
    <i name="e_fr_energy">   -678.76109832 </i>
    <i name="e_wo_entrp">   -678.76109832 </i>
    <i name="e_0_energy">   -678.76109832 </i>
   </energy>
  </scstep>
  <scstep>
   <time name="dav">   78.11   78.14</time>
   <time name="total">   82.24   82.27</time>
   <energy>
    <i name="e_fr_energy">   -678.76367685 </i>
    <i name="e_wo_entrp">   -678.76367685 </i>
    <i name="e_0_energy">   -678.76367685 </i>
   </energy>
  </scstep>
  <scstep>
   <time name="dav">   76.76   76.79</time>
   <time name="total">   80.88   80.90</time>
   <energy>
    <i name="e_fr_energy">   -678.76506338 </i>
    <i name="e_wo_entrp">   -678.76506338 </i>
    <i name="e_0_energy">   -678.76506338 </i>
   </energy>
  </scstep>
  <scstep>
   <time name="dav">   79.34   79.37</time>
   <time name="total">   83.47   83.50</time>
   <energy>
    <i name="e_fr_energy">   -678.76512212 </i>
    <i name="e_wo_entrp">   -678.76512212 </i>
    <i name="e_0_energy">   -678.76512212 </i>
   </energy>
  </scstep>
  <scstep>
   <time name="dav">   75.75   75.77</time>
   <time name="total">   79.87   79.89</time>
   <energy>
    <i name="e_fr_energy">   -678.76515416 </i>
    <i name="e_wo_entrp">   -678.76515416 </i>
    <i name="e_0_energy">   -678.76515416 </i>
   </energy>
  </scstep>
  <scstep>
   <time name="dav">   80.28   80.30</time>
   <time name="total">   84.37   84.41</time>
   <energy>
    <i name="e_fr_energy">   -678.76515839 </i>
    <i name="e_wo_entrp">   -678.76515839 </i>
    <i name="e_0_energy">   -678.76515839 </i>
   </energy>
  </scstep>
  <scstep>
   <time name="dav">   79.22   79.24</time>
   <time name="total">   83.33   83.35</time>
   <energy>
    <i name="e_fr_energy">   -678.76516185 </i>
    <i name="e_wo_entrp">   -678.76516185 </i>
    <i name="e_0_energy">   -678.76516185 </i>
   </energy>
  </scstep>
  <scstep>
   <time name="dav">   79.15   79.17</time>
   <time name="total">   83.27   83.30</time>
   <energy>
    <i name="e_fr_energy">   -678.76516150 </i>
    <i name="e_wo_entrp">   -678.76516150 </i>
    <i name="e_0_energy">   -678.76516150 </i>
   </energy>
  </scstep>
  <scstep>
   <time name="dav">   66.55   66.58</time>
   <time name="total">   70.68   70.71</time>
   <energy>
    <i name="e_fr_energy">   -678.76516133 </i>
    <i name="e_wo_entrp">   -678.76516133 </i>
    <i name="e_0_energy">   -678.76516133 </i>
   </energy>
  </scstep>
  <scstep>
   <time name="dav">   52.48   52.50</time>
   <time name="total">   56.61   56.64</time>
   <energy>
    <i name="e_fr_energy">   -678.76516148 </i>
    <i name="e_wo_entrp">   -678.76516148 </i>
    <i name="e_0_energy">   -678.76516148 </i>
   </energy>
  </scstep>
  <scstep>
   <time name="dav">   51.15   51.17</time>
   <time name="total">   55.28   55.30</time>
   <energy>
    <i name="e_fr_energy">   -678.76516143 </i>
    <i name="e_wo_entrp">   -678.76516143 </i>
    <i name="e_0_energy">   -678.76516143 </i>
   </energy>
  </scstep>
  <scstep>
   <time name="dav">   50.29   50.31</time>
   <time name="total">   54.42   54.45</time>
   <energy>
    <i name="e_fr_energy">   -678.76516145 </i>
    <i name="e_wo_entrp">   -678.76516145 </i>
    <i name="e_0_energy">   -678.76516145 </i>
   </energy>
  </scstep>
  <scstep>
   <time name="dav">   49.91   49.92</time>
   <time name="total">   50.91   50.92</time>
   <energy>
    <i name="alphaZ">    210.77028614 </i>
    <i name="ewald"> -14471.40652004 </i>
    <i name="hartreedc">  -1001.19354245 </i>
    <i name="XCdc">  -1155.85442680 </i>
    <i name="pawpsdc">   4731.30968706 </i>
    <i name="pawaedc">  -2493.04668382 </i>
    <i name="eentropy">     -0.00000000 </i>
    <i name="bandstr">    308.17517848 </i>
    <i name="atom">  13192.48085998 </i>
    <i name="e_fr_energy">   -678.76516145 </i>
    <i name="e_wo_entrp">   -678.76516145 </i>
    <i name="e_0_energy">   -678.76516145 </i>
   </energy>
  </scstep>
  <structure>
   <crystal>
    <varray name="basis" >
     <v>       0.00000000      10.93733369      10.93733369 </v>
     <v>      10.93733369       0.00000000      10.93733369 </v>
     <v>      10.93733369      10.93733369       0.00000000 </v>
    </varray>
    <i name="volume">   2616.76295363 </i>
    <varray name="rec_basis" >
     <v>      -0.04571498       0.04571498       0.04571498 </v>
     <v>       0.04571498      -0.04571498       0.04571498 </v>
     <v>       0.04571498       0.04571498      -0.04571498 </v>
    </varray>
   </crystal>
   <varray name="positions" >
    <v>       0.99662066       0.00228841       0.00516118 </v>
    <v>       0.25991905       0.98667769       0.00514832 </v>
    <v>       0.48871101       0.01145155       0.99541738 </v>
    <v>       0.74329774       0.00019762       0.00654314 </v>
    <v>       0.99276601       0.25099080       0.00475583 </v>
    <v>       0.25193238       0.25130936       0.00133353 </v>
    <v>       0.50414115       0.24885606       0.98140811 </v>
    <v>       0.76529298       0.25195776       0.99704105 </v>
    <v>       0.00139539       0.50216835       0.98830354 </v>
    <v>       0.24724293       0.50688399       0.01434096 </v>
    <v>       0.49218145       0.49027360       0.00753452 </v>
    <v>       0.76102393       0.49033112       0.00148286 </v>
    <v>       0.99806643       0.76527679       0.99183205 </v>
    <v>       0.25041198       0.75242870       0.99906579 </v>
    <v>       0.49925509       0.74965369       0.99673832 </v>
    <v>       0.74228066       0.75375450       0.99699422 </v>
    <v>       0.02019625       0.99121204       0.24288579 </v>
    <v>       0.25250315       0.99460418       0.24425436 </v>
    <v>       0.49533674       0.00729086       0.25395619 </v>
    <v>       0.75833170       0.99478255       0.24848788 </v>
    <v>       0.99396635       0.25184402       0.24829493 </v>
    <v>       0.24637458       0.24096256       0.25304838 </v>
    <v>       0.49581096       0.25662614       0.24460738 </v>
    <v>       0.75340837       0.24655383       0.25202951 </v>
    <v>       0.00962128       0.49406529       0.25557818 </v>
    <v>       0.25570881       0.50599429       0.24345189 </v>
    <v>       0.49180289       0.50740872       0.24640566 </v>
    <v>       0.74010131       0.51159848       0.24775542 </v>
    <v>       0.99523365       0.74362093       0.24755138 </v>
    <v>       0.25415952       0.74843470       0.25448198 </v>
    <v>       0.51044463       0.74496007       0.24962951 </v>
    <v>       0.74441861       0.75955404       0.25168164 </v>
    <v>       0.00530519       0.00650099       0.48860594 </v>
    <v>       0.24781569       0.99400612       0.49878151 </v>
    <v>       0.50037155       0.00087295       0.50018060 </v>
    <v>       0.75504800       0.99684873       0.50420571 </v>
    <v>       0.99412062       0.24559302       0.49706215 </v>
    <v>       0.25327614       0.25278506       0.49726276 </v>
    <v>       0.49139705       0.24622930       0.50891547 </v>
    <v>       0.74281984       0.26702773       0.49084617 </v>
    <v>       0.99006432       0.49834878       0.50983332 </v>
    <v>       0.24391134       0.49544709       0.50377938 </v>
    <v>       0.49998498       0.50080417       0.50751002 </v>
    <v>       0.75401391       0.48862544       0.50224988 </v>
    <v>       0.00820330       0.75692407       0.49453537 </v>
    <v>       0.23965680       0.75735526       0.51570173 </v>
    <v>       0.50810251       0.72752994       0.51039119 </v>
    <v>       0.74200656       0.74823892       0.50053079 </v>
    <v>       0.99596668       0.00283218       0.74901131 </v>
    <v>       0.24868197       0.00742703       0.75100944 </v>
    <v>       0.50485634       0.00593248       0.74449411 </v>
    <v>       0.75965232       0.99472044       0.74834284 </v>
    <v>       0.99483173       0.25145883       0.74966461 </v>
    <v>       0.24428544       0.25764194       0.75769901 </v>
    <v>       0.50077760       0.25119621       0.75984130 </v>
    <v>       0.74000407       0.25215521       0.75744651 </v>
    <v>       0.98988136       0.51478229       0.75108237 </v>
    <v>       0.25207983       0.49805900       0.75255155 </v>
    <v>       0.51169158       0.48735919       0.75532702 </v>
    <v>       0.74376658       0.50081760       0.75555103 </v>
    <v>       0.01390315       0.74221257       0.75125685 </v>
    <v>       0.26714781       0.75298029       0.74269345 </v>
    <v>       0.50215199       0.74693363       0.74388844 </v>
    <v>       0.74888679       0.74360199       0.75869620 </v>
    <v>       0.06274678       0.06296619       0.06072834 </v>
    <v>       0.30104226       0.07066777       0.05390427 </v>
    <v>       0.55250692       0.06981508       0.07051699 </v>
    <v>       0.81307493       0.07408617       0.06227930 </v>
    <v>       0.06622423       0.31634555       0.05527706 </v>
    <v>       0.31881389       0.30993874       0.05857530 </v>
    <v>       0.55476464       0.30537412       0.06648639 </v>
    <v>       0.81227604       0.30538635       0.07006299 </v>
    <v>       0.06706685       0.55863342       0.06584495 </v>
    <v>       0.32179212       0.57539210       0.04842349 </v>
    <v>       0.56863793       0.56123724       0.05825435 </v>
    <v>       0.80866415       0.56877827       0.05798286 </v>
    <v>       0.07103713       0.81346350       0.05635290 </v>
    <v>       0.31745770       0.80560248       0.05893651 </v>
    <v>       0.56881625       0.80074899       0.06172384 </v>
    <v>       0.81681016       0.81032998       0.06918701 </v>
    <v>       0.07547271       0.05787707       0.31632819 </v>
    <v>       0.31968355       0.07243648       0.30239554 </v>
    <v>       0.55288748       0.07063267       0.31937826 </v>
    <v>       0.80880237       0.06885866       0.30676607 </v>
    <v>       0.05764078       0.30793637       0.31291903 </v>
    <v>       0.31212949       0.30386039       0.31156450 </v>
    <v>       0.56302422       0.31745035       0.31270120 </v>
    <v>       0.81161154       0.32020361       0.30090293 </v>
    <v>       0.06549842       0.55488332       0.32371686 </v>
    <v>       0.29929006       0.57124786       0.31013343 </v>
    <v>       0.55502045       0.56834983       0.31742681 </v>
    <v>       0.80561813       0.56336814       0.30791490 </v>
    <v>       0.05277242       0.80896693       0.31535568 </v>
    <v>       0.30962194       0.81179205       0.31396883 </v>
    <v>       0.55834905       0.81115287       0.30825080 </v>
    <v>       0.81189987       0.82084005       0.30777100 </v>
    <v>       0.06119237       0.06890076       0.56161424 </v>
    <v>       0.32354784       0.06485222       0.54345220 </v>
    <v>       0.57095297       0.06141335       0.54962786 </v>
    <v>       0.80728001       0.06419236       0.56672719 </v>
    <v>       0.05356023       0.31938237       0.56592545 </v>
    <v>       0.30920258       0.30126461       0.57090239 </v>
    <v>       0.55681494       0.31535591       0.56920557 </v>
    <v>       0.81689525       0.29824312       0.56105587 </v>
    <v>       0.06147712       0.54976118       0.57055022 </v>
    <v>       0.31027766       0.55957398       0.56968191 </v>
    <v>       0.57520882       0.54762424       0.57324762 </v>
    <v>       0.79252046       0.57324278       0.57499842 </v>
    <v>       0.05256144       0.83081870       0.56095347 </v>
    <v>       0.31646694       0.80977482       0.56126859 </v>
    <v>       0.56030694       0.80765563       0.56429042 </v>
    <v>       0.81715130       0.81136730       0.55524626 </v>
    <v>       0.06566647       0.06055474       0.81089165 </v>
    <v>       0.30626048       0.06225752       0.81013384 </v>
    <v>       0.56190098       0.05754618       0.81145599 </v>
    <v>       0.80707300       0.04906541       0.82868025 </v>
    <v>       0.07162334       0.31635483       0.80536472 </v>
    <v>       0.32015830       0.31247216       0.80403511 </v>
    <v>       0.56411482       0.31815162       0.81056208 </v>
    <v>       0.82013518       0.31679485       0.81215075 </v>
    <v>       0.06616847       0.56479429       0.81094569 </v>
    <v>       0.31190514       0.56069089       0.81428153 </v>
    <v>       0.56026743       0.55361407       0.82483428 </v>
    <v>       0.81747747       0.56078378       0.81168744 </v>
    <v>       0.06999872       0.80964513       0.80767557 </v>
    <v>       0.31082495       0.81164344       0.81007419 </v>
    <v>       0.56544123       0.80137273       0.81463955 </v>
    <v>       0.79794420       0.81573282       0.81857952 </v>
   </varray>
  </structure>
  <varray name="forces" >
   <v>      -1.04359125      -0.13240207       0.38376555 </v>
   <v>      -0.34323059      -2.77183984      -0.25481180 </v>
   <v>      -0.34963237       1.69421929      -0.63782897 </v>
   <v>       0.94099505       1.02353480      -0.27629716 </v>
   <v>      -1.22135099       0.55598653       1.42539777 </v>
   <v>      -0.45177778      -1.44074400       0.35220813 </v>
   <v>       2.44100900       1.92651430      -0.99861041 </v>
   <v>       0.45844560      -2.28316333      -1.50287376 </v>
   <v>       1.83188597       1.31829770      -0.45531734 </v>
   <v>      -2.45200641      -0.83537616      -0.26282206 </v>
   <v>      -0.32077021       1.80058970       1.85004423 </v>
   <v>       0.30677601      -1.03643382      -0.24878473 </v>
   <v>      -1.12980476       1.42790897      -0.67360671 </v>
   <v>      -0.55728481      -0.71630025       0.87838373 </v>
   <v>      -0.53866579       0.78153141      -0.16785056 </v>
   <v>       0.09749078       2.01565471       1.24939556 </v>
   <v>       1.73882827      -0.76612286      -0.80087102 </v>
   <v>       0.25683818       0.63665183       1.91189118 </v>
   <v>      -0.78591418       1.11755587       0.02481478 </v>
   <v>       2.05688151      -2.03888281       0.46372988 </v>
   <v>      -0.96316255       0.42064912       0.58140762 </v>
   <v>       1.25811684      -1.74605989       1.77416667 </v>
   <v>       0.71387304       1.34410370      -0.28474471 </v>
   <v>       0.77165182      -1.04996109      -0.40437994 </v>
   <v>       0.13072719      -1.38322616      -0.85675496 </v>
   <v>      -1.21847253      -0.73353636      -1.42684026 </v>
   <v>       0.29193353       0.60865062       0.09176927 </v>
   <v>      -1.40882560      -0.32885580      -0.50356331 </v>
   <v>      -0.07948394       0.67848191       0.60945618 </v>
   <v>      -0.12147223      -2.24878439      -0.62229419 </v>
   <v>      -0.02890524      -2.54083330      -1.01198000 </v>
   <v>      -0.73336708       0.38263945      -0.80569697 </v>
   <v>       2.81852385       0.29521235      -0.96853297 </v>
   <v>       0.12927438      -0.11577266       1.61976674 </v>
   <v>      -0.90248142       0.70096448      -0.42041357 </v>
   <v>      -0.89200800      -1.14715130       0.17388633 </v>
   <v>       0.76897977       0.90465570       1.93210435 </v>
   <v>      -0.32357313      -0.99391579      -1.33249841 </v>
   <v>      -0.55227247       0.18775904       1.40585886 </v>
   <v>      -1.35701789       0.08756830      -1.49880052 </v>
   <v>       0.87933515      -0.89716669       0.21728852 </v>
   <v>      -0.45597973       0.75282764       0.65979285 </v>
   <v>       0.02189472      -0.49609481      -0.15101638 </v>
   <v>      -0.26517605       0.35153328       1.13678279 </v>
   <v>      -0.31147238       0.34636951      -1.84950573 </v>
   <v>      -2.26558300      -1.15126882      -0.85839760 </v>
   <v>       0.48776807      -1.85006428       1.21147486 </v>
   <v>       0.64566201      -0.26472658       2.08479717 </v>
   <v>      -0.17845656       0.56383552      -0.28890620 </v>
   <v>      -2.81933045      -1.50264828      -0.77684694 </v>
   <v>      -1.55400662      -1.35241739      -1.86451792 </v>
   <v>       1.04122069      -0.83083818      -0.80940708 </v>
   <v>      -0.83701345       1.75766228       1.33616935 </v>
   <v>      -2.59493191       0.68476393      -0.20437038 </v>
   <v>      -1.84986402      -0.43257644      -0.16192725 </v>
   <v>      -1.92304952       1.80487389       1.04789433 </v>
   <v>      -1.94153693       1.98175848       0.53248397 </v>
   <v>      -0.11503258      -0.03226200      -0.25068952 </v>
   <v>       2.43656708      -2.12159440       0.63849264 </v>
   <v>       0.46915495       0.74317528       0.31990749 </v>
   <v>       1.14739372      -2.45649546      -0.31217781 </v>
   <v>      -0.93367656      -1.50593474      -2.89376965 </v>
   <v>       0.92016706       0.98610794      -0.98090432 </v>
   <v>      -0.84975200      -1.10995069       0.74007404 </v>
   <v>      -0.31957428       0.76696306       0.81735188 </v>
   <v>       0.42808467       1.83662643       0.26444668 </v>
   <v>      -1.78575673      -0.34463572      -0.14183475 </v>
   <v>      -1.35899780       0.05345916      -1.64228467 </v>
   <v>       0.25350925      -0.00311168      -0.85820973 </v>
   <v>       1.28283539       0.09620164       0.20608316 </v>
   <v>      -1.49056304      -0.16044295       1.22884597 </v>
   <v>       1.04135883       0.27704398       0.99679563 </v>
   <v>       0.75654300      -1.32559731      -0.09862774 </v>
   <v>       1.41079527       0.41061729      -2.00636034 </v>
   <v>      -0.30155323      -0.21107339      -0.62404724 </v>
   <v>      -0.14679521       0.69749270       0.20884330 </v>
   <v>       1.15307951      -0.63073737      -1.07293490 </v>
   <v>       1.16446377       1.07432425      -0.28141613 </v>
   <v>       2.22883275      -1.73448256      -0.35886683 </v>
   <v>      -0.07723174      -1.62292624      -0.43103974 </v>
   <v>      -0.84997194      -2.77064918       0.25636258 </v>
   <v>      -1.20128359       0.68615817      -3.75924977 </v>
   <v>      -1.65820563       0.45689128       0.97307390 </v>
   <v>      -0.73365450       2.66587055      -0.07921798 </v>
   <v>       0.03063716      -0.03763188       0.49145086 </v>
   <v>       1.14077923      -0.66299183       0.98586153 </v>
   <v>       0.19408677      -0.38748333      -0.57885690 </v>
   <v>       1.08812857       0.31368225      -0.05150102 </v>
   <v>      -0.11907852      -0.55203968       0.46855278 </v>
   <v>       0.04791562       2.33372166       0.16015278 </v>
   <v>      -0.84557509       0.41895471      -1.19926510 </v>
   <v>       1.11163140       1.88004871       1.48191396 </v>
   <v>      -1.00738311       0.29105437       1.25176567 </v>
   <v>       0.49647739       1.92492495       0.56030751 </v>
   <v>       2.00164422       1.58570611       1.17366263 </v>
   <v>      -0.79986715       1.16620716      -1.72185133 </v>
   <v>      -0.98338091       0.49479297      -1.06751908 </v>
   <v>       1.80607516      -0.20263953      -1.86892051 </v>
   <v>       1.38723890       1.05447589      -0.23700039 </v>
   <v>      -0.21008172      -0.40751199       1.84571808 </v>
   <v>      -1.93852943       0.27022001      -0.61165344 </v>
   <v>       1.16812334      -0.15137637       0.98096575 </v>
   <v>      -0.32667839      -0.14810302      -0.40535438 </v>
   <v>       2.26023018       0.06083925      -0.13258957 </v>
   <v>       1.07396141      -0.95758327       1.30341229 </v>
   <v>      -0.02774522      -1.00818709       0.52838359 </v>
   <v>      -0.40935446      -0.74150603      -0.84893618 </v>
   <v>      -2.83794369       0.63086482      -0.32393591 </v>
   <v>      -0.91082463       1.66217314      -0.95415488 </v>
   <v>       0.07276320       0.99432347       0.98447644 </v>
   <v>      -0.01662634      -1.03255607       0.56343296 </v>
   <v>       0.44821826       0.77687200      -0.73920908 </v>
   <v>       0.82642367      -0.36067878      -0.52405521 </v>
   <v>       1.68799077       2.35342721       1.87670601 </v>
   <v>       0.95610573       0.95039319       1.83783242 </v>
   <v>       0.08723836      -1.09052088       1.86809715 </v>
   <v>       2.16598878      -1.76088987      -2.09374367 </v>
   <v>       1.73157505       0.93707400      -0.21389856 </v>
   <v>      -1.61426688      -0.08376532      -0.76784946 </v>
   <v>       0.18519824      -1.41945842      -1.53601471 </v>
   <v>      -1.18200384      -0.23242564      -0.04201579 </v>
   <v>       0.56246428       1.16426535       0.69995669 </v>
   <v>       0.07864369      -0.69331292       0.53218349 </v>
   <v>       1.03267932      -0.75016147      -1.72595367 </v>
   <v>       0.47834368       0.24661547       1.23512143 </v>
   <v>       1.87436192       1.40024961       2.13039255 </v>
   <v>       0.59229004      -1.19356007       0.94529181 </v>
   <v>      -1.54525096       1.17686811       1.30633348 </v>
  </varray>
  <varray name="stress" >
   <v>      13.15152170      -0.33123861       4.31016786 </v>
   <v>      -0.33123862      12.85439090       4.56129611 </v>
   <v>       4.31016787       4.56129612      13.09606249 </v>
  </varray>
  <energy>
   <i name="e_fr_energy">   -678.76516145 </i>
   <i name="e_wo_entrp">   -678.76516145 </i>
   <i name="e_0_energy">     -0.00000000 </i>
  </energy>
  <time name="totalsc"> 1705.68 1706.25</time>
  <eigenvalues>
   <array>
    <dimension dim="1">band</dimension>
    <dimension dim="2">kpoint</dimension>
    <dimension dim="3">spin</dimension>
    <field>eigene</field>
    <field>occ</field>
    <set>
     <set comment="spin 1">
      <set comment="kpoint 1">
       <r>   -6.3079    1.0000 </r>
       <r>   -5.7274    1.0000 </r>
       <r>   -5.6426    1.0000 </r>
       <r>   -5.6096    1.0000 </r>
       <r>   -5.5620    1.0000 </r>
       <r>   -5.5409    1.0000 </r>
       <r>   -5.4756    1.0000 </r>
       <r>   -5.4004    1.0000 </r>
       <r>   -5.3808    1.0000 </r>
       <r>   -5.2831    1.0000 </r>
       <r>   -5.2615    1.0000 </r>
       <r>   -5.2445    1.0000 </r>
       <r>   -5.1872    1.0000 </r>
       <r>   -5.1495    1.0000 </r>
       <r>   -5.0929    1.0000 </r>
       <r>   -4.5210    1.0000 </r>
       <r>   -4.4735    1.0000 </r>
       <r>   -4.4647    1.0000 </r>
       <r>   -4.3852    1.0000 </r>
       <r>   -4.3764    1.0000 </r>
       <r>   -4.3384    1.0000 </r>
       <r>   -4.2734    1.0000 </r>
       <r>   -4.2288    1.0000 </r>
       <r>   -4.2155    1.0000 </r>
       <r>   -4.1829    1.0000 </r>
       <r>   -4.1719    1.0000 </r>
       <r>   -4.0694    1.0000 </r>
       <r>   -4.0333    1.0000 </r>
       <r>   -4.0093    1.0000 </r>
       <r>   -3.9745    1.0000 </r>
       <r>   -3.9552    1.0000 </r>
       <r>   -3.8951    1.0000 </r>
       <r>   -3.8271    1.0000 </r>
       <r>   -3.8002    1.0000 </r>
       <r>   -3.7612    1.0000 </r>
       <r>   -3.7586    1.0000 </r>
       <r>   -3.7335    1.0000 </r>
       <r>   -3.6953    1.0000 </r>
       <r>   -3.6463    1.0000 </r>
       <r>   -3.6237    1.0000 </r>
       <r>   -3.6170    1.0000 </r>
       <r>   -3.5900    1.0000 </r>
       <r>   -3.5760    1.0000 </r>
       <r>   -3.5545    1.0000 </r>
       <r>   -3.5230    1.0000 </r>
       <r>   -3.5055    1.0000 </r>
       <r>   -3.4742    1.0000 </r>
       <r>   -3.4482    1.0000 </r>
       <r>   -3.4329    1.0000 </r>
       <r>   -3.4130    1.0000 </r>
       <r>   -3.3891    1.0000 </r>
       <r>   -3.3742    1.0000 </r>
       <r>   -3.3157    1.0000 </r>
       <r>   -3.2455    1.0000 </r>
       <r>   -3.1954    1.0000 </r>
       <r>   -2.3495    1.0000 </r>
       <r>   -2.3144    1.0000 </r>
       <r>   -2.2726    1.0000 </r>
       <r>   -2.2517    1.0000 </r>
       <r>   -2.1972    1.0000 </r>
       <r>   -2.1833    1.0000 </r>
       <r>   -2.1760    1.0000 </r>
       <r>   -2.1042    1.0000 </r>
       <r>   -2.0547    1.0000 </r>
       <r>   -2.0383    1.0000 </r>
       <r>   -1.9941    1.0000 </r>
       <r>   -1.9916    1.0000 </r>
       <r>   -1.9512    1.0000 </r>
       <r>   -1.9369    1.0000 </r>
       <r>   -1.8987    1.0000 </r>
       <r>   -1.8794    1.0000 </r>
       <r>   -1.8503    1.0000 </r>
       <r>   -1.7600    1.0000 </r>
       <r>   -1.3510    1.0000 </r>
       <r>   -1.3052    1.0000 </r>
       <r>   -1.2771    1.0000 </r>
       <r>   -1.2415    1.0000 </r>
       <r>   -1.0323    1.0000 </r>
       <r>   -0.9852    1.0000 </r>
       <r>   -0.9643    1.0000 </r>
       <r>   -0.9249    1.0000 </r>
       <r>   -0.9085    1.0000 </r>
       <r>   -0.8785    1.0000 </r>
       <r>   -0.8483    1.0000 </r>
       <r>   -0.8347    1.0000 </r>
       <r>   -0.8084    1.0000 </r>
       <r>   -0.7849    1.0000 </r>
       <r>   -0.7635    1.0000 </r>
       <r>   -0.7314    1.0000 </r>
       <r>   -0.7112    1.0000 </r>
       <r>   -0.6682    1.0000 </r>
       <r>   -0.6498    1.0000 </r>
       <r>   -0.6267    1.0000 </r>
       <r>   -0.6041    1.0000 </r>
       <r>   -0.5796    1.0000 </r>
       <r>   -0.5658    1.0000 </r>
       <r>   -0.5313    1.0000 </r>
       <r>   -0.4785    1.0000 </r>
       <r>   -0.4462    1.0000 </r>
       <r>   -0.3943    1.0000 </r>
       <r>   -0.3834    1.0000 </r>
       <r>   -0.0110    1.0000 </r>
       <r>    0.0054    1.0000 </r>
       <r>    0.0714    1.0000 </r>
       <r>    0.0947    1.0000 </r>
       <r>    0.1067    1.0000 </r>
       <r>    0.1577    1.0000 </r>
       <r>    0.1862    1.0000 </r>
       <r>    0.2588    1.0000 </r>
       <r>    0.2707    1.0000 </r>
       <r>    0.3258    1.0000 </r>
       <r>    0.3401    1.0000 </r>
       <r>    0.3985    1.0000 </r>
       <r>    1.4239    1.0000 </r>
       <r>    1.4403    1.0000 </r>
       <r>    1.5001    1.0000 </r>
       <r>    1.5356    1.0000 </r>
       <r>    1.5416    1.0000 </r>
       <r>    1.5813    1.0000 </r>
       <r>    1.6145    1.0000 </r>
       <r>    1.6368    1.0000 </r>
       <r>    1.6399    1.0000 </r>
       <r>    1.6621    1.0000 </r>
       <r>    1.6679    1.0000 </r>
       <r>    1.6938    1.0000 </r>
       <r>    1.7121    1.0000 </r>
       <r>    1.7335    1.0000 </r>
       <r>    1.7431    1.0000 </r>
       <r>    1.7547    1.0000 </r>
       <r>    1.7757    1.0000 </r>
       <r>    1.7802    1.0000 </r>
       <r>    1.8128    1.0000 </r>
       <r>    1.8158    1.0000 </r>
       <r>    1.8222    1.0000 </r>
       <r>    1.8421    1.0000 </r>
       <r>    1.8620    1.0000 </r>
       <r>    1.8784    1.0000 </r>
       <r>    1.8901    1.0000 </r>
       <r>    1.8942    1.0000 </r>
       <r>    1.9162    1.0000 </r>
       <r>    1.9284    1.0000 </r>
       <r>    1.9357    1.0000 </r>
       <r>    1.9544    1.0000 </r>
       <r>    1.9838    1.0000 </r>
       <r>    1.9915    1.0000 </r>
       <r>    2.0069    1.0000 </r>
       <r>    2.0263    1.0000 </r>
       <r>    2.0356    1.0000 </r>
       <r>    2.0413    1.0000 </r>
       <r>    2.0730    1.0000 </r>
       <r>    2.0820    1.0000 </r>
       <r>    2.0858    1.0000 </r>
       <r>    2.0971    1.0000 </r>
       <r>    2.1070    1.0000 </r>
       <r>    2.1196    1.0000 </r>
       <r>    2.1352    1.0000 </r>
       <r>    2.1546    1.0000 </r>
       <r>    2.1607    1.0000 </r>
       <r>    2.1697    1.0000 </r>
       <r>    2.1910    1.0000 </r>
       <r>    2.2023    1.0000 </r>
       <r>    2.2163    1.0000 </r>
       <r>    2.2255    1.0000 </r>
       <r>    2.2452    1.0000 </r>
       <r>    2.2789    1.0000 </r>
       <r>    2.2836    1.0000 </r>
       <r>    2.3090    1.0000 </r>
       <r>    2.3166    1.0000 </r>
       <r>    2.3245    1.0000 </r>
       <r>    2.3418    1.0000 </r>
       <r>    2.3597    1.0000 </r>
       <r>    2.3729    1.0000 </r>
       <r>    2.4023    1.0000 </r>
       <r>    2.4633    1.0000 </r>
       <r>    2.5480    1.0000 </r>
       <r>    2.7922    1.0000 </r>
       <r>    2.8063    1.0000 </r>
       <r>    2.8221    1.0000 </r>
       <r>    2.8246    1.0000 </r>
       <r>    2.8373    1.0000 </r>
       <r>    2.8752    1.0000 </r>
       <r>    3.1749    1.0000 </r>
       <r>    3.2233    1.0000 </r>
       <r>    3.2562    1.0000 </r>
       <r>    3.2605    1.0000 </r>
       <r>    3.2872    1.0000 </r>
       <r>    3.3326    1.0000 </r>
       <r>    3.3472    1.0000 </r>
       <r>    3.3491    1.0000 </r>
       <r>    3.3975    1.0000 </r>
       <r>    3.4025    1.0000 </r>
       <r>    3.4143    1.0000 </r>
       <r>    3.4212    1.0000 </r>
       <r>    3.4272    1.0000 </r>
       <r>    3.4616    1.0000 </r>
       <r>    3.4829    1.0000 </r>
       <r>    3.4960    1.0000 </r>
       <r>    3.5136    1.0000 </r>
       <r>    3.5153    1.0000 </r>
       <r>    3.5385    1.0000 </r>
       <r>    3.5496    1.0000 </r>
       <r>    3.5660    1.0000 </r>
       <r>    3.5741    1.0000 </r>
       <r>    3.6279    1.0000 </r>
       <r>    3.6707    1.0000 </r>
       <r>    3.6926    1.0000 </r>
       <r>    3.7049    1.0000 </r>
       <r>    3.7197    1.0000 </r>
       <r>    3.7509    1.0000 </r>
       <r>    3.7751    1.0000 </r>
       <r>    3.8007    1.0000 </r>
       <r>    3.8214    1.0000 </r>
       <r>    3.8424    1.0000 </r>
       <r>    3.8649    1.0000 </r>
       <r>    3.9000    1.0000 </r>
       <r>    3.9046    1.0000 </r>
       <r>    3.9403    1.0000 </r>
       <r>    4.1351    1.0000 </r>
       <r>    4.1790    1.0000 </r>
       <r>    4.1953    1.0000 </r>
       <r>    4.2291    1.0000 </r>
       <r>    4.2545    1.0000 </r>
       <r>    4.2671    1.0000 </r>
       <r>    4.2818    1.0000 </r>
       <r>    4.3139    1.0000 </r>
       <r>    4.3579    1.0000 </r>
       <r>    4.4116    1.0000 </r>
       <r>    4.4223    1.0000 </r>
       <r>    4.4376    1.0000 </r>
       <r>    4.4677    1.0000 </r>
       <r>    4.4892    1.0000 </r>
       <r>    4.5134    1.0000 </r>
       <r>    4.5383    1.0000 </r>
       <r>    4.5417    1.0000 </r>
       <r>    4.5849    1.0000 </r>
       <r>    4.6340    1.0000 </r>
       <r>    4.6560    1.0000 </r>
       <r>    4.6954    1.0000 </r>
       <r>    4.7720    1.0000 </r>
       <r>    4.7934    1.0000 </r>
       <r>    4.8303    1.0000 </r>
       <r>    4.8449    1.0000 </r>
       <r>    4.8835    1.0000 </r>
       <r>    4.9524    1.0000 </r>
       <r>    4.9924    1.0000 </r>
       <r>    4.9941    1.0000 </r>
       <r>    5.0213    1.0000 </r>
       <r>    5.0628    1.0000 </r>
       <r>    5.1211    1.0000 </r>
       <r>    5.1349    1.0000 </r>
       <r>    5.1577    1.0000 </r>
       <r>    5.1877    1.0000 </r>
       <r>    5.2782    1.0000 </r>
       <r>    5.6537    1.0000 </r>
       <r>    5.7664    1.0000 </r>
       <r>    5.8273    1.0000 </r>
       <r>    6.1556    0.0000 </r>
       <r>    6.2187    0.0000 </r>
       <r>    6.2418    0.0000 </r>
       <r>    6.2601    0.0000 </r>
       <r>    6.2809    0.0000 </r>
       <r>    6.3315    0.0000 </r>
       <r>    6.4802    0.0000 </r>
       <r>    6.5617    0.0000 </r>
       <r>    6.5736    0.0000 </r>
       <r>    6.6266    0.0000 </r>
       <r>    6.6674    0.0000 </r>
       <r>    6.7034    0.0000 </r>
       <r>    6.7755    0.0000 </r>
       <r>    6.8148    0.0000 </r>
       <r>    6.8492    0.0000 </r>
       <r>    6.8728    0.0000 </r>
       <r>    6.9117    0.0000 </r>
       <r>    6.9306    0.0000 </r>
       <r>    6.9411    0.0000 </r>
       <r>    6.9590    0.0000 </r>
       <r>    6.9688    0.0000 </r>
       <r>    6.9935    0.0000 </r>
       <r>    7.0056    0.0000 </r>
       <r>    7.0163    0.0000 </r>
       <r>    7.0471    0.0000 </r>
       <r>    7.0686    0.0000 </r>
       <r>    7.0866    0.0000 </r>
       <r>    7.1058    0.0000 </r>
       <r>    7.1227    0.0000 </r>
       <r>    7.1346    0.0000 </r>
       <r>    7.1561    0.0000 </r>
       <r>    7.1652    0.0000 </r>
       <r>    7.1825    0.0000 </r>
       <r>    7.2007    0.0000 </r>
       <r>    7.2168    0.0000 </r>
       <r>    7.2218    0.0000 </r>
       <r>    7.2631    0.0000 </r>
       <r>    7.3158    0.0000 </r>
       <r>    7.3382    0.0000 </r>
       <r>    7.3565    0.0000 </r>
       <r>    7.4426    0.0000 </r>
       <r>    7.4798    0.0000 </r>
       <r>    7.4936    0.0000 </r>
       <r>    7.5199    0.0000 </r>
       <r>    7.5300    0.0000 </r>
       <r>    7.5570    0.0000 </r>
       <r>    7.6007    0.0000 </r>
       <r>    7.6288    0.0000 </r>
       <r>    7.8154    0.0000 </r>
       <r>    7.8301    0.0000 </r>
       <r>    7.8638    0.0000 </r>
       <r>    7.8946    0.0000 </r>
       <r>    7.9325    0.0000 </r>
       <r>    7.9450    0.0000 </r>
       <r>    7.9731    0.0000 </r>
       <r>    8.0002    0.0000 </r>
       <r>    8.0518    0.0000 </r>
       <r>    8.0665    0.0000 </r>
       <r>    8.0835    0.0000 </r>
       <r>    8.1401    0.0000 </r>
       <r>    8.1632    0.0000 </r>
       <r>    8.2100    0.0000 </r>
       <r>    8.2708    0.0000 </r>
       <r>    8.5612    0.0000 </r>
       <r>    8.5666    0.0000 </r>
       <r>    8.5787    0.0000 </r>
      </set>
      <set comment="kpoint 2">
       <r>   -6.1688    1.0000 </r>
       <r>   -6.0611    1.0000 </r>
       <r>   -5.7096    1.0000 </r>
       <r>   -5.6612    1.0000 </r>
       <r>   -5.5846    1.0000 </r>
       <r>   -5.5764    1.0000 </r>
       <r>   -5.5119    1.0000 </r>
[...]
       <r>    -3.1222    27.4643    99.8344 </r>
       <r>    -3.0676    47.3555   102.4193 </r>
       <r>    -3.0130    51.2959   105.2192 </r>
       <r>    -2.9584    42.4097   107.5342 </r>
       <r>    -2.9038    39.9754   109.7162 </r>
       <r>    -2.8493    36.3792   111.7019 </r>
       <r>    -2.7947    28.0377   113.2323 </r>
       <r>    -2.7401    26.8606   114.6985 </r>
       <r>    -2.6855    47.9707   117.3169 </r>
       <r>    -2.6309    32.6748   119.1005 </r>
       <r>    -2.5763    27.4310   120.5978 </r>
       <r>    -2.5217    16.9423   121.5227 </r>
       <r>    -2.4672    17.9310   122.5014 </r>
       <r>    -2.4126     4.5544   122.7500 </r>
       <r>    -2.3580     0.5269   122.7788 </r>
       <r>    -2.3034     8.3543   123.2348 </r>
       <r>    -2.2488    11.4010   123.8571 </r>
       <r>    -2.1942    18.5671   124.8706 </r>
       <r>    -2.1397    26.4191   126.3126 </r>
       <r>    -2.0851    23.1814   127.5780 </r>
       <r>    -2.0305    34.3078   129.4506 </r>
       <r>    -1.9759    27.7385   130.9647 </r>
       <r>    -1.9213    23.4859   132.2467 </r>
       <r>    -1.8667     9.0965   132.7433 </r>
       <r>    -1.8122     4.7037   133.0000 </r>
       <r>    -1.7576     2.9104   133.1589 </r>
       <r>    -1.7030     6.2498   133.5000 </r>
       <r>    -1.6484     4.5924   133.7507 </r>
       <r>    -1.5938    15.7604   134.6109 </r>
       <r>    -1.5392    49.0037   137.2858 </r>
       <r>    -1.4846    40.8752   139.5170 </r>
       <r>    -1.4301    33.1951   141.3289 </r>
       <r>    -1.3755    27.4504   142.8273 </r>
       <r>    -1.3209    53.4906   145.7470 </r>
       <r>    -1.2663    70.8960   149.6168 </r>
       <r>    -1.2117    55.4678   152.6445 </r>
       <r>    -1.1571    70.7982   156.5090 </r>
       <r>    -1.1026    53.2424   159.4152 </r>
       <r>    -1.0480    61.7797   162.7874 </r>
       <r>    -0.9934    66.3796   166.4107 </r>
       <r>    -0.9388    86.8165   171.1496 </r>
       <r>    -0.8842    48.6118   173.8031 </r>
       <r>    -0.8296    58.1615   176.9778 </r>
       <r>    -0.7751    62.6750   180.3988 </r>
       <r>    -0.7205    50.0640   183.1316 </r>
       <r>    -0.6659    38.5523   185.2359 </r>
       <r>    -0.6113    33.0711   187.0411 </r>
       <r>    -0.5567    38.0053   189.1156 </r>
       <r>    -0.5021    16.2044   190.0001 </r>
       <r>    -0.4475    10.2348   190.5588 </r>
       <r>    -0.3930    25.3185   191.9408 </r>
       <r>    -0.3384    49.1211   194.6220 </r>
       <r>    -0.2838    62.6956   198.0442 </r>
       <r>    -0.2292    49.0120   200.7195 </r>
       <r>    -0.1746    53.7915   203.6557 </r>
       <r>    -0.1200    53.6983   206.5868 </r>
       <r>    -0.0655    32.8123   208.3778 </r>
       <r>    -0.0109    43.8603   210.7719 </r>
       <r>     0.0437    24.8039   212.1258 </r>
       <r>     0.0983    24.3937   213.4573 </r>
       <r>     0.1529    11.0844   214.0624 </r>
       <r>     0.2075     8.1037   214.5047 </r>
       <r>     0.2620    14.4411   215.2930 </r>
       <r>     0.3166    23.1360   216.5558 </r>
       <r>     0.3712    30.9885   218.2473 </r>
       <r>     0.4258    24.5325   219.5864 </r>
       <r>     0.4804    20.4620   220.7034 </r>
       <r>     0.5350    14.7950   221.5109 </r>
       <r>     0.5896    24.7719   222.8631 </r>
       <r>     0.6441    27.4195   224.3598 </r>
       <r>     0.6987    17.6623   225.3238 </r>
       <r>     0.7533    22.1427   226.5325 </r>
       <r>     0.8079    10.5525   227.1085 </r>
       <r>     0.8625     7.2109   227.5021 </r>
       <r>     0.9171    22.5150   228.7311 </r>
       <r>     0.9716    20.8605   229.8697 </r>
       <r>     1.0262    28.2619   231.4124 </r>
       <r>     1.0808    15.4444   232.2554 </r>
       <r>     1.1354    22.3647   233.4761 </r>
       <r>     1.1900    36.0190   235.4422 </r>
       <r>     1.2446    23.3197   236.7151 </r>
       <r>     1.2991    26.8367   238.1800 </r>
       <r>     1.3537    26.7631   239.6409 </r>
       <r>     1.4083    39.3030   241.7862 </r>
       <r>     1.4629    62.9567   245.2226 </r>
       <r>     1.5175    91.0720   250.1937 </r>
       <r>     1.5721    80.9530   254.6125 </r>
       <r>     1.6267    83.3281   259.1609 </r>
       <r>     1.6812    81.6008   263.6150 </r>
       <r>     1.7358    53.6099   266.5413 </r>
       <r>     1.7904    51.0213   269.3263 </r>
       <r>     1.8450    47.3573   271.9112 </r>
       <r>     1.8996    23.1192   273.1732 </r>
       <r>     1.9542    17.3586   274.1207 </r>
       <r>     2.0087    18.4501   275.1278 </r>
       <r>     2.0633    55.6164   278.1636 </r>
       <r>     2.1179   100.1134   283.6282 </r>
       <r>     2.1725   102.3814   289.2167 </r>
       <r>     2.2271   117.1147   295.6093 </r>
       <r>     2.2817   111.9990   301.7227 </r>
       <r>     2.3362   122.6606   308.4181 </r>
       <r>     2.3908   104.1178   314.1013 </r>
       <r>     2.4454    85.3653   318.7609 </r>
       <r>     2.5000    54.3584   321.7281 </r>
       <r>     2.5546    34.8468   323.6302 </r>
       <r>     2.6092    28.5275   325.1874 </r>
       <r>     2.6638    57.9157   328.3487 </r>
       <r>     2.7183    71.3736   332.2446 </r>
       <r>     2.7729    81.9563   336.7182 </r>
       <r>     2.8275   108.1228   342.6200 </r>
       <r>     2.8821    99.0404   348.0260 </r>
       <r>     2.9367    95.8365   353.2572 </r>
       <r>     2.9913    90.4733   358.1957 </r>
       <r>     3.0458   107.8779   364.0841 </r>
       <r>     3.1004    93.3231   369.1781 </r>
       <r>     3.1550    68.7343   372.9299 </r>
       <r>     3.2096    64.4202   376.4463 </r>
       <r>     3.2642    99.5365   381.8794 </r>
       <r>     3.3188    96.3038   387.1361 </r>
       <r>     3.3733    87.7270   391.9246 </r>
       <r>     3.4279    89.7810   396.8252 </r>
       <r>     3.4825    86.7073   401.5582 </r>
       <r>     3.5371    93.6755   406.6714 </r>
       <r>     3.5917    88.4651   411.5002 </r>
       <r>     3.6463    74.9322   415.5904 </r>
       <r>     3.7009    58.9795   418.8097 </r>
       <r>     3.7554    83.5217   423.3687 </r>
       <r>     3.8100    88.8934   428.2209 </r>
       <r>     3.8646    87.4382   432.9937 </r>
       <r>     3.9192    84.0314   437.5805 </r>
       <r>     3.9738    55.0178   440.5836 </r>
       <r>     4.0284    55.2073   443.5970 </r>
       <r>     4.0829    69.1747   447.3729 </r>
       <r>     4.1375    66.8743   451.0232 </r>
       <r>     4.1921    75.7052   455.1555 </r>
       <r>     4.2467    78.6774   459.4501 </r>
       <r>     4.3013    75.3580   463.5635 </r>
       <r>     4.3559    82.0972   468.0447 </r>
       <r>     4.4104    59.2069   471.2765 </r>
       <r>     4.4650    83.6616   475.8431 </r>
       <r>     4.5196    62.0137   479.2281 </r>
       <r>     4.5742    65.8785   482.8240 </r>
       <r>     4.6288    58.1764   485.9995 </r>
       <r>     4.6834    45.3133   488.4729 </r>
       <r>     4.7379    33.7553   490.3154 </r>
       <r>     4.7925    23.6549   491.6066 </r>
       <r>     4.8471    24.5224   492.9452 </r>
       <r>     4.9017    40.6607   495.1646 </r>
       <r>     4.9563    33.5350   496.9951 </r>
       <r>     5.0109    38.3523   499.0885 </r>
       <r>     5.0655    40.7147   501.3109 </r>
       <r>     5.1200    24.7814   502.6636 </r>
       <r>     5.1746    20.0131   503.7560 </r>
       <r>     5.2292     4.4703   504.0000 </r>
       <r>     5.2838     3.5902   504.1960 </r>
       <r>     5.3384    10.0836   504.7464 </r>
       <r>     5.3930    25.5647   506.1418 </r>
       <r>     5.4475    33.3896   507.9644 </r>
       <r>     5.5021    19.1189   509.0080 </r>
       <r>     5.5567    19.5652   510.0759 </r>
       <r>     5.6113     7.7666   510.4999 </r>
       <r>     5.6659    15.3449   511.3375 </r>
       <r>     5.7205     2.9776   511.5000 </r>
       <r>     5.7750     4.0697   511.7221 </r>
       <r>     5.8296     3.3852   511.9069 </r>
       <r>     5.8842     1.7052   512.0000 </r>
       <r>     5.9388     0.0000   512.0000 </r>
       <r>     5.9934     0.0000   512.0000 </r>
       <r>     6.0480     0.0000   512.0000 </r>
       <r>     6.1026     0.1400   512.0076 </r>
       <r>     6.1571    12.3667   512.6827 </r>
       <r>     6.2117    18.8222   513.7101 </r>
       <r>     6.2663    13.7242   514.4592 </r>
       <r>     6.3209    17.8457   515.4333 </r>
       <r>     6.3755    15.6513   516.2876 </r>
       <r>     6.4301    36.8233   518.2976 </r>
       <r>     6.4846    28.9520   519.8779 </r>
       <r>     6.5392    17.4681   520.8314 </r>
       <r>     6.5938    16.8197   521.7495 </r>
       <r>     6.6484     8.9683   522.2390 </r>
       <r>     6.7030    39.6712   524.4044 </r>
       <r>     6.7576    25.8356   525.8146 </r>
       <r>     6.8121    33.6881   527.6535 </r>
       <r>     6.8667    31.8227   529.3905 </r>
       <r>     6.9213    25.1848   530.7653 </r>
       <r>     6.9759    35.7491   532.7166 </r>
       <r>     7.0305    52.1251   535.5618 </r>
       <r>     7.0851    36.5178   537.5551 </r>
       <r>     7.1397    33.6494   539.3918 </r>
       <r>     7.1942    21.5441   540.5678 </r>
       <r>     7.2488    49.6971   543.2805 </r>
       <r>     7.3034    63.7810   546.7620 </r>
       <r>     7.3580    77.1128   550.9711 </r>
       <r>     7.4126    79.7032   555.3217 </r>
       <r>     7.4672    81.8228   559.7879 </r>
       <r>     7.5217   105.0222   565.5205 </r>
       <r>     7.5763    69.6216   569.3208 </r>
       <r>     7.6309    93.3971   574.4188 </r>
       <r>     7.6855    73.6407   578.4384 </r>
       <r>     7.7401    89.7053   583.3349 </r>
       <r>     7.7947    94.7312   588.5057 </r>
       <r>     7.8492    96.8265   593.7909 </r>
       <r>     7.9038    98.0759   599.1443 </r>
       <r>     7.9584    85.1305   603.7911 </r>
       <r>     8.0130    94.6306   608.9565 </r>
       <r>     8.0676    84.1746   613.5512 </r>
       <r>     8.1222    76.1402   617.7073 </r>
       <r>     8.1768    81.3345   622.1469 </r>
       <r>     8.2313    80.0553   626.5167 </r>
       <r>     8.2859    94.1180   631.6541 </r>
       <r>     8.3405    72.3622   635.6039 </r>
       <r>     8.3951    81.8837   640.0735 </r>
       <r>     8.4497    53.7712   643.0085 </r>
       <r>     8.5043     4.4232   643.2500 </r>
       <r>     8.5588     2.3170   643.3765 </r>
       <r>     8.6134    11.4233   644.0000 </r>
       <r>     8.6680     0.0000   644.0000 </r>
       <r>     8.7226     0.0000   644.0000 </r>
       <r>     8.7772     0.0000   644.0000 </r>
       <r>     8.8318     0.0000   644.0000 </r>
       <r>     8.8863     0.0000   644.0000 </r>
       <r>     8.9409     0.0000   644.0000 </r>
       <r>     8.9955     0.0000   644.0000 </r>
       <r>     9.0501     0.0000   644.0000 </r>
       <r>     9.1047     0.0000   644.0000 </r>
       <r>     9.1593     0.0000   644.0000 </r>
       <r>     9.2139     0.0000   644.0000 </r>
       <r>     9.2684     0.0000   644.0000 </r>
       <r>     9.3230     0.0000   644.0000 </r>
      </set>
     </set>
    </array>
   </total>
  </dos>
 </calculation>
 <structure name="finalpos" >
  <crystal>
   <varray name="basis" >
    <v>       0.00000000      10.93733369      10.93733369 </v>
    <v>      10.93733369       0.00000000      10.93733369 </v>
    <v>      10.93733369      10.93733369       0.00000000 </v>
   </varray>
   <i name="volume">   2616.76295363 </i>
   <varray name="rec_basis" >
    <v>      -0.04571498       0.04571498       0.04571498 </v>
    <v>       0.04571498      -0.04571498       0.04571498 </v>
    <v>       0.04571498       0.04571498      -0.04571498 </v>
   </varray>
  </crystal>
  <varray name="positions" >
   <v>       0.99662066       0.00228841       0.00516118 </v>
   <v>       0.25991905       0.98667769       0.00514832 </v>
   <v>       0.48871101       0.01145155       0.99541738 </v>
   <v>       0.74329774       0.00019762       0.00654314 </v>
   <v>       0.99276601       0.25099080       0.00475583 </v>
   <v>       0.25193238       0.25130936       0.00133353 </v>
   <v>       0.50414115       0.24885606       0.98140811 </v>
   <v>       0.76529298       0.25195776       0.99704105 </v>
   <v>       0.00139539       0.50216835       0.98830354 </v>
   <v>       0.24724293       0.50688399       0.01434096 </v>
   <v>       0.49218145       0.49027360       0.00753452 </v>
   <v>       0.76102393       0.49033112       0.00148286 </v>
   <v>       0.99806643       0.76527679       0.99183205 </v>
   <v>       0.25041198       0.75242870       0.99906579 </v>
   <v>       0.49925509       0.74965369       0.99673832 </v>
   <v>       0.74228066       0.75375450       0.99699422 </v>
   <v>       0.02019625       0.99121204       0.24288579 </v>
   <v>       0.25250315       0.99460418       0.24425436 </v>
   <v>       0.49533674       0.00729086       0.25395619 </v>
   <v>       0.75833170       0.99478255       0.24848788 </v>
   <v>       0.99396635       0.25184402       0.24829493 </v>
   <v>       0.24637458       0.24096256       0.25304838 </v>
   <v>       0.49581096       0.25662614       0.24460738 </v>
   <v>       0.75340837       0.24655383       0.25202951 </v>
   <v>       0.00962128       0.49406529       0.25557818 </v>
   <v>       0.25570881       0.50599429       0.24345189 </v>
   <v>       0.49180289       0.50740872       0.24640566 </v>
   <v>       0.74010131       0.51159848       0.24775542 </v>
   <v>       0.99523365       0.74362093       0.24755138 </v>
   <v>       0.25415952       0.74843470       0.25448198 </v>
   <v>       0.51044463       0.74496007       0.24962951 </v>
   <v>       0.74441861       0.75955404       0.25168164 </v>
   <v>       0.00530519       0.00650099       0.48860594 </v>
   <v>       0.24781569       0.99400612       0.49878151 </v>
   <v>       0.50037155       0.00087295       0.50018060 </v>
   <v>       0.75504800       0.99684873       0.50420571 </v>
   <v>       0.99412062       0.24559302       0.49706215 </v>
   <v>       0.25327614       0.25278506       0.49726276 </v>
   <v>       0.49139705       0.24622930       0.50891547 </v>
   <v>       0.74281984       0.26702773       0.49084617 </v>
   <v>       0.99006432       0.49834878       0.50983332 </v>
   <v>       0.24391134       0.49544709       0.50377938 </v>
   <v>       0.49998498       0.50080417       0.50751002 </v>
   <v>       0.75401391       0.48862544       0.50224988 </v>
   <v>       0.00820330       0.75692407       0.49453537 </v>
   <v>       0.23965680       0.75735526       0.51570173 </v>
   <v>       0.50810251       0.72752994       0.51039119 </v>
   <v>       0.74200656       0.74823892       0.50053079 </v>
   <v>       0.99596668       0.00283218       0.74901131 </v>
   <v>       0.24868197       0.00742703       0.75100944 </v>
   <v>       0.50485634       0.00593248       0.74449411 </v>
   <v>       0.75965232       0.99472044       0.74834284 </v>
   <v>       0.99483173       0.25145883       0.74966461 </v>
   <v>       0.24428544       0.25764194       0.75769901 </v>
   <v>       0.50077760       0.25119621       0.75984130 </v>
   <v>       0.74000407       0.25215521       0.75744651 </v>
   <v>       0.98988136       0.51478229       0.75108237 </v>
   <v>       0.25207983       0.49805900       0.75255155 </v>
   <v>       0.51169158       0.48735919       0.75532702 </v>
   <v>       0.74376658       0.50081760       0.75555103 </v>
   <v>       0.01390315       0.74221257       0.75125685 </v>
   <v>       0.26714781       0.75298029       0.74269345 </v>
   <v>       0.50215199       0.74693363       0.74388844 </v>
   <v>       0.74888679       0.74360199       0.75869620 </v>
   <v>       0.06274678       0.06296619       0.06072834 </v>
   <v>       0.30104226       0.07066777       0.05390427 </v>
   <v>       0.55250692       0.06981508       0.07051699 </v>
   <v>       0.81307493       0.07408617       0.06227930 </v>
   <v>       0.06622423       0.31634555       0.05527706 </v>
   <v>       0.31881389       0.30993874       0.05857530 </v>
   <v>       0.55476464       0.30537412       0.06648639 </v>
   <v>       0.81227604       0.30538635       0.07006299 </v>
   <v>       0.06706685       0.55863342       0.06584495 </v>
   <v>       0.32179212       0.57539210       0.04842349 </v>
   <v>       0.56863793       0.56123724       0.05825435 </v>
   <v>       0.80866415       0.56877827       0.05798286 </v>
   <v>       0.07103713       0.81346350       0.05635290 </v>
   <v>       0.31745770       0.80560248       0.05893651 </v>
   <v>       0.56881625       0.80074899       0.06172384 </v>
   <v>       0.81681016       0.81032998       0.06918701 </v>
   <v>       0.07547271       0.05787707       0.31632819 </v>
   <v>       0.31968355       0.07243648       0.30239554 </v>
   <v>       0.55288748       0.07063267       0.31937826 </v>
   <v>       0.80880237       0.06885866       0.30676607 </v>
   <v>       0.05764078       0.30793637       0.31291903 </v>
   <v>       0.31212949       0.30386039       0.31156450 </v>
   <v>       0.56302422       0.31745035       0.31270120 </v>
   <v>       0.81161154       0.32020361       0.30090293 </v>
   <v>       0.06549842       0.55488332       0.32371686 </v>
   <v>       0.29929006       0.57124786       0.31013343 </v>
   <v>       0.55502045       0.56834983       0.31742681 </v>
   <v>       0.80561813       0.56336814       0.30791490 </v>
   <v>       0.05277242       0.80896693       0.31535568 </v>
   <v>       0.30962194       0.81179205       0.31396883 </v>
   <v>       0.55834905       0.81115287       0.30825080 </v>
   <v>       0.81189987       0.82084005       0.30777100 </v>
   <v>       0.06119237       0.06890076       0.56161424 </v>
   <v>       0.32354784       0.06485222       0.54345220 </v>
   <v>       0.57095297       0.06141335       0.54962786 </v>
   <v>       0.80728001       0.06419236       0.56672719 </v>
   <v>       0.05356023       0.31938237       0.56592545 </v>
   <v>       0.30920258       0.30126461       0.57090239 </v>
   <v>       0.55681494       0.31535591       0.56920557 </v>
   <v>       0.81689525       0.29824312       0.56105587 </v>
   <v>       0.06147712       0.54976118       0.57055022 </v>
   <v>       0.31027766       0.55957398       0.56968191 </v>
   <v>       0.57520882       0.54762424       0.57324762 </v>
   <v>       0.79252046       0.57324278       0.57499842 </v>
   <v>       0.05256144       0.83081870       0.56095347 </v>
   <v>       0.31646694       0.80977482       0.56126859 </v>
   <v>       0.56030694       0.80765563       0.56429042 </v>
   <v>       0.81715130       0.81136730       0.55524626 </v>
   <v>       0.06566647       0.06055474       0.81089165 </v>
   <v>       0.30626048       0.06225752       0.81013384 </v>
   <v>       0.56190098       0.05754618       0.81145599 </v>
   <v>       0.80707300       0.04906541       0.82868025 </v>
   <v>       0.07162334       0.31635483       0.80536472 </v>
   <v>       0.32015830       0.31247216       0.80403511 </v>
   <v>       0.56411482       0.31815162       0.81056208 </v>
   <v>       0.82013518       0.31679485       0.81215075 </v>
   <v>       0.06616847       0.56479429       0.81094569 </v>
   <v>       0.31190514       0.56069089       0.81428153 </v>
   <v>       0.56026743       0.55361407       0.82483428 </v>
   <v>       0.81747747       0.56078378       0.81168744 </v>
   <v>       0.06999872       0.80964513       0.80767557 </v>
   <v>       0.31082495       0.81164344       0.81007419 </v>
   <v>       0.56544123       0.80137273       0.81463955 </v>
   <v>       0.79794420       0.81573282       0.81857952 </v>
  </varray>
 </structure>
</modeling>
