potpaw_PBE@./ARUN.APL1ZEROSTATE         
           1
     0.000000   10.937334   10.937334
    10.937334    0.000000   10.937334
    10.937334   10.937334    0.000000
   Si
 128
Direct configuration=     1
   0.99662066  0.00228841  0.00516118
   0.25991905  0.98667769  0.00514832
   0.48871101  0.01145155  0.99541738
   0.74329774  0.00019762  0.00654314
   0.99276601  0.25099080  0.00475583
   0.25193238  0.25130936  0.00133353
   0.50414115  0.24885606  0.98140811
   0.76529298  0.25195776  0.99704105
   0.00139539  0.50216835  0.98830354
   0.24724293  0.50688399  0.01434096
   0.49218145  0.49027360  0.00753452
   0.76102393  0.49033112  0.00148286
   0.99806643  0.76527679  0.99183205
   0.25041198  0.75242870  0.99906579
   0.49925509  0.74965369  0.99673832
   0.74228066  0.75375450  0.99699422
   0.02019625  0.99121204  0.24288579
   0.25250315  0.99460418  0.24425436
   0.49533674  0.00729086  0.25395619
   0.75833170  0.99478255  0.24848788
   0.99396635  0.25184402  0.24829493
   0.24637458  0.24096256  0.25304838
   0.49581096  0.25662614  0.24460738
   0.75340837  0.24655383  0.25202951
   0.00962128  0.49406529  0.25557818
   0.25570881  0.50599429  0.24345189
   0.49180289  0.50740872  0.24640566
   0.74010131  0.51159848  0.24775542
   0.99523365  0.74362093  0.24755138
   0.25415952  0.74843470  0.25448198
   0.51044463  0.74496007  0.24962951
   0.74441861  0.75955404  0.25168164
   0.00530519  0.00650099  0.48860594
   0.24781569  0.99400612  0.49878151
   0.50037155  0.00087295  0.50018060
   0.75504800  0.99684873  0.50420571
   0.99412062  0.24559302  0.49706215
   0.25327614  0.25278506  0.49726276
   0.49139705  0.24622930  0.50891547
   0.74281984  0.26702773  0.49084617
   0.99006432  0.49834878  0.50983332
   0.24391134  0.49544709  0.50377938
   0.49998498  0.50080417  0.50751002
   0.75401391  0.48862544  0.50224988
   0.00820330  0.75692407  0.49453537
   0.23965680  0.75735526  0.51570173
   0.50810251  0.72752994  0.51039119
   0.74200656  0.74823892  0.50053079
   0.99596668  0.00283218  0.74901131
   0.24868197  0.00742703  0.75100944
   0.50485634  0.00593248  0.74449411
   0.75965232  0.99472044  0.74834284
   0.99483173  0.25145883  0.74966461
   0.24428544  0.25764194  0.75769901
   0.50077760  0.25119621  0.75984130
   0.74000407  0.25215521  0.75744651
   0.98988136  0.51478229  0.75108237
   0.25207983  0.49805900  0.75255155
   0.51169158  0.48735919  0.75532702
   0.74376658  0.50081760  0.75555103
   0.01390315  0.74221257  0.75125685
   0.26714781  0.75298029  0.74269345
   0.50215199  0.74693363  0.74388844
   0.74888679  0.74360199  0.75869620
   0.06274678  0.06296619  0.06072834
   0.30104226  0.07066777  0.05390427
   0.55250692  0.06981508  0.07051699
   0.81307493  0.07408617  0.06227930
   0.06622423  0.31634555  0.05527706
   0.31881389  0.30993874  0.05857530
   0.55476464  0.30537412  0.06648639
   0.81227604  0.30538635  0.07006299
   0.06706685  0.55863342  0.06584495
   0.32179212  0.57539210  0.04842349
   0.56863793  0.56123724  0.05825435
   0.80866415  0.56877827  0.05798286
   0.07103713  0.81346350  0.05635290
   0.31745770  0.80560248  0.05893651
   0.56881625  0.80074899  0.06172384
   0.81681016  0.81032998  0.06918701
   0.07547271  0.05787707  0.31632819
   0.31968355  0.07243648  0.30239554
   0.55288748  0.07063267  0.31937826
   0.80880237  0.06885866  0.30676607
   0.05764078  0.30793637  0.31291903
   0.31212949  0.30386039  0.31156450
   0.56302422  0.31745035  0.31270120
   0.81161154  0.32020361  0.30090293
   0.06549842  0.55488332  0.32371686
   0.29929006  0.57124786  0.31013343
   0.55502045  0.56834983  0.31742681
   0.80561813  0.56336814  0.30791490
   0.05277242  0.80896693  0.31535568
   0.30962194  0.81179205  0.31396883
   0.55834905  0.81115287  0.30825080
   0.81189987  0.82084005  0.30777100
   0.06119237  0.06890076  0.56161424
   0.32354784  0.06485222  0.54345220
   0.57095297  0.06141335  0.54962786
   0.80728001  0.06419236  0.56672719
   0.05356023  0.31938237  0.56592545
   0.30920258  0.30126461  0.57090239
   0.55681494  0.31535591  0.56920557
   0.81689525  0.29824312  0.56105587
   0.06147712  0.54976118  0.57055022
   0.31027766  0.55957398  0.56968191
   0.57520882  0.54762424  0.57324762
   0.79252046  0.57324278  0.57499842
   0.05256144  0.83081870  0.56095347
   0.31646694  0.80977482  0.56126859
   0.56030694  0.80765563  0.56429042
   0.81715130  0.81136730  0.55524626
   0.06566647  0.06055474  0.81089165
   0.30626048  0.06225752  0.81013384
   0.56190098  0.05754618  0.81145599
   0.80707300  0.04906541  0.82868025
   0.07162334  0.31635483  0.80536472
   0.32015830  0.31247216  0.80403511
   0.56411482  0.31815162  0.81056208
   0.82013518  0.31679485  0.81215075
   0.06616847  0.56479429  0.81094569
   0.31190514  0.56069089  0.81428153
   0.56026743  0.55361407  0.82483428
   0.81747747  0.56078378  0.81168744
   0.06999872  0.80964513  0.80767557
   0.31082495  0.81164344  0.81007419
   0.56544123  0.80137273  0.81463955
   0.79794420  0.81573282  0.81857952
