 128 128   0   0
  0.2044346E+02  0.1546773E-08  0.1546773E-08  0.1546773E-08  0.5000000E-15
  1.000000000000000E-004
  CAR 
 potpaw_PBE@./ARUN.APL1ZEROSTATE         
      9.34305693     -7.03378431  301      5.91756764      1.00000000
     -7.034  0.0000E+00  0.0000E+00
     -6.979  0.0000E+00  0.0000E+00
     -6.925  0.0000E+00  0.0000E+00
     -6.870  0.0000E+00  0.0000E+00
     -6.815  0.0000E+00  0.0000E+00
     -6.761  0.0000E+00  0.0000E+00
     -6.706  0.0000E+00  0.0000E+00
     -6.652  0.0000E+00  0.0000E+00
     -6.597  0.0000E+00  0.0000E+00
     -6.542  0.0000E+00  0.0000E+00
     -6.488  0.0000E+00  0.0000E+00
     -6.433  0.0000E+00  0.0000E+00
     -6.379  0.0000E+00  0.0000E+00
     -6.324  0.2056E-05  0.1122E-06
     -6.270  0.4568E+01  0.2494E+00
     -6.215  0.1144E-01  0.2500E+00
     -6.160  0.5709E-06  0.2500E+00
     -6.106  0.1463E+02  0.1049E+01
     -6.051  0.2838E+02  0.2598E+01
     -5.997  0.1980E+02  0.3679E+01
     -5.942  0.1303E+01  0.3750E+01
     -5.887  0.1076E-07  0.3750E+01
     -5.833  0.8718E+01  0.4226E+01
     -5.778  0.1869E+02  0.5246E+01
     -5.724  0.1822E+02  0.6241E+01
     -5.669  0.3647E+02  0.8232E+01
     -5.614  0.2242E+02  0.9456E+01
     -5.560  0.2809E+02  0.1099E+02
     -5.505  0.2117E+02  0.1215E+02
     -5.451  0.3379E+02  0.1399E+02
     -5.396  0.1389E+02  0.1475E+02
     -5.342  0.1828E+01  0.1485E+02
     -5.287  0.3638E+01  0.1505E+02
     -5.232  0.8321E+01  0.1550E+02
     -5.178  0.3102E+02  0.1719E+02
     -5.123  0.3838E+02  0.1929E+02
     -5.069  0.3659E+02  0.2129E+02
     -5.014  0.4045E+02  0.2349E+02
     -4.959  0.4778E+02  0.2610E+02
     -4.905  0.3256E+02  0.2788E+02
     -4.850  0.1335E+02  0.2861E+02
     -4.796  0.1705E+02  0.2954E+02
     -4.741  0.3739E+02  0.3158E+02
     -4.686  0.3269E+02  0.3336E+02
     -4.632  0.6064E+02  0.3668E+02
     -4.577  0.3180E+02  0.3841E+02
     -4.523  0.2366E+02  0.3970E+02
     -4.468  0.3052E+02  0.4137E+02
     -4.413  0.2792E+02  0.4289E+02
     -4.359  0.8336E+01  0.4335E+02
     -4.304  0.2841E+02  0.4490E+02
     -4.250  0.4759E+02  0.4750E+02
     -4.195  0.5242E+02  0.5036E+02
     -4.141  0.6007E+02  0.5364E+02
     -4.086  0.6613E+02  0.5725E+02
     -4.031  0.5785E+02  0.6041E+02
     -3.977  0.5460E+02  0.6339E+02
     -3.922  0.4192E+02  0.6568E+02
     -3.868  0.5337E+02  0.6859E+02
     -3.813  0.5229E+02  0.7144E+02
     -3.758  0.4718E+02  0.7402E+02
     -3.704  0.5021E+02  0.7676E+02
     -3.649  0.3625E+02  0.7874E+02
     -3.595  0.3268E+02  0.8052E+02
     -3.540  0.3691E+02  0.8254E+02
     -3.485  0.4113E+02  0.8478E+02
     -3.431  0.5068E+02  0.8755E+02
     -3.376  0.4714E+02  0.9012E+02
     -3.322  0.4749E+02  0.9271E+02
     -3.267  0.5570E+02  0.9576E+02
     -3.213  0.1862E+02  0.9677E+02
     -3.158  0.3363E+02  0.9861E+02
     -3.103  0.3813E+02  0.1007E+03
     -3.049  0.5237E+02  0.1035E+03
     -2.994  0.5161E+02  0.1064E+03
     -2.940  0.4024E+02  0.1086E+03
     -2.885  0.2873E+02  0.1101E+03
     -2.830  0.3940E+02  0.1123E+03
     -2.776  0.2534E+02  0.1137E+03
     -2.721  0.4027E+02  0.1159E+03
     -2.667  0.2728E+02  0.1174E+03
     -2.612  0.4619E+02  0.1199E+03
     -2.557  0.2408E+02  0.1212E+03
     -2.503  0.2264E+02  0.1224E+03
     -2.448  0.5986E+01  0.1227E+03
     -2.394  0.1637E-11  0.1228E+03
     -2.339  0.3236E+01  0.1229E+03
     -2.285  0.6644E+01  0.1233E+03
     -2.230  0.9017E+01  0.1238E+03
     -2.175  0.3493E+02  0.1257E+03
     -2.121  0.2863E+02  0.1273E+03
     -2.066  0.2963E+02  0.1289E+03
     -2.012  0.3262E+02  0.1306E+03
     -1.957  0.1831E+02  0.1316E+03
     -1.902  0.1129E+02  0.1323E+03
     -1.848  0.1098E+02  0.1329E+03
     -1.793  0.5973E+01  0.1332E+03
     -1.739  0.1089E+01  0.1332E+03
     -1.684  0.2904E+01  0.1334E+03
     -1.629  0.2027E+02  0.1345E+03
     -1.575  0.3074E+02  0.1362E+03
     -1.520  0.3206E+02  0.1379E+03
     -1.466  0.3069E+02  0.1396E+03
     -1.411  0.4750E+02  0.1422E+03
     -1.356  0.4310E+02  0.1446E+03
     -1.302  0.4037E+02  0.1468E+03
     -1.247  0.6903E+02  0.1505E+03
     -1.193  0.6151E+02  0.1539E+03
     -1.138  0.5980E+02  0.1572E+03
     -1.084  0.7159E+02  0.1611E+03
     -1.029  0.6376E+02  0.1645E+03
     -0.974  0.7067E+02  0.1684E+03
     -0.920  0.7000E+02  0.1722E+03
     -0.865  0.6883E+02  0.1760E+03
     -0.811  0.3852E+02  0.1781E+03
     -0.756  0.4691E+02  0.1806E+03
     -0.701  0.6054E+02  0.1840E+03
     -0.647  0.3617E+02  0.1859E+03
     -0.592  0.4093E+02  0.1882E+03
     -0.538  0.2901E+02  0.1897E+03
     -0.483  0.1860E+02  0.1908E+03
     -0.428  0.5070E+01  0.1910E+03
     -0.374  0.4386E+02  0.1934E+03
     -0.319  0.4123E+02  0.1957E+03
     -0.265  0.6413E+02  0.1992E+03
     -0.210  0.4835E+02  0.2018E+03
     -0.156  0.5185E+02  0.2047E+03
     -0.101  0.2783E+02  0.2062E+03
     -0.046  0.5483E+02  0.2092E+03
      0.008  0.5097E+02  0.2119E+03
      0.063  0.2102E+02  0.2131E+03
      0.117  0.1207E+02  0.2138E+03
      0.172  0.9076E+01  0.2142E+03
      0.227  0.3552E+01  0.2144E+03
      0.281  0.2118E+02  0.2156E+03
      0.336  0.2139E+02  0.2168E+03
      0.390  0.3094E+02  0.2185E+03
      0.445  0.2063E+02  0.2196E+03
      0.500  0.3084E+02  0.2213E+03
      0.554  0.1807E+02  0.2223E+03
      0.609  0.2274E+02  0.2235E+03
      0.663  0.2745E+02  0.2250E+03
      0.718  0.9181E+01  0.2255E+03
      0.773  0.2803E+02  0.2270E+03
      0.827  0.1328E+02  0.2277E+03
      0.882  0.6178E+01  0.2281E+03
      0.936  0.1389E+02  0.2288E+03
      0.991  0.1953E+02  0.2299E+03
      1.045  0.3174E+02  0.2316E+03
      1.100  0.2074E+02  0.2328E+03
      1.155  0.3625E+02  0.2348E+03
      1.209  0.1849E+02  0.2358E+03
      1.264  0.2648E+02  0.2372E+03
      1.318  0.2756E+02  0.2387E+03
      1.373  0.2528E+02  0.2401E+03
      1.428  0.4164E+02  0.2424E+03
      1.482  0.7602E+02  0.2465E+03
      1.537  0.8392E+02  0.2511E+03
      1.591  0.9528E+02  0.2563E+03
      1.646  0.8538E+02  0.2610E+03
      1.701  0.6966E+02  0.2648E+03
      1.755  0.6840E+02  0.2685E+03
      1.810  0.3439E+02  0.2704E+03
      1.864  0.3577E+02  0.2723E+03
      1.919  0.2166E+02  0.2735E+03
      1.973  0.1720E+02  0.2745E+03
      2.028  0.3073E+02  0.2761E+03
      2.083  0.6769E+02  0.2798E+03
      2.137  0.8679E+02  0.2846E+03
      2.192  0.1075E+03  0.2904E+03
      2.246  0.1407E+03  0.2981E+03
      2.301  0.1224E+03  0.3048E+03
      2.356  0.1177E+03  0.3112E+03
      2.410  0.9725E+02  0.3165E+03
      2.465  0.7116E+02  0.3204E+03
      2.519  0.4789E+02  0.3230E+03
      2.574  0.2756E+02  0.3245E+03
      2.629  0.4313E+02  0.3269E+03
      2.683  0.5539E+02  0.3299E+03
      2.738  0.7861E+02  0.3342E+03
      2.792  0.1075E+03  0.3401E+03
      2.847  0.8626E+02  0.3448E+03
      2.901  0.8991E+02  0.3497E+03
      2.956  0.1047E+03  0.3554E+03
      3.011  0.8612E+02  0.3601E+03
      3.065  0.1142E+03  0.3663E+03
      3.120  0.8075E+02  0.3707E+03
      3.174  0.5654E+02  0.3738E+03
      3.229  0.8537E+02  0.3785E+03
      3.284  0.8879E+02  0.3833E+03
      3.338  0.9743E+02  0.3886E+03
      3.393  0.1132E+03  0.3948E+03
      3.447  0.7887E+02  0.3991E+03
      3.502  0.7911E+02  0.4035E+03
      3.557  0.9023E+02  0.4084E+03
      3.611  0.8105E+02  0.4128E+03
      3.666  0.7779E+02  0.4171E+03
      3.720  0.6138E+02  0.4204E+03
      3.775  0.9128E+02  0.4254E+03
      3.830  0.9420E+02  0.4305E+03
      3.884  0.7357E+02  0.4345E+03
      3.939  0.8358E+02  0.4391E+03
      3.993  0.6418E+02  0.4426E+03
      4.048  0.6171E+02  0.4460E+03
      4.102  0.6576E+02  0.4496E+03
      4.157  0.5985E+02  0.4528E+03
      4.212  0.8904E+02  0.4577E+03
      4.266  0.4677E+02  0.4602E+03
      4.321  0.8134E+02  0.4647E+03
      4.375  0.7853E+02  0.4690E+03
      4.430  0.8413E+02  0.4736E+03
      4.485  0.6565E+02  0.4772E+03
      4.539  0.7100E+02  0.4810E+03
      4.594  0.5725E+02  0.4842E+03
      4.648  0.5085E+02  0.4869E+03
      4.703  0.3834E+02  0.4890E+03
      4.758  0.2489E+02  0.4904E+03
      4.812  0.3116E+02  0.4921E+03
      4.867  0.1960E+02  0.4932E+03
      4.921  0.5526E+02  0.4962E+03
      4.976  0.4591E+02  0.4987E+03
      5.030  0.4149E+02  0.5009E+03
      5.085  0.2827E+02  0.5025E+03
      5.140  0.1381E+02  0.5032E+03
      5.194  0.7890E+01  0.5037E+03
      5.249  0.5960E+01  0.5040E+03
      5.303  0.4166E+01  0.5042E+03
      5.358  0.1891E+02  0.5053E+03
      5.413  0.2380E+02  0.5066E+03
      5.467  0.2174E+02  0.5077E+03
      5.522  0.2702E+02  0.5092E+03
      5.576  0.2227E+02  0.5104E+03
      5.631  0.1051E+02  0.5110E+03
      5.686  0.5168E+01  0.5113E+03
      5.740  0.3965E+01  0.5115E+03
      5.795  0.4549E+01  0.5117E+03
      5.849  0.4191E+01  0.5120E+03
      5.904  0.3891E+00  0.5120E+03
      5.959  0.0000E+00  0.5120E+03
      6.013  0.0000E+00  0.5120E+03
      6.068  0.0000E+00  0.5120E+03
      6.122  0.1037E+01  0.5121E+03
      6.177  0.1409E+02  0.5128E+03
      6.231  0.2150E+02  0.5140E+03
      6.286  0.1297E+02  0.5147E+03
      6.341  0.1515E+02  0.5155E+03
      6.395  0.2245E+02  0.5168E+03
      6.450  0.2833E+02  0.5183E+03
      6.504  0.3005E+02  0.5199E+03
      6.559  0.2176E+02  0.5211E+03
      6.614  0.1442E+02  0.5219E+03
      6.668  0.1106E+02  0.5225E+03
      6.723  0.3013E+02  0.5242E+03
      6.777  0.4064E+02  0.5264E+03
      6.832  0.3489E+02  0.5283E+03
      6.887  0.2996E+02  0.5299E+03
      6.941  0.3023E+02  0.5316E+03
      6.996  0.3961E+02  0.5337E+03
      7.050  0.4586E+02  0.5362E+03
      7.105  0.3910E+02  0.5384E+03
      7.159  0.2678E+02  0.5398E+03
      7.214  0.2755E+02  0.5413E+03
      7.269  0.5781E+02  0.5445E+03
      7.323  0.7323E+02  0.5485E+03
      7.378  0.7537E+02  0.5526E+03
      7.432  0.7016E+02  0.5564E+03
      7.487  0.1028E+03  0.5621E+03
      7.542  0.8485E+02  0.5667E+03
      7.596  0.8887E+02  0.5715E+03
      7.651  0.8763E+02  0.5763E+03
      7.705  0.8269E+02  0.5808E+03
      7.760  0.8600E+02  0.5855E+03
      7.815  0.7956E+02  0.5899E+03
      7.869  0.1075E+03  0.5957E+03
      7.924  0.8626E+02  0.6005E+03
      7.978  0.1029E+03  0.6061E+03
      8.033  0.7994E+02  0.6104E+03
      8.087  0.9109E+02  0.6154E+03
      8.142  0.6876E+02  0.6192E+03
      8.197  0.8792E+02  0.6240E+03
      8.251  0.8838E+02  0.6288E+03
      8.306  0.8347E+02  0.6333E+03
      8.360  0.7775E+02  0.6376E+03
      8.415  0.7456E+02  0.6417E+03
      8.470  0.2802E+02  0.6432E+03
      8.524  0.7146E+01  0.6436E+03
      8.579  0.3222E+01  0.6438E+03
      8.633  0.4568E+01  0.6440E+03
      8.688  0.0000E+00  0.6440E+03
      8.743  0.0000E+00  0.6440E+03
      8.797  0.0000E+00  0.6440E+03
      8.852  0.0000E+00  0.6440E+03
      8.906  0.0000E+00  0.6440E+03
      8.961  0.0000E+00  0.6440E+03
      9.016  0.0000E+00  0.6440E+03
      9.070  0.0000E+00  0.6440E+03
      9.125  0.0000E+00  0.6440E+03
      9.179  0.0000E+00  0.6440E+03
      9.234  0.0000E+00  0.6440E+03
      9.288  0.0000E+00  0.6440E+03
      9.343  0.0000E+00  0.6440E+03
