 vasp.5.4.4.18Apr17-6-g9f103f2a35 (build Nov 08 2017 09:05:29) complex          
  
 executed on          Intel_17.33 date 2020.07.18  22:08:34
 running on   32 total cores
 distrk:  each k-point on   32 cores,    1 groups
 distr:  one band on NCORES_PER_BAND=  16 cores,    2 groups


--------------------------------------------------------------------------------------------------------


 INCAR:
 POTCAR:   PAW_PBE Si 05Jan2001                   

 ----------------------------------------------------------------------------- 
|                                                                             |
|           W    W    AA    RRRRR   N    N  II  N    N   GGGG   !!!           |
|           W    W   A  A   R    R  NN   N  II  NN   N  G    G  !!!           |
|           W    W  A    A  R    R  N N  N  II  N N  N  G       !!!           |
|           W WW W  AAAAAA  RRRRR   N  N N  II  N  N N  G  GGG   !            |
|           WW  WW  A    A  R   R   N   NN  II  N   NN  G    G                |
|           W    W  A    A  R    R  N    N  II  N    N   GGGG   !!!           |
|                                                                             |
|      For optimal performance we recommend to set                            |
|        NCORE= 4 - approx SQRT( number of cores)                             |
|      NCORE specifies how many cores store one orbital (NPAR=cpu/NCORE).     |
|      This setting can  greatly improve the performance of VASP for DFT.     |
|      The default,   NCORE=1            might be grossly inefficient         |
|      on modern multi-core architectures or massively parallel machines.     |
|      Do your own testing !!!!                                               |
|      Unfortunately you need to use the default for GW and RPA calculations. |
|      (for HF NCORE is supported but not extensively tested yet)             |
|                                                                             |
 ----------------------------------------------------------------------------- 

 POTCAR:   PAW_PBE Si 05Jan2001                   
   VRHFIN =Si: s2p2                                                             
   LEXCH  = PE                                                                  
   EATOM  =   103.0669 eV,    7.5752 Ry                                         
                                                                                
   TITEL  = PAW_PBE Si 05Jan2001                                                
   LULTRA =        F    use ultrasoft PP ?                                      
   IUNSCR =        1    unscreen: 0-lin 1-nonlin 2-no                           
   RPACOR =    1.500    partial core radius                                     
   POMASS =   28.085; ZVAL   =    4.000    mass and valenz                      
   RCORE  =    1.900    outmost cutoff radius                                   
   RWIGS  =    2.480; RWIGS  =    1.312    wigner-seitz radius (au A)           
   ENMAX  =  245.345; ENMIN  =  184.009 eV                                      
   ICORE  =        2    local potential                                         
   LCOR   =        T    correct aug charges                                     
   LPAW   =        T    paw PP                                                  
   EAUG   =  322.069                                                            
   DEXC   =    -.007                                                            
   RMAX   =    2.944    core radius for proj-oper                               
   RAUG   =    1.300    factor for augmentation sphere                          
   RDEP   =    1.993    radius for radial grids                                 
   QCUT   =   -4.246; QGAM   =    8.493    optimization parameters              
                                                                                
   Description                                                                  
     l     E      TYP  RCUT    TYP  RCUT                                        
     0   .000     23  1.900                                                     
     0   .000     23  1.900                                                     
     1   .000     23  1.900                                                     
     1   .000     23  1.900                                                     
     2   .000      7  1.900                                                     
  local pseudopotential read in
  partial core-charges read in
  atomic valenz-charges read in
  non local Contribution for L=           0  read in
    real space projection operators read in
  non local Contribution for L=           0  read in
    real space projection operators read in
  non local Contribution for L=           1  read in
    real space projection operators read in
  non local Contribution for L=           1  read in
    real space projection operators read in
    PAW grid and wavefunctions read in
 
   number of l-projection  operators is LMAX  =           4
   number of lm-projection operators is LMMAX =           8
 

 ----------------------------------------------------------------------------- 
|                                                                             |
|  ADVICE TO THIS USER RUNNING 'VASP/VAMP'   (HEAR YOUR MASTER'S VOICE ...):  |
|                                                                             |
|      You have a (more or less) 'large supercell' and for larger cells       |
|      it might be more efficient to use real space projection operators      |
|      So try LREAL= Auto  in the INCAR   file.                               |
|      Mind: If you want to do a very accurate calculations keep the          |
|      reciprocal projection scheme          (i.e. LREAL=.FALSE.)             |
|                                                                             |
 ----------------------------------------------------------------------------- 

 PAW_PBE Si 05Jan2001                   :
 energy of atom  1       EATOM= -103.0669
 kinetic energy error for atom=    0.0006 (will be added to EATOM!!)
 
 
 POSCAR: kk                                      
  positions in direct lattice
  No initial velocities read in
 exchange correlation table for  LEXCH =        8
   RHO(1)=    0.500       N(1)  =     2000
   RHO(2)=  100.500       N(2)  =     4000
 


--------------------------------------------------------------------------------------------------------


 ion  position               nearest neighbor table
   1  0.004  0.012  0.001-  65 2.30 113 2.34  68 2.37  77 2.40
   2  0.264  0.995  0.999-  78 2.21  66 2.24 114 2.41  65 2.53
   3  0.506  0.005  0.991-  67 2.27 115 2.30  79 2.45  66 2.52
   4  0.750  0.997  0.007-  80 2.34  68 2.36  67 2.38 116 2.58
   5  0.009  0.250  0.995- 117 2.27  69 2.34  65 2.35  72 2.38
   6  0.246  0.244  0.006-  66 2.23  69 2.36  70 2.36 118 2.51
   7  0.504  0.259  0.998-  71 2.13 119 2.33  70 2.40  67 2.63
   8  0.753  0.245  0.998- 120 2.25  68 2.30  72 2.32  71 2.41
   9  0.002  0.499  0.998-  76 2.22  73 2.29  69 2.29 121 2.42
  10  0.255  0.508  0.994- 122 2.27  74 2.29  70 2.55  73 2.59
  11  0.495  0.511  0.000-  74 2.29  75 2.29 123 2.48  71 2.57
  12  0.750  0.499  0.003-  75 2.38  76 2.39 124 2.39  72 2.52
  13  0.998  0.761  0.997- 125 2.27  80 2.30  73 2.32  77 2.50
  14  0.247  0.768  0.987-  77 2.19  78 2.22 126 2.23  74 2.66
  15  0.504  0.749  0.997-  75 2.26 127 2.33  79 2.40  78 2.69
  16  0.750  0.748  0.999- 128 2.35  79 2.35  80 2.36  76 2.38
  17  0.006  0.998  0.252-  65 2.29  81 2.41  84 2.45  93 2.51
  18  0.242  0.011  0.239-  81 2.21  66 2.27  94 2.30  82 2.38
  19  0.502  0.004  0.245-  67 2.23  83 2.24  82 2.31  95 2.45
  20  0.747  0.002  0.251-  84 2.34  68 2.39  96 2.47  83 2.53
  21  0.007  0.246  0.249-  81 2.26  85 2.37  69 2.38  88 2.59
  22  0.257  0.252  0.248-  70 2.37  85 2.41  82 2.42  86 2.52
  23  0.499  0.249  0.257-  87 2.22  86 2.24  71 2.50  83 2.51
  24  0.749  0.247  0.250-  84 2.28  88 2.34  72 2.42  87 2.45
  25  0.987  0.494  0.264-  85 2.26  89 2.32  92 2.37  73 2.70
  26  0.243  0.488  0.250-  89 2.29  74 2.33  86 2.37  90 2.52
  27  0.502  0.496  0.245-  91 2.25  87 2.32  75 2.40  90 2.41
  28  0.739  0.496  0.245-  88 2.25  91 2.26  76 2.44  92 2.58
  29  0.994  0.744  0.255-  93 2.29  96 2.40  89 2.50  77 2.51
  30  0.256  0.753  0.250-  94 2.32  78 2.40  90 2.48  93 2.62
  31  0.496  0.750  0.249-  79 2.33  94 2.40  95 2.42  91 2.56
  32  0.753  0.749  0.255-  92 2.24  96 2.25  95 2.41  80 2.53
  33  0.005  0.009  0.506-  97 2.19  81 2.46 100 2.47 109 2.48
  34  0.250  0.996  0.508- 110 2.26  98 2.35  97 2.42  82 2.64
  35  0.507  0.000  0.499-  83 2.19  99 2.27  98 2.35 111 2.46
  36  0.751  0.000  0.496- 100 2.30 112 2.34  84 2.40  99 2.48
  37  0.003  0.249  0.497-  97 2.25  85 2.41 104 2.44 101 2.53
  38  0.240  0.249  0.504-  86 2.24 101 2.33  98 2.42 102 2.54
  39  0.500  0.262  0.488-  87 2.21 103 2.32 102 2.35  99 2.42
  40  0.742  0.255  0.483-  88 2.18 103 2.30 100 2.46 104 2.74
  41  0.995  0.497  0.513- 101 2.16 108 2.21 105 2.42  89 2.45
  42  0.244  0.500  0.501- 105 2.30 106 2.32  90 2.40 102 2.41
  43  0.499  0.499  0.491- 106 2.22  91 2.26 107 2.47 103 2.51
  44  0.752  0.497  0.496- 104 2.32  92 2.33 107 2.35 108 2.55
  45  0.991  0.753  0.498-  93 2.21 105 2.26 112 2.35 109 2.58
  46  0.242  0.763  0.504- 109 2.29 110 2.32  94 2.49 106 2.65
  47  0.492  0.741  0.503- 107 2.25 110 2.29  95 2.39 111 2.47
  48  0.756  0.746  0.499-  96 2.22 108 2.37 112 2.42 111 2.54
  49  0.990  0.999  0.756- 116 2.23 125 2.30  97 2.43 113 2.53
  50  0.251  0.998  0.754- 114 2.26 113 2.37 126 2.38  98 2.46
  51  0.507  0.998  0.755- 115 2.23 127 2.30 114 2.45  99 2.48
  52  0.759  0.992  0.741- 100 2.30 128 2.34 116 2.42 115 2.45
  53  0.003  0.268  0.735- 101 2.14 117 2.32 120 2.53 113 2.56
  54  0.244  0.257  0.751- 102 2.30 117 2.34 118 2.35 114 2.50
  55  0.495  0.255  0.755- 118 2.22 119 2.31 103 2.36 115 2.44
  56  0.750  0.251  0.750- 104 2.24 116 2.34 120 2.39 119 2.45
  57  0.006  0.492  0.746- 117 2.26 105 2.39 121 2.39 124 2.51
  58  0.249  0.500  0.751- 122 2.39 118 2.39 121 2.46 106 2.55
  59  0.500  0.500  0.749- 119 2.30 122 2.32 123 2.33 107 2.45
  60  0.751  0.509  0.743- 108 2.22 123 2.28 124 2.37 120 2.44
  61  0.998  0.747  0.753- 121 2.24 128 2.27 109 2.27 125 2.59
  62  0.258  0.753  0.741- 110 2.24 126 2.28 125 2.41 122 2.46
  63  0.494  0.752  0.753- 126 2.31 127 2.31 111 2.31 123 2.45
  64  0.748  0.757  0.751- 112 2.28 128 2.31 124 2.37 127 2.46
  65  0.064  0.065  0.071-  17 2.29   1 2.30   5 2.35   2 2.53
  66  0.307  0.068  0.059-   6 2.23   2 2.24  18 2.27   3 2.52
  67  0.562  0.051  0.069-  19 2.23   3 2.27   4 2.38   7 2.63
  68  0.817  0.063  0.061-   8 2.30   4 2.36   1 2.37  20 2.39
  69  0.059  0.317  0.061-   9 2.29   5 2.34   6 2.36  21 2.38
  70  0.315  0.307  0.060-   6 2.36  22 2.37   7 2.40  10 2.55
  71  0.562  0.308  0.059-   7 2.13   8 2.41  23 2.50  11 2.57
  72  0.821  0.299  0.059-   8 2.32   5 2.38  24 2.42  12 2.52
  73  0.051  0.578  0.050-   9 2.29  13 2.32  10 2.59  25 2.70
  74  0.314  0.557  0.066-  11 2.29  10 2.29  26 2.33  14 2.66
  75  0.562  0.570  0.055-  15 2.26  11 2.29  12 2.38  27 2.40
  76  0.826  0.561  0.054-   9 2.22  16 2.38  12 2.39  28 2.44
  77  0.074  0.822  0.058-  14 2.19   1 2.40  13 2.50  29 2.51
  78  0.291  0.823  0.062-   2 2.21  14 2.22  30 2.40  15 2.69
  79  0.564  0.811  0.065-  31 2.33  16 2.35  15 2.40   3 2.45
  80  0.816  0.812  0.056-  13 2.30   4 2.34  16 2.36  32 2.53
  81  0.067  0.067  0.312-  18 2.21  21 2.26  17 2.41  33 2.46
  82  0.319  0.061  0.299-  19 2.31  18 2.38  22 2.42  34 2.64
  83  0.548  0.052  0.327-  35 2.19  19 2.24  23 2.51  20 2.53
  84  0.812  0.067  0.307-  24 2.28  20 2.34  36 2.40  17 2.45
  85  0.066  0.317  0.306-  25 2.26  21 2.37  22 2.41  37 2.41
  86  0.322  0.304  0.330-  23 2.24  38 2.24  26 2.37  22 2.52
  87  0.555  0.313  0.313-  39 2.21  23 2.22  27 2.32  24 2.45
  88  0.802  0.319  0.311-  40 2.18  28 2.25  24 2.34  21 2.59
  89  0.062  0.546  0.320-  26 2.29  25 2.32  41 2.45  29 2.50
  90  0.311  0.557  0.311-  42 2.40  27 2.41  30 2.48  26 2.52
  91  0.560  0.547  0.313-  27 2.25  28 2.26  43 2.26  31 2.56
  92  0.800  0.572  0.312-  32 2.24  44 2.33  25 2.37  28 2.58
  93  0.050  0.801  0.323-  45 2.21  29 2.29  17 2.51  30 2.62
  94  0.306  0.829  0.307-  18 2.30  30 2.32  31 2.40  46 2.49
  95  0.562  0.810  0.314-  47 2.39  32 2.41  31 2.42  19 2.45
  96  0.804  0.807  0.324-  48 2.22  32 2.25  29 2.40  20 2.47
  97  0.059  0.070  0.564-  33 2.19  37 2.25  34 2.42  49 2.43
  98  0.321  0.058  0.559-  34 2.35  35 2.35  38 2.42  50 2.46
  99  0.555  0.071  0.560-  35 2.27  39 2.42  36 2.48  51 2.48
 100  0.811  0.061  0.559-  36 2.30  52 2.30  40 2.46  33 2.47
 101  0.056  0.326  0.565-  53 2.14  41 2.16  38 2.33  37 2.53
 102  0.315  0.309  0.570-  54 2.30  39 2.35  42 2.41  38 2.54
 103  0.562  0.301  0.568-  40 2.30  39 2.32  55 2.36  43 2.51
 104  0.810  0.314  0.572-  56 2.24  44 2.32  37 2.44  40 2.74
 105  0.063  0.575  0.558-  45 2.26  42 2.30  57 2.39  41 2.42
 106  0.323  0.555  0.550-  43 2.22  42 2.32  58 2.55  46 2.65
 107  0.566  0.563  0.556-  47 2.25  44 2.35  59 2.45  43 2.47
 108  0.820  0.559  0.568-  41 2.21  60 2.22  48 2.37  44 2.55
 109  0.061  0.812  0.573-  61 2.27  46 2.29  33 2.48  45 2.58
 110  0.312  0.817  0.564-  62 2.24  34 2.26  47 2.29  46 2.32
 111  0.555  0.806  0.570-  63 2.31  35 2.46  47 2.47  48 2.54
 112  0.806  0.816  0.571-  64 2.28  36 2.34  45 2.35  48 2.42
 113  0.063  0.066  0.816-   1 2.34  50 2.37  49 2.53  53 2.56
 114  0.314  0.059  0.809-  50 2.26   2 2.41  51 2.45  54 2.50
 115  0.565  0.063  0.809-  51 2.23   3 2.30  55 2.44  52 2.45
 116  0.814  0.066  0.803-  49 2.23  56 2.34  52 2.42   4 2.58
 117  0.059  0.314  0.815-  57 2.26   5 2.27  53 2.32  54 2.34
 118  0.320  0.310  0.808-  55 2.22  54 2.35  58 2.39   6 2.51
 119  0.556  0.318  0.814-  59 2.30  55 2.31   7 2.33  56 2.45
 120  0.804  0.316  0.820-   8 2.25  56 2.39  60 2.44  53 2.53
 121  0.055  0.571  0.807-  61 2.24  57 2.39   9 2.42  58 2.46
 122  0.316  0.559  0.814-  10 2.27  59 2.32  58 2.39  62 2.46
 123  0.571  0.559  0.805-  60 2.28  59 2.33  63 2.45  11 2.48
 124  0.808  0.569  0.814-  60 2.37  64 2.37  12 2.39  57 2.51
 125  0.068  0.818  0.818-  13 2.27  49 2.30  62 2.41  61 2.59
 126  0.312  0.810  0.812-  14 2.23  62 2.28  63 2.31  50 2.38
 127  0.553  0.817  0.812-  51 2.30  63 2.31  15 2.33  64 2.46
 128  0.818  0.807  0.813-  61 2.27  64 2.31  52 2.34  16 2.35
 
  LATTYP: Found a face centered cubic cell.
 ALAT       =    21.8746673814
  
  Lattice vectors:
  
 A1 = (   0.0000000000,  10.9373336907,  10.9373336907)
 A2 = (  10.9373336907,   0.0000000000,  10.9373336907)
 A3 = (  10.9373336907,  10.9373336907,   0.0000000000)


Analysis of symmetry for initial positions (statically):
=====================================================================
 Subroutine PRICEL returns:
 Original cell was already a primitive cell.
 

 Routine SETGRP: Setting up the symmetry group for a 
 face centered cubic supercell.


 Subroutine GETGRP returns: Found  1 space group operations
 (whereof  1 operations were pure point group operations)
 out of a pool of 48 trial point group operations.


The static configuration has the point symmetry C_1 .


Analysis of symmetry for dynamics (positions and initial velocities):
=====================================================================
 Subroutine PRICEL returns:
 Original cell was already a primitive cell.
 

 Routine SETGRP: Setting up the symmetry group for a 
 face centered cubic supercell.


 Subroutine GETGRP returns: Found  1 space group operations
 (whereof  1 operations were pure point group operations)
 out of a pool of 48 trial point group operations.


The dynamic configuration has the point symmetry C_1 .


 Subroutine INISYM returns: Found  1 space group operations
 (whereof  1 operations are pure point group operations),
 and found     1 'primitive' translations

 
 
 KPOINTS: KPOINTS File, automatically generated by

Automatic generation of k-mesh.
Space group operators:
 irot       det(A)        alpha          n_x          n_y          n_z        tau_x        tau_y        tau_z
    1     1.000000     0.000001     1.000000     0.000000     0.000000     0.000000     0.000000     0.000000
 
 Subroutine IBZKPT returns following result:
 ===========================================
 
 Found      8 irreducible k-points:
 
 Following reciprocal coordinates:
            Coordinates               Weight
  0.000000  0.000000  0.000000      1.000000
  0.500000  0.000000  0.000000      1.000000
  0.000000  0.500000  0.000000      1.000000
  0.500000  0.500000  0.000000      1.000000
  0.000000  0.000000  0.500000      1.000000
  0.500000  0.000000  0.500000      1.000000
  0.000000  0.500000  0.500000      1.000000
  0.500000  0.500000  0.500000      1.000000
 
 Following cartesian coordinates:
            Coordinates               Weight
  0.000000  0.000000  0.000000      1.000000
 -0.022857  0.022857  0.022857      1.000000
  0.022857 -0.022857  0.022857      1.000000
  0.000000  0.000000  0.045715      1.000000
  0.022857  0.022857 -0.022857      1.000000
  0.000000  0.045715  0.000000      1.000000
  0.045715  0.000000  0.000000      1.000000
  0.022857  0.022857  0.022857      1.000000
 


--------------------------------------------------------------------------------------------------------




 Dimension of arrays:
   k-points           NKPTS =      8   k-points in BZ     NKDIM =      8   number of bands    NBANDS=    322
   number of dos      NEDOS =    301   number of ions     NIONS =    128
   non local maximal  LDIM  =      4   non local SUM 2l+1 LMDIM =      8
   total plane-waves  NPLWV = ******
   max r-space proj   IRMAX =      1   max aug-charges    IRDMAX= 176811
   dimension x,y,z NGX =   120 NGY =  120 NGZ =  120
   dimension x,y,z NGXF=   240 NGYF=  240 NGZF=  240
   support grid    NGXF=   480 NGYF=  480 NGZF=  480
   ions per type =             128
   NGX,Y,Z   is equivalent  to a cutoff of  12.90, 12.90, 12.90 a.u.
   NGXF,Y,Z  is equivalent  to a cutoff of  25.80, 25.80, 25.80 a.u.

 SYSTEM =  potpaw_PBE@./ARUN.APL1ZEROSTATE         
 POSCAR =  kk                                      

 Startparameter for this run:
   NWRITE =      2    write-flag & timer
   PREC   = accura    normal or accurate (medium, high low for compatibility)
   ISTART =      0    job   : 0-new  1-cont  2-samecut
   ICHARG =      2    charge: 1-file 2-atom 10-const
   ISPIN  =      1    spin polarized calculation?
   LNONCOLLINEAR =      F non collinear calculations
   LSORBIT =      F    spin-orbit coupling
   INIWAV =      1    electr: 0-lowe 1-rand  2-diag
   LASPH  =      F    aspherical Exc in radial PAW
   METAGGA=      F    non-selfconsistent MetaGGA calc.

 Electronic Relaxation 1
   ENCUT  =  500.0 eV  36.75 Ry    6.06 a.u.  28.20 28.20 28.20*2*pi/ulx,y,z
   ENINI  =  500.0     initial cutoff
   ENAUG  =  322.1 eV  augmentation charge cutoff
   NELM   =    120;   NELMIN=  4; NELMDL= -5     # of ELM steps 
   EDIFF  = 0.1E-07   stopping-criterion for ELM
   LREAL  =      F    real-space projection
   NLSPLINE    = F    spline interpolate recip. space projectors
   LCOMPAT=      F    compatible to vasp.4.4
   GGA_COMPAT  = T    GGA compatible to vasp.4.4-vasp.4.6
   LMAXPAW     = -100 max onsite density
   LMAXMIX     =    2 max onsite mixed and CHGCAR
   VOSKOWN=      0    Vosko Wilk Nusair interpolation
   ROPT   =    0.00000
 Ionic relaxation
   EDIFFG = 0.1E-06   stopping-criterion for IOM
   NSW    =      0    number of steps for IOM
   NBLOCK =      1;   KBLOCK =      1    inner block; outer block 
   IBRION =     -1    ionic relax: 0-MD 1-quasi-New 2-CG
   NFREE  =      0    steps in history (QN), initial steepest desc. (CG)
   ISIF   =      2    stress and relaxation
   IWAVPR =     10    prediction:  0-non 1-charg 2-wave 3-comb
   ISYM   =      2    0-nonsym 1-usesym 2-fastsym
   LCORR  =      T    Harris-Foulkes like correction to forces

   POTIM  = 0.5000    time-step for ionic-motion
   TEIN   =    0.0    initial temperature
   TEBEG  =    0.0;   TEEND  =   0.0 temperature during run
   SMASS  =  -3.00    Nose mass-parameter (am)
   estimated Nose-frequenzy (Omega)   =  0.10E-29 period in steps =****** mass=  -0.547E-26a.u.
   SCALEE = 1.0000    scale energy and forces
   NPACO  =    256;   APACO  = 16.0  distance and # of slots for P.C.
   PSTRESS=    0.0 pullay stress

  Mass of Ions in am
   POMASS =  28.09
  Ionic Valenz
   ZVAL   =   4.00
  Atomic Wigner-Seitz radii
   RWIGS  =  -1.00
  virtual crystal weights 
   VCA    =   1.00
   NELECT =     512.0000    total number of electrons
   NUPDOWN=      -1.0000    fix difference up-down

 DOS related values:
   EMIN   =  10.00;   EMAX   =-10.00  energy-range for DOS
   EFERMI =   0.00
   ISMEAR =     0;   SIGMA  =   0.01  broadening in eV -4-tet -1-fermi 0-gaus

 Electronic relaxation 2 (details)
   IALGO  =     38    algorithm
   LDIAG  =      T    sub-space diagonalisation (order eigenvalues)
   LSUBROT=      F    optimize rotation matrix (better conditioning)
   TURBO    =      0    0=normal 1=particle mesh
   IRESTART =      0    0=no restart 2=restart with 2 vectors
   NREBOOT  =      0    no. of reboots
   NMIN     =      0    reboot dimension
   EREF     =   0.00    reference energy to select bands
   IMIX   =      4    mixing-type and parameters
     AMIX     =   0.40;   BMIX     =  1.00
     AMIX_MAG =   1.60;   BMIX_MAG =  1.00
     AMIN     =   0.10
     WC   =   100.;   INIMIX=   1;  MIXPRE=   1;  MAXMIX= -45

 Intra band minimization:
   WEIMIN = 0.0000     energy-eigenvalue tresh-hold
   EBREAK =  0.78E-11  absolut break condition
   DEPER  =   0.30     relativ break condition  

   TIME   =   0.40     timestep for ELM

  volume/ion in A,a.u.               =      20.44       137.96
  Fermi-wavevector in a.u.,A,eV,Ry     =   0.950408  1.796010 12.289804  0.903275
  Thomas-Fermi vector in A             =   2.078782
 
 Write flags
   LWAVE        =      F    write WAVECAR
   LDOWNSAMPLE  =      F    k-point downsampling of WAVECAR
   LCHARG       =      F    write CHGCAR
   LVTOT        =      F    write LOCPOT, total local potential
   LVHAR        =      F    write LOCPOT, Hartree potential only
   LELF         =      F    write electronic localiz. function (ELF)
   LORBIT       =      0    0 simple, 1 ext, 2 COOP (PROOUT), +10 PAW based schemes


 Dipole corrections
   LMONO  =      F    monopole corrections only (constant potential shift)
   LDIPOL =      F    correct potential (dipole corrections)
   IDIPOL =      0    1-x, 2-y, 3-z, 4-all directions 
   EPSILON=  1.0000000 bulk dielectric constant

 Exchange correlation treatment:
   GGA     =    --    GGA type
   LEXCH   =     8    internal setting for exchange type
   VOSKOWN=      0    Vosko Wilk Nusair interpolation
   LHFCALC =     F    Hartree Fock is set to
   LHFONE  =     F    Hartree Fock one center treatment
   AEXX    =    0.0000 exact exchange contribution

 Linear response parameters
   LEPSILON=     F    determine dielectric tensor
   LRPA    =     F    only Hartree local field effects (RPA)
   LNABLA  =     F    use nabla operator in PAW spheres
   LVEL    =     F    velocity operator in full k-point grid
   LINTERFAST=   F  fast interpolation
   KINTER  =     0    interpolate to denser k-point grid
   CSHIFT  =0.1000    complex shift for real part using Kramers Kronig
   OMEGAMAX=  -1.0    maximum frequency
   DEG_THRESHOLD= 0.2000000E-02 threshold for treating states as degnerate
   RTIME   =   -0.100 relaxation time in fs
  (WPLASMAI=    0.000 imaginary part of plasma frequency in eV, 0.658/RTIME)
   DFIELD  = 0.0000000 0.0000000 0.0000000 field for delta impulse in time
 
 Orbital magnetization related:
   ORBITALMAG=     F  switch on orbital magnetization
   LCHIMAG   =     F  perturbation theory with respect to B field
   DQ        =  0.001000  dq finite difference perturbation B field
   LLRAUG    =     F  two centre corrections for induced B field



--------------------------------------------------------------------------------------------------------


 Static calculation
 charge density and potential will be updated during run
 non-spin polarized calculation
 Variant of blocked Davidson
 Davidson routine will perform the subspace rotation
 perform sub-space diagonalisation
    after iterative eigenvector-optimisation
 modified Broyden-mixing scheme, WC =      100.0
 initial mixing is a Kerker type mixing with AMIX =  0.4000 and BMIX =      1.0000
 Hartree-type preconditioning will be used
 using additional bands           66
 reciprocal scheme for non local part
 use partial core corrections
 calculate Harris-corrections to forces 
   (improved forces if not selfconsistent)
 use gradient corrections 
 use of overlap-Matrix (Vanderbilt PP)
 Gauss-broadening in eV      SIGMA  =   0.01


--------------------------------------------------------------------------------------------------------


  energy-cutoff  :      500.00
  volume of cell :     2616.76
      direct lattice vectors                 reciprocal lattice vectors
     0.000000000 10.937333691 10.937333691    -0.045714981  0.045714981  0.045714981
    10.937333691  0.000000000 10.937333691     0.045714981 -0.045714981  0.045714981
    10.937333691 10.937333691  0.000000000     0.045714981  0.045714981 -0.045714981

  length of vectors
    15.467725642 15.467725642 15.467725642     0.079180669  0.079180669  0.079180669


 
 k-points in units of 2pi/SCALE and weight: KPOINTS File, automatically generated by
   0.00000000  0.00000000  0.00000000       0.125
  -0.02285749  0.02285749  0.02285749       0.125
   0.02285749 -0.02285749  0.02285749       0.125
   0.00000000  0.00000000  0.04571498       0.125
   0.02285749  0.02285749 -0.02285749       0.125
   0.00000000  0.04571498  0.00000000       0.125
   0.04571498  0.00000000  0.00000000       0.125
   0.02285749  0.02285749  0.02285749       0.125
 
 k-points in reciprocal lattice and weights: KPOINTS File, automatically generated by
   0.00000000  0.00000000  0.00000000       0.125
   0.50000000  0.00000000  0.00000000       0.125
   0.00000000  0.50000000  0.00000000       0.125
   0.50000000  0.50000000  0.00000000       0.125
   0.00000000  0.00000000  0.50000000       0.125
   0.50000000  0.00000000  0.50000000       0.125
   0.00000000  0.50000000  0.50000000       0.125
   0.50000000  0.50000000  0.50000000       0.125
 
 position of ions in fractional coordinates (direct lattice) 
   0.00430276  0.01178188  0.00135022
   0.26427266  0.99466713  0.99868802
   0.50649842  0.00522996  0.99104188
   0.75011214  0.99665166  0.00721496
   0.00851729  0.24971568  0.99472115
   0.24551885  0.24393214  0.00622746
   0.50430879  0.25929774  0.99765979
   0.75348867  0.24453310  0.99756658
   0.00170628  0.49888992  0.99840921
   0.25528521  0.50807470  0.99352887
   0.49466640  0.51082024  0.00035380
   0.75048402  0.49860020  0.00300778
   0.99761899  0.76072986  0.99743559
   0.24658901  0.76785040  0.98740061
   0.50434945  0.74891854  0.99665515
   0.74994320  0.74824096  0.99904844
   0.00580701  0.99817191  0.25165652
   0.24167069  0.01085990  0.23917058
   0.50213786  0.00387577  0.24501370
   0.74741167  0.00224932  0.25056756
   0.00680783  0.24573704  0.24941572
   0.25695788  0.25169735  0.24809330
   0.49870135  0.24927753  0.25697255
   0.74898622  0.24741163  0.24995354
   0.98693659  0.49405792  0.26361152
   0.24303895  0.48761435  0.25035863
   0.50204493  0.49587339  0.24468473
   0.73920630  0.49646239  0.24516395
   0.99427651  0.74394113  0.25490912
   0.25586602  0.75299245  0.24990643
   0.49561143  0.75042228  0.24902734
   0.75287263  0.74945803  0.25547524
   0.00458445  0.00859603  0.50639975
   0.25011809  0.99581262  0.50755284
   0.50733513  0.00003855  0.49934586
   0.75135334  0.00038336  0.49632625
   0.00256115  0.24871807  0.49716803
   0.23985975  0.24873940  0.50441363
   0.49989278  0.26201624  0.48758965
   0.74249841  0.25476783  0.48302655
   0.99524522  0.49738912  0.51254897
   0.24385615  0.49995776  0.50135492
   0.49870647  0.49928503  0.49116389
   0.75224001  0.49715039  0.49637983
   0.99136546  0.75348739  0.49818529
   0.24213036  0.76297616  0.50404194
   0.49188949  0.74107970  0.50301137
   0.75580306  0.74635374  0.49923665
   0.99010463  0.99875900  0.75606928
   0.25063381  0.99804769  0.75395031
   0.50714197  0.99819937  0.75494869
   0.75870926  0.99162043  0.74088422
   0.00299560  0.26836901  0.73481410
   0.24395929  0.25657095  0.75145112
   0.49515387  0.25518023  0.75468780
   0.75040718  0.25061890  0.74982934
   0.00608778  0.49242900  0.74568756
   0.24914306  0.49961775  0.75067535
   0.49984969  0.50031759  0.74937502
   0.75054677  0.50851516  0.74340750
   0.99783772  0.74748041  0.75302043
   0.25773721  0.75333572  0.74134079
   0.49398013  0.75239410  0.75336849
   0.74759991  0.75680431  0.75089086
   0.06420206  0.06460146  0.07081452
   0.30709191  0.06784785  0.05935807
   0.56166623  0.05149685  0.06854860
   0.81694476  0.06258337  0.06127168
   0.05943664  0.31734367  0.06133293
   0.31511931  0.30660289  0.06048248
   0.56232428  0.30792799  0.05931527
   0.82050151  0.29915884  0.05908052
   0.05077137  0.57779037  0.05029034
   0.31400848  0.55709535  0.06648247
   0.56231776  0.56970316  0.05496964
   0.82624661  0.56074798  0.05379906
   0.07358565  0.82210522  0.05811131
   0.29108333  0.82317836  0.06212082
   0.56390509  0.81116991  0.06479914
   0.81585177  0.81219223  0.05566985
   0.06735053  0.06712644  0.31184087
   0.31932135  0.06115361  0.29850653
   0.54757836  0.05168450  0.32749746
   0.81229224  0.06659893  0.30668528
   0.06639876  0.31670752  0.30605725
   0.32233503  0.30390226  0.32954624
   0.55480093  0.31268567  0.31277792
   0.80205694  0.31866265  0.31069593
   0.06231784  0.54603740  0.31965882
   0.31137249  0.55743719  0.31137827
   0.56047056  0.54747791  0.31258593
   0.80031009  0.57248572  0.31231741
   0.04956053  0.80092263  0.32340248
   0.30598980  0.82897513  0.30662622
   0.56223743  0.81030856  0.31399877
   0.80442805  0.80727863  0.32358182
   0.05907049  0.07038897  0.56379653
   0.32148942  0.05817080  0.55921964
   0.55532336  0.07077970  0.55955533
   0.81050914  0.06065351  0.55896238
   0.05636471  0.32644523  0.56505610
   0.31524314  0.30924493  0.56967215
   0.56233351  0.30107849  0.56834436
   0.80978302  0.31449637  0.57242706
   0.06280938  0.57505815  0.55752677
   0.32328014  0.55501250  0.54950851
   0.56602393  0.56347567  0.55554538
   0.82017997  0.55910360  0.56793595
   0.06114741  0.81236337  0.57322519
   0.31187710  0.81654520  0.56407277
   0.55506476  0.80579360  0.57041444
   0.80579354  0.81581369  0.57074897
   0.06275123  0.06643642  0.81622150
   0.31417302  0.05866205  0.80870750
   0.56530372  0.06258681  0.80865151
   0.81390242  0.06559035  0.80302000
   0.05910014  0.31420819  0.81535702
   0.31969709  0.31034864  0.80763985
   0.55627813  0.31789832  0.81358470
   0.80411723  0.31550431  0.82010045
   0.05484734  0.57056682  0.80745031
   0.31628378  0.55863401  0.81375495
   0.57058069  0.55864061  0.80484190
   0.80781133  0.56878287  0.81363265
   0.06760095  0.81816545  0.81781070
   0.31155469  0.80952477  0.81168924
   0.55295577  0.81717935  0.81247396
   0.81799095  0.80692021  0.81319645
 
 position of ions in cartesian coordinates  (Angst):
   0.14363015  0.06182847  0.17592303
  21.80199046 13.81342241 13.76944467
  10.89655763 16.37909797  5.59694407
  10.97962418  8.28313921 19.10493863
  13.61082081 10.97275357  2.82438014
   2.73607906  2.75343336  5.35328877
  13.74776391 16.42753148  8.35181943
  13.58525864 19.15187557 10.91569707
  16.37646027 10.93859689  5.47518776
  16.42353933 13.65869630  8.34912208
   5.59088109  5.41420108 10.99734291
   5.48625376  8.24119117 13.66165086
  19.22964220 21.82057766 19.23164803
  19.19776608 13.49655631 11.09526237
  19.09192189 16.41698820 13.70741021
  19.11068714 19.12930512 16.38614004
  13.66979069  2.81596459 10.98085252
   2.73466679  5.25912148  2.76201130
   2.72218715  8.17184594  5.53443989
   2.76514257 10.91523187  8.19929241
   5.41565104  2.80240245  2.76216750
   5.46637713  5.52391330  5.56333198
   5.53702608  8.26505757  8.18089464
   5.43984879 10.92573742 10.89793576
   8.28688349 13.67766195 16.19813114
   8.07145677  5.39645398  7.99139894
   8.09973125  8.16723140 10.91456564
   8.11141479 10.76638588 13.51492075
  10.92475847 13.66276013 19.01146632
  10.96903964  5.53180198 11.03422167
  10.93131395  8.14436263 13.62828640
  10.99129057 11.02863712 16.43149176
   5.63268072  5.58880467  0.14415931
  16.44280965  8.28689978 13.62715992
   5.46193391 11.01040582  5.54931520
   5.43267867 13.64628800  8.22199511
   8.15800520  5.46570487  2.74832472
   8.23748600  8.14036626  5.34397197
   8.19868977 10.80042485  8.33325316
   8.06950330 13.40397543 10.90743367
  11.04602996 16.49124821 16.32543990
  10.95169087  8.15062214  8.13534100
  10.83287037 10.82654244 10.91536610
  10.86657154 13.65657189 13.66499968
  13.68996179 16.29171356 19.08403783
  13.85779976  8.16113547 10.99318537
  13.60703919 10.88156275 13.48539551
  13.62343776 13.72678818 16.42959023
  19.19314247 19.09848668 21.75286517
  19.16218669 10.98747175 13.65724624
  19.17476536 13.80390676 16.46442055
  18.94898139 16.40155420 19.14393981
  10.97214842  8.06967086  2.96800530
  11.02507373 10.88713573  5.47446623
  11.04526356 13.66993537  8.20665436
  10.94223618 16.40858739 10.94855626
  13.54169397  8.22241781  5.45244434
  13.67487284 10.93534757  8.18944693
  13.66830516 13.66318760 10.93916337
  13.69269580 16.33987629 13.77078037
  16.41147834 19.14971980 19.08912676
  16.34777583 10.92724954 11.05844207
  16.46902793 13.64266806 13.63201085
  16.49016521 16.38949362 16.45417101
   1.48108972  1.47672142  1.40876705
   1.39129355  4.00798565  4.10084118
   1.31297721  6.89286994  6.70636926
   1.35464403  9.60534628  9.61969265
   4.14171234  1.32089712  4.12097192
   4.01493513  4.10808212  6.79998319
   4.01666205  6.79907918  9.51823953
   3.91818341  9.62028212 12.24609882
   6.86952830  1.10534565  6.87478952
   6.82027871  4.16155646  9.52755323
   6.83225485  6.75147834 12.38129051
   6.72150597  9.62535305 15.17002258
   9.62722193  1.44041356  9.79646990
   9.68281256  3.86311170 12.18705196
   9.58076581  6.87634798 15.03965411
   9.49209719  9.53212281 17.80646051
   4.14489193  4.14734289  1.47081954
   3.93372299  6.75738973  4.16138168
   4.14723964  9.57099628  6.55433791
   4.08273398 12.23863051  9.61272606
   6.81138606  4.07367566  4.19016116
   6.92823755  7.12984289  6.84936613
   6.84090401  9.48899939  9.48799034
   6.88350473 12.17054946 12.25768414
   9.46840840  4.17780625  6.65378426
   9.50252455  6.81123288  9.50246141
   9.40680520  9.54891018 12.11800208
   9.67738704 12.16917821 15.01472581
  12.29711891  4.07922094  9.30201816
  12.42045091  6.70038581 12.41349009
  12.29692442  9.58368772 15.01199353
  12.36859818 12.33742042 17.62777387
   6.93629848  6.81250448  1.41594135
   6.75260525  9.63260889  4.15247048
   6.89418457 12.19380020  6.84789807
   6.77694577 14.97836696  9.52819661
   9.75064755  6.79668672  4.18692005
   9.61300939  9.67861389  6.83023443
   9.50916786 12.36660121  9.44342517
   9.70057749 15.11769282 12.29661884
  12.38745916  6.78482341  6.97656993
  12.08051487  9.54598074  9.60617968
  12.23910665 12.26697781 12.35371413
  12.32680757 15.18228697 15.08568458
  15.15464441  6.93834484  9.55387889
  15.10027940  9.58055596 12.34193124
  15.05204656 12.30974156 14.88416199
  15.16529851 15.05570470 17.73605938
   9.65392421  9.61361803  1.41296840
   9.48671012 12.28131885  4.07782150
   9.52902420 15.02740673  6.86744821
   9.50028127 17.68482010  9.61930587
  12.35443169  9.56422982  4.08299781
  12.22781313 12.33006024  6.89102032
  12.37540734 14.98264688  9.56115962
  12.42048817 17.76461071 12.24567437
  15.07183313  9.43123709  6.84036330
  15.01027608 12.35961075  9.56926792
  14.91286313 15.04345580 12.35067012
  15.11993988 17.73427390 15.05627020
  17.89321699  9.68404262  9.68792264
  17.73175862 12.28529365 12.26162019
  17.82406206 14.93416061 14.98562501
  17.71975648 17.84084083 17.77219555
 


--------------------------------------------------------------------------------------------------------


 k-point  1 :   0.0000 0.0000 0.0000  plane waves:   66299
 k-point  2 :   0.5000 0.0000 0.0000  plane waves:   66394
 k-point  3 :   0.0000 0.5000 0.0000  plane waves:   66394
 k-point  4 :   0.5000 0.5000 0.0000  plane waves:   66552
 k-point  5 :   0.0000 0.0000 0.5000  plane waves:   66394
 k-point  6 :   0.5000 0.0000 0.5000  plane waves:   66552
 k-point  7 :   0.0000 0.5000 0.5000  plane waves:   66552
 k-point  8 :   0.5000 0.5000 0.5000  plane waves:   66394

 maximum and minimum number of plane-waves per node :      4207     4110

 maximum number of plane-waves:     66552
 maximum index in each direction: 
   IXMAX=   28   IYMAX=   28   IZMAX=   28
   IXMIN=  -28   IYMIN=  -28   IZMIN=  -28


 parallel 3D FFT for wavefunctions:
    minimum data exchange during FFTs selected (reduces bandwidth)
 parallel 3D FFT for charge:
    minimum data exchange during FFTs selected (reduces bandwidth)


 total amount of memory used by VASP MPI-rank0   221701. kBytes
=======================================================================

   base      :      30000. kBytes
   nonl-proj :      10690. kBytes
   fftplans  :      66746. kBytes
   grid      :      26864. kBytes
   one-center:         24. kBytes
   wavefun   :      87377. kBytes
 
     INWAV:  cpu time    0.0000: real time    0.0003
 Broyden mixing: mesh for mixing (old mesh)
   NGX = 57   NGY = 57   NGZ = 57
  (NGX  =240   NGY  =240   NGZ  =240)
  gives a total of 185193 points

 initial charge density was supplied:
 charge density of overlapping atoms calculated
 number of electron     512.0000000 magnetization 
 keeping initial charge density in first step


--------------------------------------------------------------------------------------------------------


 Maximum index for augmentation-charges         5603 (set IRDMAX)


--------------------------------------------------------------------------------------------------------


 First call to EWALD:  gamma=   0.129
 Maximum number of real-space cells 3x 3x 3
 Maximum number of reciprocal cells 3x 3x 3

    FEWALD:  cpu time    0.0059: real time    0.0059


--------------------------------------- Iteration      1(   1)  ---------------------------------------


    POTLOK:  cpu time    0.4915: real time    0.4971
    SETDIJ:  cpu time    0.5135: real time    0.5136
     EDDAV:  cpu time   70.4148: real time   70.4303
       DOS:  cpu time    0.0030: real time    0.0030
    --------------------------------------------
      LOOP:  cpu time   71.4228: real time   71.4440

 eigenvalue-minimisations  :  5152
 total energy-change (2. order) : 0.1384186E+04  (-0.1908332E+05)
 number of electron     512.0000000 magnetization 
 augmentation part      512.0000000 magnetization 

 Free energy of the ion-electron system (eV)
  ---------------------------------------------------
  alpha Z        PSCENC =       210.77028614
  Ewald energy   TEWEN  =    -14468.82181098
  -Hartree energ DENC   =      -756.55852144
  -exchange      EXHF   =         0.00000000
  -V(xc)+E(xc)   XCENC  =     -1195.23995433
  PAW double counting   =      4221.13331941    -1969.18571412
  entropy T*S    EENTRO =        -0.00199840
  eigenvalues    EBANDS =      2149.60942354
  atomic energy  EATOM  =     13192.48085998
  Solvation  Ediel_sol  =         0.00000000
  ---------------------------------------------------
  free energy    TOTEN  =      1384.18588982 eV

  energy without entropy =     1384.18788821  energy(sigma->0) =     1384.18688901


--------------------------------------------------------------------------------------------------------




--------------------------------------- Iteration      1(   2)  ---------------------------------------


     EDDAV:  cpu time   80.2017: real time   80.2131
       DOS:  cpu time    0.0011: real time    0.0011
    --------------------------------------------
      LOOP:  cpu time   80.2028: real time   80.2142

 eigenvalue-minimisations  :  6120
 total energy-change (2. order) :-0.1921252E+04  (-0.1827470E+04)
 number of electron     512.0000000 magnetization 
 augmentation part      512.0000000 magnetization 

 Free energy of the ion-electron system (eV)
  ---------------------------------------------------
  alpha Z        PSCENC =       210.77028614
  Ewald energy   TEWEN  =    -14468.82181098
  -Hartree energ DENC   =      -756.55852144
  -exchange      EXHF   =         0.00000000
  -V(xc)+E(xc)   XCENC  =     -1195.23995433
  PAW double counting   =      4221.13331941    -1969.18571412
  entropy T*S    EENTRO =        -0.00000000
  eigenvalues    EBANDS =       228.35502455
  atomic energy  EATOM  =     13192.48085998
  Solvation  Ediel_sol  =         0.00000000
  ---------------------------------------------------
  free energy    TOTEN  =      -537.06651078 eV

  energy without entropy =     -537.06651078  energy(sigma->0) =     -537.06651078


--------------------------------------------------------------------------------------------------------




--------------------------------------- Iteration      1(   3)  ---------------------------------------


     EDDAV:  cpu time   81.9449: real time   81.9574
       DOS:  cpu time    0.0016: real time    0.0016
    --------------------------------------------
      LOOP:  cpu time   81.9465: real time   81.9590

 eigenvalue-minimisations  :  6288
 total energy-change (2. order) :-0.1493802E+03  (-0.1463491E+03)
 number of electron     512.0000000 magnetization 
 augmentation part      512.0000000 magnetization 

 Free energy of the ion-electron system (eV)
  ---------------------------------------------------
  alpha Z        PSCENC =       210.77028614
  Ewald energy   TEWEN  =    -14468.82181098
  -Hartree energ DENC   =      -756.55852144
  -exchange      EXHF   =         0.00000000
  -V(xc)+E(xc)   XCENC  =     -1195.23995433
  PAW double counting   =      4221.13331941    -1969.18571412
  entropy T*S    EENTRO =        -0.00000000
  eigenvalues    EBANDS =        78.97485140
  atomic energy  EATOM  =     13192.48085998
  Solvation  Ediel_sol  =         0.00000000
  ---------------------------------------------------
  free energy    TOTEN  =      -686.44668393 eV

  energy without entropy =     -686.44668393  energy(sigma->0) =     -686.44668393


--------------------------------------------------------------------------------------------------------




--------------------------------------- Iteration      1(   4)  ---------------------------------------


     EDDAV:  cpu time   80.9415: real time   80.9539
       DOS:  cpu time    0.0011: real time    0.0011
    --------------------------------------------
      LOOP:  cpu time   80.9426: real time   80.9550

 eigenvalue-minimisations  :  6184
 total energy-change (2. order) :-0.4204374E+01  (-0.4169726E+01)
 number of electron     512.0000000 magnetization 
 augmentation part      512.0000000 magnetization 

 Free energy of the ion-electron system (eV)
  ---------------------------------------------------
  alpha Z        PSCENC =       210.77028614
  Ewald energy   TEWEN  =    -14468.82181098
  -Hartree energ DENC   =      -756.55852144
  -exchange      EXHF   =         0.00000000
  -V(xc)+E(xc)   XCENC  =     -1195.23995433
  PAW double counting   =      4221.13331941    -1969.18571412
  entropy T*S    EENTRO =        -0.00000000
  eigenvalues    EBANDS =        74.77047778
  atomic energy  EATOM  =     13192.48085998
  Solvation  Ediel_sol  =         0.00000000
  ---------------------------------------------------
  free energy    TOTEN  =      -690.65105756 eV

  energy without entropy =     -690.65105756  energy(sigma->0) =     -690.65105756


--------------------------------------------------------------------------------------------------------




--------------------------------------- Iteration      1(   5)  ---------------------------------------


     EDDAV:  cpu time   82.5546: real time   82.5721
       DOS:  cpu time    0.0012: real time    0.0012
    CHARGE:  cpu time    3.2132: real time    3.2134
    MIXING:  cpu time    0.0342: real time    0.0342
    --------------------------------------------
      LOOP:  cpu time   85.8033: real time   85.8210

 eigenvalue-minimisations  :  6328
 total energy-change (2. order) :-0.1465638E+00  (-0.1461812E+00)
 number of electron     511.9999998 magnetization 
 augmentation part      -30.1853664 magnetization 

 Broyden mixing:
  rms(total) = 0.24006E+01    rms(broyden)= 0.24006E+01
  rms(prec ) = 0.29082E+01
  weight for this iteration     100.00

 Free energy of the ion-electron system (eV)
  ---------------------------------------------------
  alpha Z        PSCENC =       210.77028614
  Ewald energy   TEWEN  =    -14468.82181098
  -Hartree energ DENC   =      -756.55852144
  -exchange      EXHF   =         0.00000000
  -V(xc)+E(xc)   XCENC  =     -1195.23995433
  PAW double counting   =      4221.13331941    -1969.18571412
  entropy T*S    EENTRO =        -0.00000000
  eigenvalues    EBANDS =        74.62391399
  atomic energy  EATOM  =     13192.48085998
  Solvation  Ediel_sol  =         0.00000000
  ---------------------------------------------------
  free energy    TOTEN  =      -690.79762134 eV

  energy without entropy =     -690.79762134  energy(sigma->0) =     -690.79762134


--------------------------------------------------------------------------------------------------------




--------------------------------------- Iteration      1(   6)  ---------------------------------------


    POTLOK:  cpu time    0.4902: real time    0.4912
    SETDIJ:  cpu time    0.5096: real time    0.5096
     EDDAV:  cpu time   77.8804: real time   77.8893
       DOS:  cpu time    0.0011: real time    0.0011
    CHARGE:  cpu time    3.2213: real time    3.2217
    MIXING:  cpu time    0.0293: real time    0.0353
    --------------------------------------------
      LOOP:  cpu time   82.1319: real time   82.1483

 eigenvalue-minimisations  :  5896
 total energy-change (2. order) : 0.8474251E+01  (-0.5865552E+00)
 number of electron     511.9999998 magnetization 
 augmentation part      -29.8426709 magnetization 

 Broyden mixing:
  rms(total) = 0.14261E+01    rms(broyden)= 0.14261E+01
  rms(prec ) = 0.17181E+01
  weight for this iteration     100.00

 eigenvalues of (default mixing * dielectric matrix)
  average eigenvalue GAMMA=   2.4299
  2.4299

 Free energy of the ion-electron system (eV)
  ---------------------------------------------------
  alpha Z        PSCENC =       210.77028614
  Ewald energy   TEWEN  =    -14468.82181098
  -Hartree energ DENC   =      -852.11933168
  -exchange      EXHF   =         0.00000000
  -V(xc)+E(xc)   XCENC  =     -1180.56282519
  PAW double counting   =      4466.98063068    -2221.83950564
  entropy T*S    EENTRO =        -0.00000000
  eigenvalues    EBANDS =       170.78832597
  atomic energy  EATOM  =     13192.48085998
  Solvation  Ediel_sol  =         0.00000000
  ---------------------------------------------------
  free energy    TOTEN  =      -682.32337072 eV

  energy without entropy =     -682.32337072  energy(sigma->0) =     -682.32337072


--------------------------------------------------------------------------------------------------------




--------------------------------------- Iteration      1(   7)  ---------------------------------------


    POTLOK:  cpu time    0.4888: real time    0.4921
    SETDIJ:  cpu time    0.5076: real time    0.5077
     EDDAV:  cpu time   76.7305: real time   76.7460
       DOS:  cpu time    0.0018: real time    0.0018
    CHARGE:  cpu time    3.2043: real time    3.2046
    MIXING:  cpu time    0.0332: real time    0.0332
    --------------------------------------------
      LOOP:  cpu time   80.9663: real time   80.9853

 eigenvalue-minimisations  :  5776
 total energy-change (2. order) : 0.3540279E+01  (-0.1124736E+01)
 number of electron     511.9999998 magnetization 
 augmentation part      -29.3907838 magnetization 

 Broyden mixing:
  rms(total) = 0.15585E+00    rms(broyden)= 0.15585E+00
  rms(prec ) = 0.20195E+00
  weight for this iteration     100.00

 eigenvalues of (default mixing * dielectric matrix)
  average eigenvalue GAMMA=   2.0987
  2.0987  2.0987

 Free energy of the ion-electron system (eV)
  ---------------------------------------------------
  alpha Z        PSCENC =       210.77028614
  Ewald energy   TEWEN  =    -14468.82181098
  -Hartree energ DENC   =     -1002.91068148
  -exchange      EXHF   =         0.00000000
  -V(xc)+E(xc)   XCENC  =     -1156.61322338
  PAW double counting   =      4788.25990108    -2551.69158005
  entropy T*S    EENTRO =        -0.00000000
  eigenvalues    EBANDS =       309.74315716
  atomic energy  EATOM  =     13192.48085998
  Solvation  Ediel_sol  =         0.00000000
  ---------------------------------------------------
  free energy    TOTEN  =      -678.78309152 eV

  energy without entropy =     -678.78309152  energy(sigma->0) =     -678.78309152


--------------------------------------------------------------------------------------------------------




--------------------------------------- Iteration      1(   8)  ---------------------------------------


    POTLOK:  cpu time    0.4893: real time    0.4903
    SETDIJ:  cpu time    0.5074: real time    0.5074
     EDDAV:  cpu time   77.6908: real time   77.7057
       DOS:  cpu time    0.0015: real time    0.0015
    CHARGE:  cpu time    3.1984: real time    3.1985
    MIXING:  cpu time    0.0288: real time    0.0288
    --------------------------------------------
      LOOP:  cpu time   81.9162: real time   81.9322

 eigenvalue-minimisations  :  5880
 total energy-change (2. order) :-0.5428750E-01  (-0.1025286E+00)
 number of electron     511.9999998 magnetization 
 augmentation part      -29.4600043 magnetization 

 Broyden mixing:
  rms(total) = 0.61929E-01    rms(broyden)= 0.61929E-01
  rms(prec ) = 0.76601E-01
  weight for this iteration     100.00

 eigenvalues of (default mixing * dielectric matrix)
  average eigenvalue GAMMA=   2.0012
  2.6672  1.6682  1.6682

 Free energy of the ion-electron system (eV)
  ---------------------------------------------------
  alpha Z        PSCENC =       210.77028614
  Ewald energy   TEWEN  =    -14468.82181098
  -Hartree energ DENC   =      -996.66312060
  -exchange      EXHF   =         0.00000000
  -V(xc)+E(xc)   XCENC  =     -1156.69178060
  PAW double counting   =      4741.75086284    -2503.73262733
  entropy T*S    EENTRO =        -0.00000000
  eigenvalues    EBANDS =       302.06995153
  atomic energy  EATOM  =     13192.48085998
  Solvation  Ediel_sol  =         0.00000000
  ---------------------------------------------------
  free energy    TOTEN  =      -678.83737901 eV

  energy without entropy =     -678.83737901  energy(sigma->0) =     -678.83737901


--------------------------------------------------------------------------------------------------------




--------------------------------------- Iteration      1(   9)  ---------------------------------------


    POTLOK:  cpu time    0.4902: real time    0.4908
    SETDIJ:  cpu time    0.5069: real time    0.5069
     EDDAV:  cpu time   79.6743: real time   79.6832
       DOS:  cpu time    0.0011: real time    0.0011
    CHARGE:  cpu time    3.1978: real time    3.1980
    MIXING:  cpu time    0.0392: real time    0.0392
    --------------------------------------------
      LOOP:  cpu time   83.9095: real time   83.9193

 eigenvalue-minimisations  :  6080
 total energy-change (2. order) :-0.2334526E-01  (-0.1045637E-01)
 number of electron     511.9999998 magnetization 
 augmentation part      -29.4657522 magnetization 

 Broyden mixing:
  rms(total) = 0.27745E-01    rms(broyden)= 0.27745E-01
  rms(prec ) = 0.32282E-01
  weight for this iteration     100.00

 eigenvalues of (default mixing * dielectric matrix)
  average eigenvalue GAMMA=   1.7874
  2.5712  0.9255  1.8265  1.8265

 Free energy of the ion-electron system (eV)
  ---------------------------------------------------
  alpha Z        PSCENC =       210.77028614
  Ewald energy   TEWEN  =    -14468.82181098
  -Hartree energ DENC   =     -1003.01547991
  -exchange      EXHF   =         0.00000000
  -V(xc)+E(xc)   XCENC  =     -1155.56229358
  PAW double counting   =      4743.64202549    -2505.67206180
  entropy T*S    EENTRO =        -0.00000000
  eigenvalues    EBANDS =       307.31775039
  atomic energy  EATOM  =     13192.48085998
  Solvation  Ediel_sol  =         0.00000000
  ---------------------------------------------------
  free energy    TOTEN  =      -678.86072427 eV

  energy without entropy =     -678.86072427  energy(sigma->0) =     -678.86072427


--------------------------------------------------------------------------------------------------------




--------------------------------------- Iteration      1(  10)  ---------------------------------------


    POTLOK:  cpu time    0.4879: real time    0.4892
    SETDIJ:  cpu time    0.5082: real time    0.5082
     EDDAV:  cpu time   79.8223: real time   79.8389
       DOS:  cpu time    0.0017: real time    0.0017
    CHARGE:  cpu time    3.1963: real time    3.1965
    MIXING:  cpu time    0.0358: real time    0.0358
    --------------------------------------------
      LOOP:  cpu time   84.0521: real time   84.0703

 eigenvalue-minimisations  :  6096
 total energy-change (2. order) :-0.2521549E-02  (-0.8481533E-03)
 number of electron     511.9999998 magnetization 
 augmentation part      -29.4752194 magnetization 

 Broyden mixing:
  rms(total) = 0.11009E-01    rms(broyden)= 0.11009E-01
  rms(prec ) = 0.13305E-01
  weight for this iteration     100.00

 eigenvalues of (default mixing * dielectric matrix)
  average eigenvalue GAMMA=   1.8550
  2.6801  2.6801  1.5037  1.5037  0.9074

 Free energy of the ion-electron system (eV)
  ---------------------------------------------------
  alpha Z        PSCENC =       210.77028614
  Ewald energy   TEWEN  =    -14468.82181098
  -Hartree energ DENC   =     -1001.92750471
  -exchange      EXHF   =         0.00000000
  -V(xc)+E(xc)   XCENC  =     -1155.72434797
  PAW double counting   =      4736.72611126    -2498.58396182
  entropy T*S    EENTRO =        -0.00000000
  eigenvalues    EBANDS =       306.21712228
  atomic energy  EATOM  =     13192.48085998
  Solvation  Ediel_sol  =         0.00000000
  ---------------------------------------------------
  free energy    TOTEN  =      -678.86324582 eV

  energy without entropy =     -678.86324582  energy(sigma->0) =     -678.86324582


--------------------------------------------------------------------------------------------------------




--------------------------------------- Iteration      1(  11)  ---------------------------------------


    POTLOK:  cpu time    0.4894: real time    0.4911
    SETDIJ:  cpu time    0.5150: real time    0.5150
     EDDAV:  cpu time   76.1915: real time   76.1988
       DOS:  cpu time    0.0012: real time    0.0012
    CHARGE:  cpu time    3.1850: real time    3.1851
    MIXING:  cpu time    0.0294: real time    0.0294
    --------------------------------------------
      LOOP:  cpu time   80.4114: real time   80.4206

 eigenvalue-minimisations  :  5736
 total energy-change (2. order) :-0.1498580E-02  (-0.2304337E-03)
 number of electron     511.9999998 magnetization 
 augmentation part      -29.4775255 magnetization 

 Broyden mixing:
  rms(total) = 0.36986E-02    rms(broyden)= 0.36986E-02
  rms(prec ) = 0.52094E-02
  weight for this iteration     100.00

 eigenvalues of (default mixing * dielectric matrix)
  average eigenvalue GAMMA=   1.7742
  2.8419  2.0642  2.0642  1.4785  1.3213  0.8748

 Free energy of the ion-electron system (eV)
  ---------------------------------------------------
  alpha Z        PSCENC =       210.77028614
  Ewald energy   TEWEN  =    -14468.82181098
  -Hartree energ DENC   =     -1001.92135296
  -exchange      EXHF   =         0.00000000
  -V(xc)+E(xc)   XCENC  =     -1155.72456570
  PAW double counting   =      4732.68646883    -2494.45287875
  entropy T*S    EENTRO =        -0.00000000
  eigenvalues    EBANDS =       306.11824903
  atomic energy  EATOM  =     13192.48085998
  Solvation  Ediel_sol  =         0.00000000
  ---------------------------------------------------
  free energy    TOTEN  =      -678.86474440 eV

  energy without entropy =     -678.86474440  energy(sigma->0) =     -678.86474440


--------------------------------------------------------------------------------------------------------




--------------------------------------- Iteration      1(  12)  ---------------------------------------


    POTLOK:  cpu time    0.4903: real time    0.4919
    SETDIJ:  cpu time    0.5080: real time    0.5081
     EDDAV:  cpu time   80.1823: real time   80.2043
       DOS:  cpu time    0.0011: real time    0.0011
    CHARGE:  cpu time    3.1861: real time    3.1868
    MIXING:  cpu time    0.0320: real time    0.0320
    --------------------------------------------
      LOOP:  cpu time   84.3998: real time   84.4242

 eigenvalue-minimisations  :  6136
 total energy-change (2. order) :-0.6401431E-04  (-0.4057222E-04)
 number of electron     511.9999998 magnetization 
 augmentation part      -29.4756559 magnetization 

 Broyden mixing:
  rms(total) = 0.17594E-02    rms(broyden)= 0.17594E-02
  rms(prec ) = 0.21024E-02
  weight for this iteration     100.00

 eigenvalues of (default mixing * dielectric matrix)
  average eigenvalue GAMMA=   1.8400
  3.1993  2.6945  1.7667  1.7667  0.8947  1.2791  1.2791

 Free energy of the ion-electron system (eV)
  ---------------------------------------------------
  alpha Z        PSCENC =       210.77028614
  Ewald energy   TEWEN  =    -14468.82181098
  -Hartree energ DENC   =     -1002.52471644
  -exchange      EXHF   =         0.00000000
  -V(xc)+E(xc)   XCENC  =     -1155.65698232
  PAW double counting   =      4733.93928196    -2495.74842369
  entropy T*S    EENTRO =        -0.00000000
  eigenvalues    EBANDS =       306.69669694
  atomic energy  EATOM  =     13192.48085998
  Solvation  Ediel_sol  =         0.00000000
  ---------------------------------------------------
  free energy    TOTEN  =      -678.86480842 eV

  energy without entropy =     -678.86480842  energy(sigma->0) =     -678.86480842


--------------------------------------------------------------------------------------------------------




--------------------------------------- Iteration      1(  13)  ---------------------------------------


    POTLOK:  cpu time    0.4904: real time    0.4917
    SETDIJ:  cpu time    0.5075: real time    0.5075
     EDDAV:  cpu time   76.7336: real time   76.7402
       DOS:  cpu time    0.0012: real time    0.0012
    CHARGE:  cpu time    3.1724: real time    3.1726
    MIXING:  cpu time    0.0327: real time    0.0327
    --------------------------------------------
      LOOP:  cpu time   80.9377: real time   80.9459

 eigenvalue-minimisations  :  5792
 total energy-change (2. order) :-0.2927673E-04  (-0.1074496E-04)
 number of electron     511.9999998 magnetization 
 augmentation part      -29.4755624 magnetization 

 Broyden mixing:
  rms(total) = 0.54335E-03    rms(broyden)= 0.54333E-03
  rms(prec ) = 0.69733E-03
  weight for this iteration     100.00

 eigenvalues of (default mixing * dielectric matrix)
  average eigenvalue GAMMA=   1.7734
  3.1544  2.5502  1.9121  1.9121  1.3818  1.3818  0.9474  0.9474

 Free energy of the ion-electron system (eV)
  ---------------------------------------------------
  alpha Z        PSCENC =       210.77028614
  Ewald energy   TEWEN  =    -14468.82181098
  -Hartree energ DENC   =     -1002.53100460
  -exchange      EXHF   =         0.00000000
  -V(xc)+E(xc)   XCENC  =     -1155.66671658
  PAW double counting   =      4733.40993254    -2495.20914831
  entropy T*S    EENTRO =        -0.00000000
  eigenvalues    EBANDS =       306.70276411
  atomic energy  EATOM  =     13192.48085998
  Solvation  Ediel_sol  =         0.00000000
  ---------------------------------------------------
  free energy    TOTEN  =      -678.86483769 eV

  energy without entropy =     -678.86483769  energy(sigma->0) =     -678.86483769


--------------------------------------------------------------------------------------------------------




--------------------------------------- Iteration      1(  14)  ---------------------------------------


    POTLOK:  cpu time    0.4904: real time    0.4918
    SETDIJ:  cpu time    0.5065: real time    0.5065
     EDDAV:  cpu time   80.3256: real time   80.3425
       DOS:  cpu time    0.0011: real time    0.0011
    CHARGE:  cpu time    3.1883: real time    3.1884
    MIXING:  cpu time    0.0396: real time    0.0396
    --------------------------------------------
      LOOP:  cpu time   84.5515: real time   84.5699

 eigenvalue-minimisations  :  6152
 total energy-change (2. order) :-0.3966696E-05  (-0.7901301E-06)
 number of electron     511.9999998 magnetization 
 augmentation part      -29.4754521 magnetization 

 Broyden mixing:
  rms(total) = 0.17267E-03    rms(broyden)= 0.17261E-03
  rms(prec ) = 0.23069E-03
  weight for this iteration     100.00

 eigenvalues of (default mixing * dielectric matrix)
  average eigenvalue GAMMA=   1.7794
  3.2371  2.6272  2.2086  1.6835  1.6835  1.3156  1.3156  1.0163  0.9271

 Free energy of the ion-electron system (eV)
  ---------------------------------------------------
  alpha Z        PSCENC =       210.77028614
  Ewald energy   TEWEN  =    -14468.82181098
  -Hartree energ DENC   =     -1002.57360248
  -exchange      EXHF   =         0.00000000
  -V(xc)+E(xc)   XCENC  =     -1155.66032055
  PAW double counting   =      4733.55706911    -2495.35925277
  entropy T*S    EENTRO =        -0.00000000
  eigenvalues    EBANDS =       306.74192989
  atomic energy  EATOM  =     13192.48085998
  Solvation  Ediel_sol  =         0.00000000
  ---------------------------------------------------
  free energy    TOTEN  =      -678.86484166 eV

  energy without entropy =     -678.86484166  energy(sigma->0) =     -678.86484166


--------------------------------------------------------------------------------------------------------




--------------------------------------- Iteration      1(  15)  ---------------------------------------


    POTLOK:  cpu time    0.4903: real time    0.4918
    SETDIJ:  cpu time    0.5127: real time    0.5128
     EDDAV:  cpu time   80.0477: real time   80.0637
       DOS:  cpu time    0.0011: real time    0.0011
    CHARGE:  cpu time    3.1809: real time    3.1809
    MIXING:  cpu time    0.0271: real time    0.0271
    --------------------------------------------
      LOOP:  cpu time   84.2598: real time   84.2774

 eigenvalue-minimisations  :  6128
 total energy-change (2. order) :-0.3278499E-05  (-0.1426144E-06)
 number of electron     511.9999998 magnetization 
 augmentation part      -29.4753224 magnetization 

 Broyden mixing:
  rms(total) = 0.62104E-04    rms(broyden)= 0.61933E-04
  rms(prec ) = 0.82360E-04
  weight for this iteration     100.00

 eigenvalues of (default mixing * dielectric matrix)
  average eigenvalue GAMMA=   1.7300
  3.2749  2.6232  1.9836  1.7154  1.7154  1.4977  1.4977  1.1335  0.9292  0.9292

 Free energy of the ion-electron system (eV)
  ---------------------------------------------------
  alpha Z        PSCENC =       210.77028614
  Ewald energy   TEWEN  =    -14468.82181098
  -Hartree energ DENC   =     -1002.59638996
  -exchange      EXHF   =         0.00000000
  -V(xc)+E(xc)   XCENC  =     -1155.65909846
  PAW double counting   =      4733.62084478    -2495.42495120
  entropy T*S    EENTRO =        -0.00000000
  eigenvalues    EBANDS =       306.76541476
  atomic energy  EATOM  =     13192.48085998
  Solvation  Ediel_sol  =         0.00000000
  ---------------------------------------------------
  free energy    TOTEN  =      -678.86484494 eV

  energy without entropy =     -678.86484494  energy(sigma->0) =     -678.86484494


--------------------------------------------------------------------------------------------------------




--------------------------------------- Iteration      1(  16)  ---------------------------------------


    POTLOK:  cpu time    0.4926: real time    0.4931
    SETDIJ:  cpu time    0.5059: real time    0.5059
     EDDAV:  cpu time   79.6840: real time   79.7031
       DOS:  cpu time    0.0014: real time    0.0014
    CHARGE:  cpu time    3.1122: real time    3.1123
    MIXING:  cpu time    0.0321: real time    0.0321
    --------------------------------------------
      LOOP:  cpu time   83.8282: real time   83.8479

 eigenvalue-minimisations  :  6064
 total energy-change (2. order) : 0.6310984E-06  (-0.1883914E-07)
 number of electron     511.9999998 magnetization 
 augmentation part      -29.4753370 magnetization 

 Broyden mixing:
  rms(total) = 0.25400E-04    rms(broyden)= 0.24981E-04
  rms(prec ) = 0.31356E-04
  weight for this iteration     100.00

 eigenvalues of (default mixing * dielectric matrix)
  average eigenvalue GAMMA=   1.7156
  3.2799  2.6239  2.0668  2.0668  1.4468  1.4468  1.4775  1.4775  0.9152  1.0350
  1.0350

 Free energy of the ion-electron system (eV)
  ---------------------------------------------------
  alpha Z        PSCENC =       210.77028614
  Ewald energy   TEWEN  =    -14468.82181098
  -Hartree energ DENC   =     -1002.59370719
  -exchange      EXHF   =         0.00000000
  -V(xc)+E(xc)   XCENC  =     -1155.65924364
  PAW double counting   =      4733.61163594    -2495.41524062
  entropy T*S    EENTRO =        -0.00000000
  eigenvalues    EBANDS =       306.76237607
  atomic energy  EATOM  =     13192.48085998
  Solvation  Ediel_sol  =         0.00000000
  ---------------------------------------------------
  free energy    TOTEN  =      -678.86484431 eV

  energy without entropy =     -678.86484431  energy(sigma->0) =     -678.86484431


--------------------------------------------------------------------------------------------------------




--------------------------------------- Iteration      1(  17)  ---------------------------------------


    POTLOK:  cpu time    0.4893: real time    0.4903
    SETDIJ:  cpu time    0.5060: real time    0.5061
     EDDAV:  cpu time   54.6839: real time   54.6896
       DOS:  cpu time    0.0011: real time    0.0011
    CHARGE:  cpu time    3.1000: real time    3.1001
    MIXING:  cpu time    0.0336: real time    0.0336
    --------------------------------------------
      LOOP:  cpu time   58.8139: real time   58.8208

 eigenvalue-minimisations  :  3584
 total energy-change (2. order) :-0.1000335E-06  (-0.2007157E-08)
 number of electron     511.9999998 magnetization 
 augmentation part      -29.4753353 magnetization 

 Broyden mixing:
  rms(total) = 0.11387E-04    rms(broyden)= 0.10420E-04
  rms(prec ) = 0.13272E-04
  weight for this iteration     100.00

 eigenvalues of (default mixing * dielectric matrix)
  average eigenvalue GAMMA=   1.7291
  3.3055  2.6400  2.3698  1.9339  1.9339  1.4636  1.4636  0.9208  1.0063  1.0592
  1.3702  1.2829

 Free energy of the ion-electron system (eV)
  ---------------------------------------------------
  alpha Z        PSCENC =       210.77028614
  Ewald energy   TEWEN  =    -14468.82181098
  -Hartree energ DENC   =     -1002.59411673
  -exchange      EXHF   =         0.00000000
  -V(xc)+E(xc)   XCENC  =     -1155.65914313
  PAW double counting   =      4733.61747633    -2495.42110878
  entropy T*S    EENTRO =        -0.00000000
  eigenvalues    EBANDS =       306.76271275
  atomic energy  EATOM  =     13192.48085998
  Solvation  Ediel_sol  =         0.00000000
  ---------------------------------------------------
  free energy    TOTEN  =      -678.86484441 eV

  energy without entropy =     -678.86484441  energy(sigma->0) =     -678.86484441


--------------------------------------------------------------------------------------------------------




--------------------------------------- Iteration      1(  18)  ---------------------------------------


    POTLOK:  cpu time    0.4884: real time    0.4918
    SETDIJ:  cpu time    0.5081: real time    0.5081
     EDDAV:  cpu time   52.1292: real time   52.1367
       DOS:  cpu time    0.0011: real time    0.0011
    CHARGE:  cpu time    3.1085: real time    3.1087
    MIXING:  cpu time    0.0313: real time    0.0313
    --------------------------------------------
      LOOP:  cpu time   56.2665: real time   56.2776

 eigenvalue-minimisations  :  3328
 total energy-change (2. order) :-0.8003917E-07  (-0.5559543E-09)
 number of electron     511.9999998 magnetization 
 augmentation part      -29.4753316 magnetization 

 Broyden mixing:
  rms(total) = 0.61715E-05    rms(broyden)= 0.41240E-05
  rms(prec ) = 0.57605E-05
  weight for this iteration     100.00
  WARNING: grid for Broyden might be to small

 eigenvalues of (default mixing * dielectric matrix)
  average eigenvalue GAMMA=   1.7278
  3.2691  2.5980  2.5307  2.2472  1.7281  1.7281  1.4384  1.4384  0.9234  0.9786
  1.0437  1.2687  1.2687

 Free energy of the ion-electron system (eV)
  ---------------------------------------------------
  alpha Z        PSCENC =       210.77028614
  Ewald energy   TEWEN  =    -14468.82181098
  -Hartree energ DENC   =     -1002.59485815
  -exchange      EXHF   =         0.00000000
  -V(xc)+E(xc)   XCENC  =     -1155.65906589
  PAW double counting   =      4733.62036957    -2495.42404817
  entropy T*S    EENTRO =        -0.00000000
  eigenvalues    EBANDS =       306.76342300
  atomic energy  EATOM  =     13192.48085998
  Solvation  Ediel_sol  =         0.00000000
  ---------------------------------------------------
  free energy    TOTEN  =      -678.86484449 eV

  energy without entropy =     -678.86484449  energy(sigma->0) =     -678.86484449


--------------------------------------------------------------------------------------------------------




--------------------------------------- Iteration      1(  19)  ---------------------------------------


    POTLOK:  cpu time    0.4892: real time    0.4909
    SETDIJ:  cpu time    0.5076: real time    0.5076
     EDDAV:  cpu time   51.6915: real time   51.7022
       DOS:  cpu time    0.0010: real time    0.0010
    CHARGE:  cpu time    3.1003: real time    3.1037
    MIXING:  cpu time    0.0323: real time    0.0323
    --------------------------------------------
      LOOP:  cpu time   55.8219: real time   55.8377

 eigenvalue-minimisations  :  3288
 total energy-change (2. order) : 0.4984395E-07  (-0.1174970E-09)
 number of electron     511.9999998 magnetization 
 augmentation part      -29.4753336 magnetization 

 Broyden mixing:
  rms(total) = 0.49192E-05    rms(broyden)= 0.17658E-05
  rms(prec ) = 0.23922E-05
  weight for this iteration     100.00
  WARNING: grid for Broyden might be to small

 eigenvalues of (default mixing * dielectric matrix)
  average eigenvalue GAMMA=   1.6892
  3.2999  2.6956  2.3638  2.3638  1.7459  1.7459  1.5482  1.5482  1.2983  1.2983
  1.0023  1.0023  0.9116  0.8250

 Free energy of the ion-electron system (eV)
  ---------------------------------------------------
  alpha Z        PSCENC =       210.77028614
  Ewald energy   TEWEN  =    -14468.82181098
  -Hartree energ DENC   =     -1002.59448390
  -exchange      EXHF   =         0.00000000
  -V(xc)+E(xc)   XCENC  =     -1155.65908823
  PAW double counting   =      4733.61989869    -2495.42353751
  entropy T*S    EENTRO =        -0.00000000
  eigenvalues    EBANDS =       306.76303136
  atomic energy  EATOM  =     13192.48085998
  Solvation  Ediel_sol  =         0.00000000
  ---------------------------------------------------
  free energy    TOTEN  =      -678.86484444 eV

  energy without entropy =     -678.86484444  energy(sigma->0) =     -678.86484444


--------------------------------------------------------------------------------------------------------




--------------------------------------- Iteration      1(  20)  ---------------------------------------


    POTLOK:  cpu time    0.4870: real time    0.4906
    SETDIJ:  cpu time    0.5097: real time    0.5098
     EDDAV:  cpu time   50.5512: real time   50.5591
       DOS:  cpu time    0.0010: real time    0.0010
    --------------------------------------------
      LOOP:  cpu time   51.5488: real time   51.5604

 eigenvalue-minimisations  :  3176
 total energy-change (2. order) : 0.2246452E-08  (-0.3713772E-10)
 number of electron     511.9999998 magnetization 
 augmentation part      -29.4753336 magnetization 

 Free energy of the ion-electron system (eV)
  ---------------------------------------------------
  alpha Z        PSCENC =       210.77028614
  Ewald energy   TEWEN  =    -14468.82181098
  -Hartree energ DENC   =     -1002.59452259
  -exchange      EXHF   =         0.00000000
  -V(xc)+E(xc)   XCENC  =     -1155.65908490
  PAW double counting   =      4733.61984192    -2495.42347946
  entropy T*S    EENTRO =        -0.00000000
  eigenvalues    EBANDS =       306.76306544
  atomic energy  EATOM  =     13192.48085998
  Solvation  Ediel_sol  =         0.00000000
  ---------------------------------------------------
  free energy    TOTEN  =      -678.86484444 eV

  energy without entropy =     -678.86484444  energy(sigma->0) =     -678.86484444


--------------------------------------------------------------------------------------------------------




 average (electrostatic) potential at core
  the test charge radii are     0.9892
  (the norm of the test charge is              1.0000)
       1 -83.5017       2 -83.3687       3 -83.6614       4 -83.4794       5 -83.6257
       6 -83.5385       7 -83.5149       8 -83.5515       9 -83.5302      10 -83.4215
      11 -83.5967      12 -83.5004      13 -83.4416      14 -83.5280      15 -83.4649
      16 -83.6323      17 -83.5477      18 -83.3868      19 -83.5451      20 -83.6006
      21 -83.6207      22 -83.4423      23 -83.5572      24 -83.4826      25 -83.4488
      26 -83.5153      27 -83.4077      28 -83.5863      29 -83.5656      30 -83.5366
      31 -83.6003      32 -83.5352      33 -83.5529      34 -83.5143      35 -83.5270
      36 -83.3704      37 -83.5891      38 -83.4947      39 -83.5684      40 -83.4920
      41 -83.4356      42 -83.3766      43 -83.4373      44 -83.4969      45 -83.4608
      46 -83.5076      47 -83.5234      48 -83.5424      49 -83.4969      50 -83.4348
      51 -83.6006      52 -83.5824      53 -83.5416      54 -83.4893      55 -83.6974
      56 -83.5583      57 -83.4766      58 -83.5312      59 -83.4658      60 -83.4619
      61 -83.4757      62 -83.5337      63 -83.4759      64 -83.4603      65 -83.4510
      66 -83.4851      67 -83.5537      68 -83.5354      69 -83.6450      70 -83.4934
      71 -83.6576      72 -83.5847      73 -83.5481      74 -83.5971      75 -83.4808
      76 -83.5783      77 -83.5741      78 -83.5117      79 -83.5763      80 -83.5300
      81 -83.5293      82 -83.4712      83 -83.6247      84 -83.3862      85 -83.5294
      86 -83.4475      87 -83.4994      88 -83.5334      89 -83.5199      90 -83.4267
      91 -83.4996      92 -83.5000      93 -83.4446      94 -83.5542      95 -83.5333
      96 -83.5355      97 -83.4791      98 -83.4844      99 -83.6160     100 -83.4634
     101 -83.4768     102 -83.4420     103 -83.5170     104 -83.5315     105 -83.5047
     106 -83.4464     107 -83.5268     108 -83.4631     109 -83.5282     110 -83.4115
     111 -83.5615     112 -83.4246     113 -83.5606     114 -83.4417     115 -83.6425
     116 -83.5079     117 -83.5645     118 -83.4842     119 -83.5953     120 -83.6166
     121 -83.4951     122 -83.4214     123 -83.5384     124 -83.4262     125 -83.5663
     126 -83.4660     127 -83.5479     128 -83.5543
 
 
 
 E-fermi :   5.9176     XC(G=0):  -9.3315     alpha+bet :-11.7321


 k-point     1 :       0.0000    0.0000    0.0000
  band No.  band energies     occupation 
      1      -6.2894      2.00000
      2      -5.6687      2.00000
      3      -5.6478      2.00000
      4      -5.6117      2.00000
      5      -5.5577      2.00000
      6      -5.4891      2.00000
      7      -5.4536      2.00000
      8      -5.4379      2.00000
      9      -5.4129      2.00000
     10      -5.3395      2.00000
     11      -5.2706      2.00000
     12      -5.2073      2.00000
     13      -5.1713      2.00000
     14      -5.1341      2.00000
     15      -5.1103      2.00000
     16      -4.5252      2.00000
     17      -4.4985      2.00000
     18      -4.4367      2.00000
     19      -4.4040      2.00000
     20      -4.3564      2.00000
     21      -4.3267      2.00000
     22      -4.3061      2.00000
     23      -4.2477      2.00000
     24      -4.2360      2.00000
     25      -4.1708      2.00000
     26      -4.1527      2.00000
     27      -4.1355      2.00000
     28      -4.0463      2.00000
     29      -4.0360      2.00000
     30      -4.0142      2.00000
     31      -3.9797      2.00000
     32      -3.8797      2.00000
     33      -3.8295      2.00000
     34      -3.8037      2.00000
     35      -3.7588      2.00000
     36      -3.7220      2.00000
     37      -3.7080      2.00000
     38      -3.6700      2.00000
     39      -3.6676      2.00000
     40      -3.6568      2.00000
     41      -3.6246      2.00000
     42      -3.6054      2.00000
     43      -3.5975      2.00000
     44      -3.5654      2.00000
     45      -3.5409      2.00000
     46      -3.5126      2.00000
     47      -3.4944      2.00000
     48      -3.4496      2.00000
     49      -3.4349      2.00000
     50      -3.4182      2.00000
     51      -3.4131      2.00000
     52      -3.3469      2.00000
     53      -3.3040      2.00000
     54      -3.2620      2.00000
     55      -3.1931      2.00000
     56      -2.3429      2.00000
     57      -2.2969      2.00000
     58      -2.2785      2.00000
     59      -2.2289      2.00000
     60      -2.1911      2.00000
     61      -2.1581      2.00000
     62      -2.1396      2.00000
     63      -2.1144      2.00000
     64      -2.0943      2.00000
     65      -2.0808      2.00000
     66      -2.0263      2.00000
     67      -2.0137      2.00000
     68      -1.9828      2.00000
     69      -1.9586      2.00000
     70      -1.8914      2.00000
     71      -1.8801      2.00000
     72      -1.8470      2.00000
     73      -1.7982      2.00000
     74      -1.3556      2.00000
     75      -1.3316      2.00000
     76      -1.2486      2.00000
     77      -1.2367      2.00000
     78      -1.0279      2.00000
     79      -0.9713      2.00000
     80      -0.9393      2.00000
     81      -0.9357      2.00000
     82      -0.8900      2.00000
     83      -0.8694      2.00000
     84      -0.8582      2.00000
     85      -0.8033      2.00000
     86      -0.7962      2.00000
     87      -0.7530      2.00000
     88      -0.7381      2.00000
     89      -0.7249      2.00000
     90      -0.6818      2.00000
     91      -0.6725      2.00000
     92      -0.6510      2.00000
     93      -0.6435      2.00000
     94      -0.6208      2.00000
     95      -0.6062      2.00000
     96      -0.6008      2.00000
     97      -0.5613      2.00000
     98      -0.5320      2.00000
     99      -0.5112      2.00000
    100      -0.4148      2.00000
    101      -0.3375      2.00000
    102      -0.0096      2.00000
    103       0.0033      2.00000
[...]
   -.758E+01 -.108E+01 0.387E+01   0.663E+01 0.124E+01 -.362E+01   0.223E+01 -.124E+01 -.215E+01   -.842E-06 0.284E-05 -.275E-05
   -.695E+01 0.186E+00 0.186E+02   0.594E+01 0.333E-01 -.170E+02   0.223E+01 -.164E+01 -.408E+01   -.232E-05 0.142E-05 -.266E-05
   0.284E+01 -.179E+02 0.798E+01   -.222E+01 0.167E+02 -.711E+01   -.118E+01 0.437E+01 -.702E-01   -.110E-05 0.172E-05 -.214E-06
   -.326E+01 0.342E+00 0.481E+00   0.334E+01 -.153E+00 -.109E+01   -.179E+00 -.107E+01 0.781E+00   0.125E-05 -.262E-05 -.283E-05
   -.437E+01 -.370E+01 0.646E+01   0.422E+01 0.311E+01 -.487E+01   0.119E+01 0.104E+01 -.208E+01   0.810E-06 0.415E-05 0.457E-06
   -.737E+01 -.259E+01 0.161E+02   0.685E+01 0.252E+01 -.146E+02   0.999E+00 -.222E-01 -.360E+01   0.275E-06 0.547E-05 -.236E-05
   -.620E+01 -.346E+01 0.713E+01   0.590E+01 0.294E+01 -.597E+01   0.189E+01 0.692E+00 -.199E+01   0.102E-05 0.186E-05 -.500E-05
   0.685E+01 0.256E+01 -.734E+01   -.629E+01 -.194E+01 0.695E+01   -.950E+00 -.955E+00 0.381E+01   -.990E-06 -.728E-06 -.103E-05
   0.598E+01 -.564E+01 0.582E+00   -.538E+01 0.532E+01 -.401E+00   -.880E+00 0.153E+01 -.454E+00   0.238E-06 0.262E-05 -.108E-05
   0.355E+01 -.123E+01 -.146E+01   -.306E+01 0.485E+00 0.172E+01   -.104E+01 0.162E+01 -.106E+01   0.241E-06 0.332E-05 -.186E-05
   0.285E+01 0.778E+01 0.153E+01   -.269E+01 -.750E+01 -.133E+01   -.762E+00 -.297E+01 -.613E+00   0.154E-05 0.249E-06 -.292E-05
   0.757E+01 0.418E+00 -.836E+01   -.756E+01 -.120E+01 0.792E+01   -.876E+00 0.128E+01 0.259E+01   -.180E-05 -.250E-05 0.260E-05
   0.919E+01 -.925E+01 -.140E+02   -.791E+01 0.845E+01 0.127E+02   -.356E+01 0.126E+01 0.249E+01   -.327E-05 0.133E-05 0.308E-05
   -.148E+01 0.585E+01 -.712E+01   0.643E+00 -.621E+01 0.660E+01   0.229E+01 -.405E+00 0.602E+00   0.242E-06 0.204E-05 -.161E-07
   -.187E+01 0.116E+02 -.303E+01   0.199E+01 -.110E+02 0.293E+01   -.341E-01 -.111E+01 0.269E+00   -.836E-06 -.152E-05 0.135E-05
   -.109E+02 0.770E+01 -.102E+02   0.985E+01 -.698E+01 0.909E+01   0.231E+01 -.184E+01 0.236E+01   0.163E-05 -.264E-05 0.422E-07
   0.103E+02 0.733E+01 0.519E+01   -.923E+01 -.633E+01 -.440E+01   -.274E+01 -.397E+00 -.218E+01   -.163E-05 0.545E-06 -.292E-05
   0.634E+01 -.127E+00 -.128E+02   -.637E+01 0.566E+00 0.113E+02   -.553E+00 -.480E+00 0.449E+01   0.258E-05 0.333E-05 0.229E-05
   -.651E+00 -.901E+01 0.582E+01   0.512E+00 0.796E+01 -.552E+01   0.154E+00 0.215E+01 -.883E+00   0.423E-05 0.660E-06 -.102E-05
   0.240E+01 0.165E+01 -.606E-02   -.253E+01 -.162E+01 -.112E+00   0.744E-01 -.291E+00 0.169E+00   0.425E-05 0.170E-06 -.264E-05
   -.628E+00 0.554E+01 -.987E+01   0.114E+00 -.518E+01 0.908E+01   0.260E+00 -.799E+00 0.309E+01   0.322E-05 -.849E-07 0.603E-06
   -.442E+01 -.863E+01 -.519E+01   0.405E+01 0.722E+01 0.440E+01   0.809E+00 0.368E+01 0.102E+01   -.353E-05 0.242E-06 0.327E-05
   -.306E+01 0.170E+01 0.133E+01   0.261E+01 -.174E+01 -.173E+01   0.154E+01 -.152E+00 -.142E+00   -.115E-06 -.295E-05 -.286E-05
   -.477E+01 -.551E+01 -.458E+00   0.403E+01 0.518E+01 0.887E+00   0.107E+01 0.170E+01 0.584E+00   -.120E-05 0.147E-05 -.996E-06
   -.698E+00 -.112E+01 -.113E+02   0.338E+00 0.703E+00 0.103E+02   0.310E+00 0.350E+00 0.257E+01   -.492E-05 -.324E-06 0.371E-05
   0.187E+02 0.478E+01 0.528E+01   -.166E+02 -.439E+01 -.508E+01   -.557E+01 -.966E+00 -.803E+00   -.432E-05 -.158E-05 0.155E-05
   0.288E+01 0.146E+01 0.232E+01   -.233E+01 -.148E+01 -.254E+01   -.101E+01 -.169E+01 -.107E+00   -.138E-05 -.199E-05 -.241E-05
   -.917E+01 -.863E+01 0.119E+00   0.802E+01 0.804E+01 0.108E+01   0.194E+01 -.446E+00 -.202E+00   0.242E-05 0.290E-06 0.197E-06
   0.124E+02 0.710E+01 0.504E+01   -.112E+02 -.654E+01 -.468E+01   -.353E+01 -.200E+01 -.117E+00   -.419E-05 -.150E-05 0.338E-05
   -.146E+01 -.629E+00 -.663E+01   0.134E+01 0.648E+00 0.676E+01   -.409E+00 0.461E+00 -.178E+01   0.174E-07 -.256E-05 0.130E-05
   -.157E+02 0.586E+01 -.351E+01   0.142E+02 -.561E+01 0.336E+01   0.449E+01 -.108E+01 -.382E+00   0.405E-05 -.169E-05 0.245E-05
   0.573E+01 -.187E+01 0.621E+01   -.530E+01 0.186E+01 -.537E+01   -.911E+00 0.510E+00 -.237E+01   0.973E-06 -.198E-05 0.393E-06
   0.382E+01 0.147E+02 0.462E+01   -.338E+01 -.136E+02 -.427E+01   -.963E+00 -.362E+01 -.931E+00   -.229E-05 -.120E-05 0.860E-06
   0.618E+01 0.106E+02 -.104E+01   -.602E+01 -.901E+01 0.154E+01   -.611E+00 -.347E+01 -.218E+00   -.206E-05 -.246E-05 0.379E-05
   0.577E+01 0.421E+01 -.924E-01   -.543E+01 -.449E+01 -.214E+00   -.100E+01 -.237E+00 0.737E-01   0.146E-05 -.235E-06 0.180E-06
   0.800E+01 0.222E+01 -.458E+01   -.729E+01 -.176E+01 0.391E+01   -.144E+01 -.752E+00 0.172E+01   -.552E-06 -.215E-05 -.664E-06
   0.717E+00 0.463E+01 -.180E+00   -.431E+00 -.436E+01 0.612E+00   -.135E+01 -.101E+01 -.224E+00   -.929E-06 -.165E-05 0.150E-05
   0.627E+00 0.118E+02 0.109E+01   -.588E+00 -.110E+02 -.108E+01   -.225E+00 -.203E+01 0.319E+00   -.373E-05 -.219E-05 0.276E-05
   -.341E+01 0.145E+01 -.757E+01   0.299E+01 -.135E+01 0.687E+01   0.170E+01 0.758E+00 0.186E+01   -.244E-06 0.163E-06 -.584E-06
   -.366E+01 -.387E+01 -.112E+02   0.331E+01 0.393E+01 0.102E+02   0.892E+00 0.673E+00 0.246E+01   0.197E-05 -.803E-06 0.426E-06
   -.864E+01 0.376E+01 0.878E+01   0.777E+01 -.303E+01 -.785E+01   0.192E+01 -.718E+00 -.269E+01   0.105E-05 -.272E-06 0.181E-06
   0.819E-01 -.387E+01 0.484E+01   -.196E+00 0.324E+01 -.412E+01   -.823E+00 0.623E+00 -.353E+00   -.494E-06 0.450E-06 0.491E-06
   -.766E+01 -.936E-01 0.272E+01   0.744E+01 -.242E+00 -.231E+01   0.203E+01 -.358E+00 -.193E+01   0.183E-05 -.496E-06 -.177E-05
   0.595E+01 -.376E+01 0.215E+00   -.511E+01 0.360E+01 0.237E+00   -.143E+01 0.110E+01 0.187E+00   0.249E-06 -.812E-06 0.217E-06
   0.331E+01 0.717E+00 -.121E+01   -.292E+01 -.606E+00 0.560E+00   -.167E+01 -.802E+00 0.238E+01   0.747E-06 -.124E-07 0.187E-05
   0.500E+01 -.690E+01 -.213E+01   -.482E+01 0.609E+01 0.210E+01   -.151E+01 0.231E+01 -.799E+00   -.156E-05 0.199E-05 0.596E-06
   -.860E-01 0.770E+01 0.281E+01   0.263E+00 -.656E+01 -.335E+01   -.120E+00 -.231E+01 0.112E+01   0.148E-05 -.384E-05 0.312E-05
   -.429E+01 -.125E+01 0.466E+01   0.368E+01 0.131E+01 -.408E+01   0.242E+01 -.521E+00 -.101E+01   0.289E-05 -.828E-06 -.269E-06
   -.106E+01 -.385E+01 0.490E+00   0.142E+01 0.382E+01 -.100E+01   -.101E+01 0.557E+00 0.707E+00   -.655E-06 -.824E-06 -.209E-06
   0.919E+01 -.147E+00 0.718E+00   -.747E+01 0.423E+00 -.103E+01   -.339E+01 -.121E+01 -.259E+00   -.467E-05 0.285E-05 0.349E-05
   0.302E+01 0.120E+01 0.218E+01   -.297E+01 -.119E+01 -.188E+01   0.571E-01 -.600E+00 0.875E+00   -.322E-05 -.177E-05 -.101E-05
   0.328E+01 -.141E+01 0.153E+00   -.268E+01 0.180E+01 -.295E+00   -.109E+01 0.834E+00 0.832E+00   -.189E-05 -.150E-05 -.225E-05
   -.613E+01 -.197E+01 0.362E+00   0.554E+01 0.181E+01 -.212E+00   0.123E+01 -.349E+00 -.404E+00   -.310E-05 -.188E-05 -.863E-08
 -----------------------------------------------------------------------------------------------
   -.370E+00 -.220E+00 -.735E+00   0.247E-12 -.121E-12 0.224E-13   0.370E+00 0.220E+00 0.735E+00   -.330E-05 -.947E-06 -.277E-06
 
 
 POSITION                                       TOTAL-FORCE (eV/Angst)
 -----------------------------------------------------------------------------------
      0.14363      0.06183      0.17592        -0.459433     -0.142286     -0.785868
     21.80199     13.81342     13.76944         0.560056     -2.494022     -0.145441
     10.89656     16.37910      5.59694         0.151051     -0.018638     -1.817227
     10.97962      8.28314     19.10494        -0.710007     -1.056778      0.487375
     13.61082     10.97275      2.82438         0.837630      0.235578     -0.962778
      2.73608      2.75343      5.35329         0.103580     -1.245629      1.741502
     13.74776     16.42753      8.35182        -2.176500     -1.309633     -3.159664
     13.58526     19.15188     10.91570         0.973836     -0.031948     -0.699695
     16.37646     10.93860      5.47519        -0.850852     -0.227203      1.206797
     16.42354     13.65870      8.34912        -0.074418     -0.318368     -2.188788
      5.59088      5.41420     10.99734        -2.179099      0.404193     -0.247821
      5.48625      8.24119     13.66165        -0.853421      0.028660     -0.074011
     19.22964     21.82058     19.23165         0.482323      0.958358      0.372116
     19.19777     13.49656     11.09526        -1.640520      1.832295     -1.608838
     19.09192     16.41699     13.70741         1.602829     -1.050321     -0.244494
     19.11069     19.12931     16.38614        -0.025992      0.342289      0.084497
     13.66979      2.81596     10.98085         0.551994      0.193901     -1.280543
      2.73467      5.25912      2.76201        -0.323228      1.515436      0.920419
      2.72219      8.17185      5.53444        -0.472197      0.417125     -1.921151
      2.76514     10.91523      8.19929        -0.074184     -0.232446     -0.907264
      5.41565      2.80240      2.76217         1.260244     -1.476461      0.059085
      5.46638      5.52391      5.56333         0.134545      0.473357     -0.044152
      5.53703      8.26506      8.18089        -2.477035     -0.220880     -0.663375
      5.43985     10.92574     10.89794         0.186868     -0.911141      0.144059
      8.28688     13.67766     16.19813        -0.356206     -1.684714      1.446026
      8.07146      5.39645      7.99140         0.542812      1.348878      1.165912
      8.09973      8.16723     10.91457        -0.075075     -1.336844     -0.601836
      8.11141     10.76639     13.51492         0.625699      0.473585      2.463563
     10.92476     13.66276     19.01147        -1.020639     -0.170721     -0.040089
     10.96904      5.53180     11.03422        -0.322219     -0.981028     -1.944661
     10.93131      8.14436     13.62829        -0.000273      0.743096     -0.348972
     10.99129     11.02864     16.43149        -0.419060     -2.073044     -0.015157
      5.63268      5.58880      0.14416        -1.775549     -1.597988     -1.818807
     16.44281      8.28690     13.62716        -0.256690     -1.461488      1.231547
      5.46193     11.01041      5.54932         0.067543      0.735143     -2.199000
      5.43268     13.64629      8.22200         0.034940     -0.852795     -0.348154
      8.15801      5.46570      2.74832         1.588106     -0.668167      0.888226
      8.23749      8.14037      5.34397         0.779826      1.949439      0.264687
      8.19869     10.80042      8.33325         0.811936      1.385208     -1.822608
      8.06950     13.40398     10.90743         1.766405      3.212322     -0.903168
     11.04603     16.49125     16.32544        -0.019393     -0.673618      2.986656
     10.95169      8.15062      8.13534        -1.006063      0.275847      0.501060
     10.83287     10.82654     10.91537        -0.316027      2.427426      0.112754
     10.86657     13.65657     13.66500         1.065669      0.454474      0.632592
     13.68996     16.29171     19.08404         2.138815      1.148880      0.415719
     13.85780      8.16114     10.99319        -2.073606      0.336705     -0.265217
     13.60704     10.88156     13.48540         0.605053      0.110511      1.915533
     13.62344     13.72679     16.42959         1.785819      0.666152     -1.428819
     19.19314     19.09849     21.75287        -0.069572      0.808842      2.204294
     19.16219     10.98747     13.65725        -1.038700     -0.908524     -0.223640
     19.17477     13.80391     16.46442        -0.529123     -2.484736     -0.769687
     18.94898     16.40155     19.14394         1.488554     -0.031668      0.006808
     10.97215      8.06967      2.96801         1.214792      2.012419     -3.473674
     11.02507     10.88714      5.47447        -0.821871      1.115150     -0.423215
     11.04526     13.66994      8.20665        -1.741617      0.765842      0.159036
     10.94224     16.40859     10.94856         1.060494      0.166172     -0.729235
     13.54169      8.22242      5.45244         1.850777     -1.201940      0.701329
     13.67487     10.93535      8.18945        -0.434927     -0.473504      0.428914
     13.66831     13.66319     10.93916        -0.468203     -0.635965      0.648788
     13.69270     16.33988     13.77078         0.521190      1.636211     -0.998809
     16.41148     19.14972     19.08913         1.175640      0.869207      1.388971
     16.34778     10.92725     11.05844         0.371018      0.607918     -1.888621
     16.46903     13.64267     13.63201        -0.895998      0.485939     -0.349633
     16.49017     16.38949     16.45417         0.122244     -0.063899     -1.262407
      1.48109      1.47672      1.40877        -0.982609      0.343343      1.231873
      1.39129      4.00799      4.10084        -1.156939      1.440770      0.729501
      1.31298      6.89287      6.70637         0.346435     -0.559443      2.680769
      1.35464      9.60535      9.61969        -0.251773      0.379370     -0.625741
      4.14171      1.32090      4.12097        -0.280522      0.647440     -0.319067
      4.01494      4.10808      6.79998         0.994497     -0.101894      0.973633
      4.01666      6.79908      9.51824         2.875118      1.882541      2.062843
      3.91818      9.62028     12.24610         1.449116     -0.197984      0.711948
      6.86953      1.10535      6.87479         0.310679      2.694250      0.210586
      6.82028      4.16156      9.52755         1.127234     -1.075309      0.706475
      6.83225      6.75148     12.38129        -0.111271      1.323601     -0.367877
      6.72151      9.62535     15.17002         1.275361     -1.088494     -1.909026
      9.62722      1.44041      9.79647         1.222445     -1.417982     -2.457528
      9.68281      3.86311     12.18705        -0.549433      3.155556      0.802690
      9.58077      6.87635     15.03965        -0.106653     -0.879663      0.176866
      9.49210      9.53212     17.80646         1.040013      0.448006     -0.490069
      4.14489      4.14734      1.47082         0.480824     -0.089921     -2.075499
      3.93372      6.75739      4.16138         1.591876      0.170655     -0.829250
      4.14724      9.57100      6.55434        -0.390844     -0.331172      3.428605
      4.08273     12.23863      9.61273        -0.280363      1.205284     -0.273059
      6.81139      4.07368      4.19016        -0.544707      0.877868     -0.804240
      6.92824      7.12984      6.84937        -0.605849     -2.693121     -0.418224
      6.84090      9.48900      9.48799        -0.862995      0.503908      2.163093
      6.88350     12.17055     12.25768        -2.289931      0.457795      1.231201
      9.46841      4.17781      6.65378         1.454871     -0.765614      0.082719
      9.50252      6.81123      9.50246         0.090541     -0.525333      0.161586
      9.40681      9.54891     12.11800         1.263407     -1.124028      1.283998
      9.67739     12.16918     15.01473        -1.667024      0.599810     -1.389812
     12.29712      4.07922      9.30202        -0.585467     -0.041141      2.942369
     12.42045      6.70039     12.41349         0.015441      1.092908     -0.578522
     12.29692      9.58369     15.01199        -0.059258     -0.263894      0.050429
     12.36860     12.33742     17.62777        -0.254570     -0.436716      2.297483
      6.93630      6.81250      1.41594         0.439979      2.271912      0.232182
      6.75261      9.63261      4.15247         1.079889     -0.191319     -0.542546
      6.89418     12.19380      6.84790         0.323839      1.375498      1.013288
      6.77695     14.97837      9.52820        -0.050357     -0.066520      1.581418
      9.75065      6.79669      4.18692        -3.467500     -0.568469     -0.598361
      9.61301      9.67861      6.83023        -0.465200     -1.717848     -0.324461
      9.50917     12.36660      9.44343         0.792773     -1.031826      0.992293
      9.70058     15.11769     12.29662        -2.355072     -1.436920      0.240809
     12.38746      6.78482      6.97657        -0.527615      0.479580     -1.645494
     12.08051      9.54598      9.60618         2.915822     -0.838640     -0.525398
     12.23911     12.26698     12.35371        -0.474483      0.502916     -1.527818
     12.32681     15.18229     15.08568        -0.528604     -2.571801     -0.582891
     15.15464      6.93834      9.55388        -0.449434     -1.896049      0.282623
     15.10028      9.58056     12.34193        -0.658969     -0.523016     -0.232272
     15.05205     12.30974     14.88416        -0.727015     -0.298383      1.054697
     15.16530     15.05570     17.73606        -1.060577     -0.737829      0.208294
      9.65392      9.61362      1.41297        -0.185966     -1.237524      0.333169
      9.48671     12.28132      4.07782         1.274774      0.859126      1.163908
      9.52902     15.02741      6.86745         0.544912      0.742184      1.510665
      9.50028     17.68482      9.61931         1.047804      0.016253     -1.760307
     12.35443      9.56423      4.08300        -0.937296     -0.006493      0.375578
     12.22781     12.33006      6.89102         1.804512     -0.693093     -1.528211
     12.37541     14.98265      9.56116        -0.591219      0.939134      0.639286
     12.42049     17.76461     12.24567        -1.287018     -0.690404      1.727163
     15.07183      9.43124      6.84036        -1.331364      1.493022     -0.834562
     15.01028     12.35961      9.56927         0.057247     -1.173207      0.577009
     14.91286     15.04346     12.35067         1.810023     -0.463850     -0.427616
     15.11994     17.73427     15.05627        -0.638887      0.532351      0.197028
     17.89322      9.68404      9.68792        -1.670247     -0.930529     -0.574642
     17.73176     12.28529     12.26162         0.104002     -0.582558      1.176209
     17.82406     14.93416     14.98563        -0.490264      1.220301      0.689507
     17.71976     17.84084     17.77220         0.639267     -0.507551     -0.253054
 -----------------------------------------------------------------------------------
    total drift:                                0.000002      0.000009     -0.000002


--------------------------------------------------------------------------------------------------------



  FREE ENERGIE OF THE ION-ELECTRON SYSTEM (eV)
  ---------------------------------------------------
  free  energy   TOTEN  =      -678.86484444 eV

  energy  without entropy=     -678.86484444  energy(sigma->0) =     -678.86484444
 


--------------------------------------------------------------------------------------------------------


    POTLOK:  cpu time    0.9964: real time    0.9965


--------------------------------------------------------------------------------------------------------


     LOOP+:  cpu time 1651.7128: real time 1652.0373
    4ORBIT:  cpu time    0.0000: real time    0.0000

 total amount of memory used by VASP MPI-rank0   221701. kBytes
=======================================================================

   base      :      30000. kBytes
   nonl-proj :      10690. kBytes
   fftplans  :      66746. kBytes
   grid      :      26864. kBytes
   one-center:         24. kBytes
   wavefun   :      87377. kBytes
 
  
  
 General timing and accounting informations for this job:
 ========================================================
  
                  Total CPU time used (sec):     1675.772
                            User time (sec):     1674.528
                          System time (sec):        1.244
                         Elapsed time (sec):     1677.150
  
                   Maximum memory used (kb):      337540.
                   Average memory used (kb):           0.
  
                          Minor page faults:       141418
                          Major page faults:            0
                 Voluntary context switches:         1331
