<?xml version="1.0" encoding="ISO-8859-1"?>
<modeling>
 <generator>
  <i name="program" type="string">vasp </i>
  <i name="version" type="string">5.4.4.18Apr17-6-g9f103f2a35  </i>
  <i name="subversion" type="string">(build Nov 08 2017 09:05:29) complex            parallel </i>
  <i name="platform" type="string">Intel_17.33 </i>
  <i name="date" type="string">2020 07 18 </i>
  <i name="time" type="string">22:08:34 </i>
 </generator>
 <incar>
  <i type="string" name="SYSTEM">potpaw_PBE@./ARUN.APL1ZEROSTATE</i>
  <i type="string" name="PREC">accurate</i>
  <i type="string" name="ALGO">Normal</i>
  <i type="int" name="NSIM">     4</i>
  <i type="logical" name="ADDGRID"> T  </i>
  <i type="int" name="NELM">   120</i>
  <i type="int" name="NELMIN">     4</i>
  <i name="EDIFF">      0.00000001</i>
  <i type="int" name="NSW">     0</i>
  <i type="int" name="ISYM">     2</i>
  <i name="ENMAX">    500.00000000</i>
  <i type="logical" name="LREAL"> F  </i>
  <i type="logical" name="LPLANE"> T  </i>
  <i type="int" name="ISMEAR">     0</i>
  <i name="SIGMA">      0.01000000</i>
  <i type="logical" name="LWAVE"> F  </i>
  <i type="logical" name="LCHARG"> F  </i>
  <i type="logical" name="LELF"> F  </i>
  <i type="logical" name="LAECHG"> F  </i>
  <v type="int" name="KPOINT_BSE">    -1     0     0     0</v>
  <i type="int" name="NELM">   120</i>
 </incar>
 <structure name="primitive_cell" >
  <crystal>
   <varray name="basis" >
    <v>       0.00000000      10.93733369      10.93733369 </v>
    <v>      10.93733369       0.00000000      10.93733369 </v>
    <v>      10.93733369      10.93733369       0.00000000 </v>
   </varray>
   <i name="volume">   2616.76295363 </i>
   <varray name="rec_basis" >
    <v>      -0.04571498       0.04571498       0.04571498 </v>
    <v>       0.04571498      -0.04571498       0.04571498 </v>
    <v>       0.04571498       0.04571498      -0.04571498 </v>
   </varray>
  </crystal>
  <varray name="positions" >
   <v>       0.00430276       0.01178188       0.00135022 </v>
   <v>       0.06420206       0.06460146       0.07081452 </v>
   <v>       0.06275123       0.06643642      -0.18377850 </v>
   <v>      -0.18305524       0.06258337       0.06127168 </v>
   <v>       0.07358565      -0.17789478       0.05811131 </v>
   <v>       0.00851729       0.24971568      -0.00527885 </v>
   <v>      -0.24651133       0.24453310      -0.00243342 </v>
   <v>       0.24658901      -0.23214960      -0.01259939 </v>
   <v>       0.00580701      -0.00182809       0.25165652 </v>
   <v>       0.25063381      -0.00195231      -0.24604969 </v>
   <v>       0.26427266      -0.00533287      -0.00131198 </v>
   <v>      -0.25258833       0.00224932       0.25056756 </v>
   <v>      -0.00238101      -0.23927014      -0.00256441 </v>
   <v>      -0.24988786      -0.00334834       0.00721496 </v>
   <v>      -0.00989537      -0.00124100      -0.24393072 </v>
   <v>      -0.00572349      -0.25605887       0.25490912 </v>
   <v>       0.00299560       0.26836901      -0.26518590 </v>
   <v>      -0.17949849       0.29915884       0.05908052 </v>
   <v>       0.29108333      -0.17682164       0.06212082 </v>
   <v>       0.05910014       0.31420819      -0.18464298 </v>
   <v>      -0.18770776       0.06659893       0.30668528 </v>
   <v>       0.31417302       0.05866205      -0.19129250 </v>
   <v>      -0.19588277       0.31550431      -0.17989955 </v>
   <v>       0.06760095      -0.18183455      -0.18218930 </v>
   <v>       0.04956053      -0.19907737       0.32340248 </v>
   <v>       0.31155469      -0.19047523      -0.18831076 </v>
   <v>      -0.18414823      -0.18780777       0.05566985 </v>
   <v>      -0.18609758       0.06559035      -0.19698000 </v>
   <v>      -0.19557195      -0.19272137       0.32358182 </v>
   <v>       0.24395929       0.25657095      -0.24854888 </v>
   <v>      -0.25101378       0.24741163       0.24995354 </v>
   <v>       0.25586602      -0.24700755       0.24990643 </v>
   <v>      -0.24959282       0.25061890      -0.25017066 </v>
   <v>      -0.24712737      -0.25054197       0.25547524 </v>
   <v>       0.25773721      -0.24666428      -0.25865921 </v>
   <v>       0.30709191       0.06784785       0.05935807 </v>
   <v>       0.05943664       0.31734367       0.06133293 </v>
   <v>       0.06735053       0.06712644       0.31184087 </v>
   <v>      -0.43767572       0.30792799       0.05931527 </v>
   <v>       0.05636471       0.32644523      -0.43494390 </v>
   <v>       0.05907049       0.07038897      -0.43620347 </v>
   <v>       0.32148942       0.05817080      -0.44078036 </v>
   <v>       0.05077137      -0.42220963       0.05029034 </v>
   <v>       0.31400848      -0.44290465       0.06648247 </v>
   <v>      -0.43833377       0.05149685       0.06854860 </v>
   <v>      -0.45242164       0.05168450       0.32749746 </v>
   <v>       0.06231784      -0.45396260       0.31965882 </v>
   <v>       0.24167069       0.01085990       0.23917058 </v>
   <v>       0.24551885       0.24393214       0.00622746 </v>
   <v>       0.00608778       0.49242900      -0.25431244 </v>
   <v>       0.00680783       0.24573704       0.24941572 </v>
   <v>      -0.24951598       0.49860020       0.00300778 </v>
   <v>       0.23985975       0.24873940      -0.49558637 </v>
   <v>      -0.24864666       0.00038336       0.49632625 </v>
   <v>      -0.00863454      -0.24651261       0.49818529 </v>
   <v>       0.49398013      -0.24760590      -0.24663151 </v>
   <v>      -0.49285803      -0.00180063      -0.24505131 </v>
   <v>      -0.49565055      -0.25108146      -0.00334485 </v>
   <v>       0.25011809      -0.00418738      -0.49244716 </v>
   <v>      -0.49569121       0.25929774      -0.00234021 </v>
   <v>       0.49870135       0.24927753       0.25697255 </v>
   <v>      -0.24945323      -0.49148484      -0.25659250 </v>
   <v>      -0.24419694      -0.25364626       0.49923665 </v>
   <v>      -0.49786214       0.00387577       0.24501370 </v>
   <v>       0.00256115       0.24871807       0.49716803 </v>
   <v>       0.25528521      -0.49192530      -0.00647113 </v>
   <v>       0.24303895       0.48761435       0.25035863 </v>
   <v>       0.30598980      -0.17102487       0.30662622 </v>
   <v>      -0.00216228      -0.25251959      -0.24697957 </v>
   <v>      -0.44704423      -0.18282065      -0.18752604 </v>
   <v>      -0.19794306       0.31866265       0.31069593 </v>
   <v>       0.31524314       0.30924493      -0.43032785 </v>
   <v>       0.31969709       0.31034864      -0.19236015 </v>
   <v>      -0.25005680      -0.25175904      -0.00095156 </v>
   <v>      -0.24129074      -0.00837957      -0.25911578 </v>
   <v>      -0.01306341       0.49405792       0.26361152 </v>
   <v>      -0.19218867      -0.43121713      -0.18636735 </v>
   <v>      -0.44519907       0.31268567       0.31277792 </v>
   <v>      -0.19021698       0.31449637      -0.42757294 </v>
   <v>       0.31137249      -0.44256281       0.31137827 </v>
   <v>       0.31187710      -0.18345480      -0.43592723 </v>
   <v>      -0.19420646      -0.18418631      -0.42925103 </v>
   <v>      -0.44372187       0.31789832      -0.18641530 </v>
   <v>      -0.19968991      -0.42751428       0.31231741 </v>
   <v>      -0.43776257      -0.18969144       0.31399877 </v>
   <v>       0.31628378      -0.44136599      -0.18624505 </v>
   <v>      -0.18200905      -0.19307979      -0.18680355 </v>
   <v>       0.00170628       0.49888992      -0.00159079 </v>
   <v>      -0.00475478       0.49738912      -0.48745103 </v>
   <v>      -0.49350158       0.00522996      -0.00895812 </v>
   <v>       0.49466640      -0.48917976       0.00035380 </v>
   <v>       0.00458445       0.00859603      -0.49360025 </v>
   <v>      -0.49266487       0.00003855       0.49934586 </v>
   <v>      -0.17375339      -0.43925202       0.05379906 </v>
   <v>      -0.18949086       0.06065351      -0.44103762 </v>
   <v>       0.05484734      -0.42943318      -0.19254969 </v>
   <v>      -0.17982003      -0.44089640      -0.43206405 </v>
   <v>      -0.43469628       0.06258681      -0.19134849 </v>
   <v>      -0.44467664       0.07077970      -0.44044467 </v>
   <v>      -0.42941931      -0.44135939      -0.19515810 </v>
   <v>       0.06280938      -0.42494185      -0.44247323 </v>
   <v>      -0.43609491      -0.18883009       0.06479914 </v>
   <v>      -0.43768224      -0.43029684       0.05496964 </v>
   <v>      -0.44493524      -0.19420640      -0.42958556 </v>
   <v>       0.06114741      -0.18763663      -0.42677481 </v>
   <v>      -0.25750159       0.25476783       0.48302655 </v>
   <v>      -0.26079370       0.49646239       0.24516395 </v>
   <v>       0.24914306       0.49961775      -0.24932465 </v>
   <v>      -0.49795507       0.49587339       0.24468473 </v>
   <v>       0.24385615       0.49995776      -0.49864508 </v>
   <v>       0.49515387       0.25518023      -0.24531220 </v>
   <v>       0.49561143      -0.24957772       0.24902734 </v>
   <v>       0.49989278       0.26201624       0.48758965 </v>
   <v>       0.24213036      -0.23702384      -0.49595806 </v>
   <v>       0.31932135       0.06115361       0.29850653 </v>
   <v>      -0.24775999       0.49715039       0.49637983 </v>
   <v>       0.49984969      -0.49968241      -0.25062498 </v>
   <v>       0.31511931       0.30660289       0.06048248 </v>
   <v>       0.49188949      -0.25892030      -0.49698863 </v>
   <v>       0.06639876       0.31670752       0.30605725 </v>
   <v>       0.32233503       0.30390226       0.32954624 </v>
   <v>       0.25695788       0.25169735       0.24809330 </v>
   <v>      -0.25240009      -0.24319569      -0.24910914 </v>
   <v>      -0.43952944      -0.45252209       0.31258593 </v>
   <v>      -0.43766649       0.30107849      -0.43165564 </v>
   <v>       0.32328014      -0.44498750      -0.45049149 </v>
   <v>      -0.43397607      -0.43652433      -0.44445462 </v>
   <v>       0.49870647       0.49928503       0.49116389 </v>
  </varray>
 </structure>
 <varray name="primitive_index" >
  <v type="int" >        1 </v>
  <v type="int" >       65 </v>
  <v type="int" >      113 </v>
  <v type="int" >       68 </v>
  <v type="int" >       77 </v>
  <v type="int" >        5 </v>
  <v type="int" >        8 </v>
  <v type="int" >       14 </v>
  <v type="int" >       17 </v>
  <v type="int" >       50 </v>
  <v type="int" >        2 </v>
  <v type="int" >       20 </v>
  <v type="int" >       13 </v>
  <v type="int" >        4 </v>
  <v type="int" >       49 </v>
  <v type="int" >       29 </v>
  <v type="int" >       53 </v>
  <v type="int" >       72 </v>
  <v type="int" >       78 </v>
  <v type="int" >      117 </v>
  <v type="int" >       84 </v>
  <v type="int" >      114 </v>
  <v type="int" >      120 </v>
  <v type="int" >      125 </v>
  <v type="int" >       93 </v>
  <v type="int" >      126 </v>
  <v type="int" >       80 </v>
  <v type="int" >      116 </v>
  <v type="int" >       96 </v>
  <v type="int" >       54 </v>
  <v type="int" >       24 </v>
  <v type="int" >       30 </v>
  <v type="int" >       56 </v>
  <v type="int" >       32 </v>
  <v type="int" >       62 </v>
  <v type="int" >       66 </v>
  <v type="int" >       69 </v>
  <v type="int" >       81 </v>
  <v type="int" >       71 </v>
  <v type="int" >      101 </v>
  <v type="int" >       97 </v>
  <v type="int" >       98 </v>
  <v type="int" >       73 </v>
  <v type="int" >       74 </v>
  <v type="int" >       67 </v>
  <v type="int" >       83 </v>
  <v type="int" >       89 </v>
  <v type="int" >       18 </v>
  <v type="int" >        6 </v>
  <v type="int" >       57 </v>
  <v type="int" >       21 </v>
  <v type="int" >       12 </v>
  <v type="int" >       38 </v>
  <v type="int" >       36 </v>
  <v type="int" >       45 </v>
  <v type="int" >       63 </v>
  <v type="int" >       51 </v>
  <v type="int" >       15 </v>
  <v type="int" >       34 </v>
  <v type="int" >        7 </v>
  <v type="int" >       23 </v>
  <v type="int" >       60 </v>
  <v type="int" >       48 </v>
  <v type="int" >       19 </v>
  <v type="int" >       37 </v>
  <v type="int" >       10 </v>
  <v type="int" >       26 </v>
  <v type="int" >       94 </v>
  <v type="int" >       61 </v>
  <v type="int" >      127 </v>
  <v type="int" >       88 </v>
  <v type="int" >      102 </v>
  <v type="int" >      118 </v>
  <v type="int" >       16 </v>
  <v type="int" >       52 </v>
  <v type="int" >       25 </v>
  <v type="int" >      124 </v>
  <v type="int" >       87 </v>
  <v type="int" >      104 </v>
  <v type="int" >       90 </v>
  <v type="int" >      110 </v>
  <v type="int" >      112 </v>
  <v type="int" >      119 </v>
  <v type="int" >       92 </v>
  <v type="int" >       95 </v>
  <v type="int" >      122 </v>
  <v type="int" >      128 </v>
  <v type="int" >        9 </v>
  <v type="int" >       41 </v>
  <v type="int" >        3 </v>
  <v type="int" >       11 </v>
  <v type="int" >       33 </v>
  <v type="int" >       35 </v>
  <v type="int" >       76 </v>
  <v type="int" >      100 </v>
  <v type="int" >      121 </v>
  <v type="int" >      108 </v>
  <v type="int" >      115 </v>
  <v type="int" >       99 </v>
  <v type="int" >      123 </v>
  <v type="int" >      105 </v>
  <v type="int" >       79 </v>
  <v type="int" >       75 </v>
  <v type="int" >      111 </v>
  <v type="int" >      109 </v>
  <v type="int" >       40 </v>
  <v type="int" >       28 </v>
  <v type="int" >       58 </v>
  <v type="int" >       27 </v>
  <v type="int" >       42 </v>
  <v type="int" >       55 </v>
  <v type="int" >       31 </v>
  <v type="int" >       39 </v>
  <v type="int" >       46 </v>
  <v type="int" >       82 </v>
  <v type="int" >       44 </v>
  <v type="int" >       59 </v>
  <v type="int" >       70 </v>
  <v type="int" >       47 </v>
  <v type="int" >       85 </v>
  <v type="int" >       86 </v>
  <v type="int" >       22 </v>
  <v type="int" >       64 </v>
  <v type="int" >       91 </v>
  <v type="int" >      103 </v>
  <v type="int" >      106 </v>
  <v type="int" >      107 </v>
  <v type="int" >       43 </v>
 </varray>
 <kpoints>
  <generation param="Gamma">
   <v type="int" name="divisions">       2        2        2 </v>
   <v name="usershift">      0.00000000       0.00000000       0.00000000 </v>
   <v name="genvec1">      0.50000000       0.00000000       0.00000000 </v>
   <v name="genvec2">      0.00000000       0.50000000       0.00000000 </v>
   <v name="genvec3">      0.00000000       0.00000000       0.50000000 </v>
   <v name="shift">      0.00000000       0.00000000       0.00000000 </v>
  </generation>
  <varray name="kpointlist" >
   <v>       0.00000000       0.00000000       0.00000000 </v>
   <v>       0.50000000       0.00000000       0.00000000 </v>
   <v>       0.00000000       0.50000000       0.00000000 </v>
   <v>       0.50000000       0.50000000       0.00000000 </v>
   <v>       0.00000000       0.00000000       0.50000000 </v>
   <v>       0.50000000       0.00000000       0.50000000 </v>
   <v>       0.00000000       0.50000000       0.50000000 </v>
   <v>       0.50000000       0.50000000       0.50000000 </v>
  </varray>
  <varray name="weights" >
   <v>       0.12500000 </v>
   <v>       0.12500000 </v>
   <v>       0.12500000 </v>
   <v>       0.12500000 </v>
   <v>       0.12500000 </v>
   <v>       0.12500000 </v>
   <v>       0.12500000 </v>
   <v>       0.12500000 </v>
  </varray>
 </kpoints>
 <parameters>
  <separator name="general" >
   <i type="string" name="SYSTEM">potpaw_PBE@./ARUN.APL1ZEROSTATE</i>
   <i type="logical" name="LCOMPAT"> F  </i>
  </separator>
  <separator name="electronic" >
   <i type="string" name="PREC">accura</i>
   <i name="ENMAX">    500.00000000</i>
   <i name="ENAUG">    322.06900000</i>
   <i name="EDIFF">      0.00000001</i>
   <i type="int" name="IALGO">    38</i>
   <i type="int" name="IWAVPR">    10</i>
   <i type="int" name="NBANDS">   322</i>
   <i name="NELECT">    512.00000000</i>
   <i type="int" name="TURBO">     0</i>
   <i type="int" name="IRESTART">     0</i>
   <i type="int" name="NREBOOT">     0</i>
   <i type="int" name="NMIN">     0</i>
   <i name="EREF">      0.00000000</i>
   <separator name="electronic smearing" >
    <i type="int" name="ISMEAR">     0</i>
    <i name="SIGMA">      0.01000000</i>
    <i name="KSPACING">      0.50000000</i>
    <i type="logical" name="KGAMMA"> T  </i>
   </separator>
   <separator name="electronic projectors" >
    <i type="logical" name="LREAL"> F  </i>
    <v name="ROPT">      0.00000000</v>
    <i type="int" name="LMAXPAW">  -100</i>
    <i type="int" name="LMAXMIX">     2</i>
    <i type="logical" name="NLSPLINE"> F  </i>
   </separator>
   <separator name="electronic startup" >
    <i type="int" name="ISTART">     0</i>
    <i type="int" name="ICHARG">     2</i>
    <i type="int" name="INIWAV">     1</i>
   </separator>
   <separator name="electronic spin" >
    <i type="int" name="ISPIN">     1</i>
    <i type="logical" name="LNONCOLLINEAR"> F  </i>
    <v name="MAGMOM">      1.00000000      1.00000000      1.00000000      1.00000000      1.00000000      1.00000000      1.00000000      1.00000000      1.00000000      1.00000000      1.00000000      1.00000000      1.00000000      1.00000000      1.00000000      1.00000000      1.00000000      1.00000000      1.00000000      1.00000000
      1.00000000      1.00000000      1.00000000      1.00000000      1.00000000      1.00000000      1.00000000      1.00000000      1.00000000      1.00000000      1.00000000      1.00000000      1.00000000      1.00000000      1.00000000      1.00000000      1.00000000      1.00000000      1.00000000      1.00000000
      1.00000000      1.00000000      1.00000000      1.00000000      1.00000000      1.00000000      1.00000000      1.00000000      1.00000000      1.00000000      1.00000000      1.00000000      1.00000000      1.00000000      1.00000000      1.00000000      1.00000000      1.00000000      1.00000000      1.00000000
      1.00000000      1.00000000      1.00000000      1.00000000      1.00000000      1.00000000      1.00000000      1.00000000      1.00000000      1.00000000      1.00000000      1.00000000      1.00000000      1.00000000      1.00000000      1.00000000      1.00000000      1.00000000      1.00000000      1.00000000
      1.00000000      1.00000000      1.00000000      1.00000000      1.00000000      1.00000000      1.00000000      1.00000000      1.00000000      1.00000000      1.00000000      1.00000000      1.00000000      1.00000000      1.00000000      1.00000000      1.00000000      1.00000000      1.00000000      1.00000000
      1.00000000      1.00000000      1.00000000      1.00000000      1.00000000      1.00000000      1.00000000      1.00000000      1.00000000      1.00000000      1.00000000      1.00000000      1.00000000      1.00000000      1.00000000      1.00000000      1.00000000      1.00000000      1.00000000      1.00000000
      1.00000000      1.00000000      1.00000000      1.00000000      1.00000000      1.00000000      1.00000000      1.00000000</v>
    <i name="NUPDOWN">     -1.00000000</i>
    <i type="logical" name="LSORBIT"> F  </i>
    <v name="SAXIS">      0.00000000      0.00000000      1.00000000</v>
    <i type="logical" name="LSPIRAL"> F  </i>
    <v name="QSPIRAL">      0.00000000      0.00000000      0.00000000</v>
    <i type="logical" name="LZEROZ"> F  </i>
   </separator>
   <separator name="electronic exchange-correlation" >
    <i type="logical" name="LASPH"> F  </i>
    <i type="logical" name="LMETAGGA"> F  </i>
   </separator>
   <separator name="electronic convergence" >
    <i type="int" name="NELM">   120</i>
    <i type="int" name="NELMDL">    -5</i>
    <i type="int" name="NELMIN">     4</i>
    <i name="ENINI">    500.00000000</i>
    <separator name="electronic convergence detail" >
     <i type="logical" name="LDIAG"> T  </i>
     <i type="logical" name="LSUBROT"> F  </i>
     <i name="WEIMIN">      0.00000000</i>
     <i name="EBREAK">      0.00000000</i>
     <i name="DEPER">      0.30000000</i>
     <i type="int" name="NRMM">     4</i>
     <i name="TIME">      0.40000000</i>
    </separator>
   </separator>
   <separator name="electronic mixer" >
    <i name="AMIX">      0.40000000</i>
    <i name="BMIX">      1.00000000</i>
    <i name="AMIN">      0.10000000</i>
    <i name="AMIX_MAG">      1.60000000</i>
    <i name="BMIX_MAG">      1.00000000</i>
    <separator name="electronic mixer details" >
     <i type="int" name="IMIX">     4</i>
     <i type="logical" name="MIXFIRST"> F  </i>
     <i type="int" name="MAXMIX">   -45</i>
     <i name="WC">    100.00000000</i>
     <i type="int" name="INIMIX">     1</i>
     <i type="int" name="MIXPRE">     1</i>
     <i type="int" name="MREMOVE">     5</i>
    </separator>
   </separator>
   <separator name="electronic dipolcorrection" >
    <i type="logical" name="LDIPOL"> F  </i>
    <i type="logical" name="LMONO"> F  </i>
    <i type="int" name="IDIPOL">     0</i>
    <i name="EPSILON">      1.00000000</i>
    <v name="DIPOL">   -100.00000000   -100.00000000   -100.00000000</v>
    <i name="EFIELD">      0.00000000</i>
   </separator>
  </separator>
  <separator name="grids" >
   <i type="int" name="NGX">   120</i>
   <i type="int" name="NGY">   120</i>
   <i type="int" name="NGZ">   120</i>
   <i type="int" name="NGXF">   240</i>
   <i type="int" name="NGYF">   240</i>
   <i type="int" name="NGZF">   240</i>
   <i type="logical" name="ADDGRID"> T  </i>
  </separator>
  <separator name="ionic" >
   <i type="int" name="NSW">     0</i>
   <i type="int" name="IBRION">    -1</i>
   <i type="int" name="MDALGO">     0</i>
   <i type="int" name="ISIF">     2</i>
   <i name="PSTRESS">      0.00000000</i>
   <i name="EDIFFG">      0.00000010</i>
   <i type="int" name="NFREE">     0</i>
   <i name="POTIM">      0.50000000</i>
   <i name="SMASS">     -3.00000000</i>
   <i name="SCALEE">      1.00000000</i>
  </separator>
  <separator name="ionic md" >
   <i name="TEBEG">      0.00010000</i>
   <i name="TEEND">      0.00010000</i>
   <i type="int" name="NBLOCK">     1</i>
   <i type="int" name="KBLOCK">     1</i>
   <i type="int" name="NPACO">   256</i>
   <i name="APACO">     16.00000000</i>
  </separator>
  <separator name="symmetry" >
   <i type="int" name="ISYM">     2</i>
   <i name="SYMPREC">      0.00001000</i>
  </separator>
  <separator name="dos" >
   <i type="int" name="LORBIT">     0</i>
   <v name="RWIGS">     -1.00000000</v>
   <i type="int" name="NEDOS">   301</i>
   <i name="EMIN">     10.00000000</i>
   <i name="EMAX">    -10.00000000</i>
   <i name="EFERMI">      0.00000000</i>
  </separator>
  <separator name="writing" >
   <i type="int" name="NWRITE">     2</i>
   <i type="logical" name="LWAVE"> F  </i>
   <i type="logical" name="LDOWNSAMPLE"> F  </i>
   <i type="logical" name="LCHARG"> F  </i>
   <i type="logical" name="LPARD"> F  </i>
   <i type="logical" name="LVTOT"> F  </i>
   <i type="logical" name="LVHAR"> F  </i>
   <i type="logical" name="LELF"> F  </i>
   <i type="logical" name="LOPTICS"> F  </i>
   <v name="STM">      0.00000000      0.00000000      0.00000000      0.00000000      0.00000000      0.00000000      0.00000000</v>
  </separator>
  <separator name="performance" >
   <i type="int" name="NPAR">     2</i>
   <i type="int" name="NSIM">     4</i>
   <i type="int" name="NBLK">    -1</i>
   <i type="logical" name="LPLANE"> T  </i>
   <i type="logical" name="LSCALAPACK"> T  </i>
   <i type="logical" name="LSCAAWARE"> F  </i>
   <i type="logical" name="LSCALU"> F  </i>
   <i type="logical" name="LASYNC"> F  </i>
   <i type="logical" name="LORBITALREAL"> F  </i>
  </separator>
  <separator name="miscellaneous" >
   <i type="int" name="IDIOT">     3</i>
   <i type="int" name="ISPECIAL">     0</i>
   <i type="logical" name="LMUSIC"> F  </i>
   <v name="POMASS">     28.08500000</v>
   <v name="DARWINR">      0.00000000</v>
   <v name="DARWINV">      1.00000000</v>
   <i type="logical" name="LCORR"> T  </i>
  </separator>
  <i type="logical" name="GGA_COMPAT"> T  </i>
  <i type="logical" name="LBERRY"> F  </i>
  <i type="int" name="ICORELEVEL">     0</i>
  <i type="logical" name="LDAU"> F  </i>
  <i type="int" name="I_CONSTRAINED_M">     0</i>
  <separator name="electronic exchange-correlation" >
   <i type="string" name="GGA">--</i>
   <i type="int" name="VOSKOWN">     0</i>
   <i type="logical" name="LHFCALC"> F  </i>
   <i type="string" name="PRECFOCK"></i>
   <i type="logical" name="LSYMGRAD"> F  </i>
   <i type="logical" name="LHFONE"> F  </i>
   <i type="logical" name="LRHFCALC"> F  </i>
   <i type="logical" name="LTHOMAS"> F  </i>
   <i type="logical" name="LMODELHF"> F  </i>
   <i name="ENCUT4O">     -1.00000000</i>
   <i type="int" name="EXXOEP">     0</i>
   <i type="int" name="FOURORBIT">     0</i>
   <i name="AEXX">      0.00000000</i>
   <i name="HFALPHA">      0.00000000</i>
   <i name="MCALPHA">      0.00000000</i>
   <i name="ALDAX">      1.00000000</i>
   <i name="AGGAX">      1.00000000</i>
   <i name="ALDAC">      1.00000000</i>
   <i name="AGGAC">      1.00000000</i>
   <i type="int" name="NKREDX">     1</i>
   <i type="int" name="NKREDY">     1</i>
   <i type="int" name="NKREDZ">     1</i>
   <i type="logical" name="SHIFTRED"> F  </i>
   <i type="logical" name="ODDONLY"> F  </i>
   <i type="logical" name="EVENONLY"> F  </i>
   <i type="int" name="LMAXFOCK">     0</i>
   <i type="int" name="NMAXFOCKAE">     0</i>
   <i type="logical" name="LFOCKAEDFT"> F  </i>
   <i name="HFSCREEN">      0.00000000</i>
   <i name="HFSCREENC">      0.00000000</i>
   <i type="int" name="NBANDSGWLOW">     0</i>
  </separator>
  <separator name="vdW DFT" >
   <i type="logical" name="LUSE_VDW"> F  </i>
   <i name="Zab_VDW">     -0.84910000</i>
   <i name="PARAM1">      0.12340000</i>
   <i name="PARAM2">      1.00000000</i>
   <i name="PARAM3">      0.00000000</i>
  </separator>
  <separator name="model GW" >
   <i type="int" name="MODEL_GW">     0</i>
   <i name="MODEL_EPS0">     12.26607635</i>
   <i name="MODEL_ALPHA">      1.00000000</i>
  </separator>
  <separator name="linear response parameters" >
   <i type="logical" name="LEPSILON"> F  </i>
   <i type="logical" name="LRPA"> F  </i>
   <i type="logical" name="LNABLA"> F  </i>
   <i type="logical" name="LVEL"> F  </i>
   <i type="int" name="KINTER">     0</i>
   <i name="CSHIFT">      0.10000000</i>
   <i name="OMEGAMAX">     -1.00000000</i>
   <i name="DEG_THRESHOLD">      0.00200000</i>
   <i name="RTIME">     -0.10000000</i>
   <i name="WPLASMAI">      0.00000000</i>
   <v name="DFIELD">      0.00000000      0.00000000      0.00000000</v>
   <v name="WPLASMA">      0.00000000      0.00000000      0.00000000      0.00000000      0.00000000      0.00000000      0.00000000      0.00000000      0.00000000</v>
  </separator>
  <separator name="orbital magnetization" >
   <i type="logical" name="NUCIND"> F  </i>
   <v name="MAGPOS">      0.00000000      0.00000000      0.00000000</v>
   <i type="logical" name="LNICSALL"> T  </i>
   <i type="logical" name="ORBITALMAG"> F  </i>
   <i type="logical" name="LMAGBLOCH"> F  </i>
   <i type="logical" name="LCHIMAG"> F  </i>
   <i type="logical" name="LGAUGE"> T  </i>
   <i type="int" name="MAGATOM">     0</i>
   <v name="MAGDIPOL">      0.00000000      0.00000000      0.00000000</v>
   <v name="AVECCONST">      0.00000000      0.00000000      0.00000000</v>
  </separator>
  <separator name="response functions" >
   <i type="logical" name="LADDER"> F  </i>
   <i type="logical" name="LRPAFORCE"> F  </i>
   <i type="logical" name="LFXC"> F  </i>
   <i type="logical" name="LHARTREE"> T  </i>
   <i type="int" name="IBSE">     0</i>
   <v type="int" name="KPOINT">    -1     0     0     0</v>
   <i type="logical" name="LTCTE"> F  </i>
   <i type="logical" name="LTETE"> F  </i>
   <i type="logical" name="LTRIPLET"> F  </i>
   <i type="logical" name="LFXCEPS"> F  </i>
   <i type="logical" name="LFXHEG"> F  </i>
   <i type="int" name="NATURALO">     2</i>
   <i type="logical" name="L2ORDER"> F  </i>
   <i type="logical" name="LMP2LT"> F  </i>
   <i type="logical" name="LUSEW"> F  </i>
   <i name="ENCUTGW">     -2.00000000</i>
   <i name="ENCUTGWSOFT">     -2.00000000</i>
   <i name="ENCUTLF">     -1.00000000</i>
   <i type="int" name="LMAXMP2">    -1</i>
   <i name="SCISSOR">      0.00000000</i>
   <i type="int" name="NOMEGA">     0</i>
   <i type="int" name="NOMEGAR">     0</i>
   <i type="int" name="NBANDSGW">    -1</i>
   <i type="int" name="NBANDSO">    -1</i>
   <i type="int" name="NBANDSV">    -1</i>
   <i type="int" name="NELM">   120</i>
   <i type="int" name="NELMHF">     1</i>
   <i type="int" name="DIM">     3</i>
   <i type="int" name="ANTIRES">     0</i>
   <i name="OMEGAMAX">    -30.00000000</i>
   <i name="OMEGAMIN">    -30.00000000</i>
   <i name="OMEGATL">   -200.00000000</i>
   <i type="int" name="OMEGAGRID">   140</i>
   <i name="CSHIFT">     -0.10000000</i>
   <i type="logical" name="SELFENERGY"> F  </i>
   <i type="logical" name="LSPECTRAL"> F  </i>
   <i type="logical" name="LSPECTRALGW"> F  </i>
   <i type="logical" name="LSINGLES"> F  </i>
   <i type="logical" name="LFERMIGW"> F  </i>
   <i type="logical" name="ODDONLYGW"> F  </i>
   <i type="logical" name="EVENONLYGW"> F  </i>
   <i type="int" name="NKREDLFX">     1</i>
   <i type="int" name="NKREDLFY">     1</i>
   <i type="int" name="NKREDLFZ">     1</i>
   <i type="int" name="MAXMEM">  2800</i>
   <i type="int" name="TELESCOPE">     0</i>
   <i type="int" name="TAUPAR">     1</i>
   <i type="int" name="OMEGAPAR">    -1</i>
   <i name="LAMBDA">      1.00000000</i>
  </separator>
  <separator name="External order field" >
   <i name="OFIELD_KAPPA">      0.00000000</i>
   <v name="OFIELD_K">      0.00000000      0.00000000      0.00000000</v>
   <i name="OFIELD_Q6_NEAR">      0.00000000</i>
   <i name="OFIELD_Q6_FAR">      0.00000000</i>
   <i name="OFIELD_A">      0.00000000</i>
  </separator>
 </parameters>
 <atominfo>
  <atoms>     128 </atoms>
  <types>       1 </types>
  <array name="atoms" >
   <dimension dim="1">ion</dimension>
   <field type="string">element</field>
   <field type="int">atomtype</field>
   <set>
    <rc><c>Si</c><c>   1</c></rc>
    <rc><c>Si</c><c>   1</c></rc>
    <rc><c>Si</c><c>   1</c></rc>
    <rc><c>Si</c><c>   1</c></rc>
    <rc><c>Si</c><c>   1</c></rc>
    <rc><c>Si</c><c>   1</c></rc>
    <rc><c>Si</c><c>   1</c></rc>
    <rc><c>Si</c><c>   1</c></rc>
    <rc><c>Si</c><c>   1</c></rc>
    <rc><c>Si</c><c>   1</c></rc>
    <rc><c>Si</c><c>   1</c></rc>
    <rc><c>Si</c><c>   1</c></rc>
    <rc><c>Si</c><c>   1</c></rc>
    <rc><c>Si</c><c>   1</c></rc>
    <rc><c>Si</c><c>   1</c></rc>
    <rc><c>Si</c><c>   1</c></rc>
    <rc><c>Si</c><c>   1</c></rc>
    <rc><c>Si</c><c>   1</c></rc>
    <rc><c>Si</c><c>   1</c></rc>
    <rc><c>Si</c><c>   1</c></rc>
    <rc><c>Si</c><c>   1</c></rc>
    <rc><c>Si</c><c>   1</c></rc>
    <rc><c>Si</c><c>   1</c></rc>
    <rc><c>Si</c><c>   1</c></rc>
    <rc><c>Si</c><c>   1</c></rc>
    <rc><c>Si</c><c>   1</c></rc>
    <rc><c>Si</c><c>   1</c></rc>
    <rc><c>Si</c><c>   1</c></rc>
    <rc><c>Si</c><c>   1</c></rc>
    <rc><c>Si</c><c>   1</c></rc>
    <rc><c>Si</c><c>   1</c></rc>
    <rc><c>Si</c><c>   1</c></rc>
    <rc><c>Si</c><c>   1</c></rc>
    <rc><c>Si</c><c>   1</c></rc>
    <rc><c>Si</c><c>   1</c></rc>
    <rc><c>Si</c><c>   1</c></rc>
    <rc><c>Si</c><c>   1</c></rc>
    <rc><c>Si</c><c>   1</c></rc>
    <rc><c>Si</c><c>   1</c></rc>
    <rc><c>Si</c><c>   1</c></rc>
    <rc><c>Si</c><c>   1</c></rc>
    <rc><c>Si</c><c>   1</c></rc>
    <rc><c>Si</c><c>   1</c></rc>
    <rc><c>Si</c><c>   1</c></rc>
    <rc><c>Si</c><c>   1</c></rc>
    <rc><c>Si</c><c>   1</c></rc>
    <rc><c>Si</c><c>   1</c></rc>
    <rc><c>Si</c><c>   1</c></rc>
    <rc><c>Si</c><c>   1</c></rc>
    <rc><c>Si</c><c>   1</c></rc>
    <rc><c>Si</c><c>   1</c></rc>
    <rc><c>Si</c><c>   1</c></rc>
    <rc><c>Si</c><c>   1</c></rc>
    <rc><c>Si</c><c>   1</c></rc>
    <rc><c>Si</c><c>   1</c></rc>
    <rc><c>Si</c><c>   1</c></rc>
    <rc><c>Si</c><c>   1</c></rc>
    <rc><c>Si</c><c>   1</c></rc>
    <rc><c>Si</c><c>   1</c></rc>
    <rc><c>Si</c><c>   1</c></rc>
    <rc><c>Si</c><c>   1</c></rc>
    <rc><c>Si</c><c>   1</c></rc>
    <rc><c>Si</c><c>   1</c></rc>
    <rc><c>Si</c><c>   1</c></rc>
    <rc><c>Si</c><c>   1</c></rc>
    <rc><c>Si</c><c>   1</c></rc>
    <rc><c>Si</c><c>   1</c></rc>
    <rc><c>Si</c><c>   1</c></rc>
    <rc><c>Si</c><c>   1</c></rc>
    <rc><c>Si</c><c>   1</c></rc>
    <rc><c>Si</c><c>   1</c></rc>
    <rc><c>Si</c><c>   1</c></rc>
    <rc><c>Si</c><c>   1</c></rc>
    <rc><c>Si</c><c>   1</c></rc>
    <rc><c>Si</c><c>   1</c></rc>
    <rc><c>Si</c><c>   1</c></rc>
    <rc><c>Si</c><c>   1</c></rc>
    <rc><c>Si</c><c>   1</c></rc>
    <rc><c>Si</c><c>   1</c></rc>
    <rc><c>Si</c><c>   1</c></rc>
    <rc><c>Si</c><c>   1</c></rc>
    <rc><c>Si</c><c>   1</c></rc>
    <rc><c>Si</c><c>   1</c></rc>
    <rc><c>Si</c><c>   1</c></rc>
    <rc><c>Si</c><c>   1</c></rc>
    <rc><c>Si</c><c>   1</c></rc>
    <rc><c>Si</c><c>   1</c></rc>
    <rc><c>Si</c><c>   1</c></rc>
    <rc><c>Si</c><c>   1</c></rc>
    <rc><c>Si</c><c>   1</c></rc>
    <rc><c>Si</c><c>   1</c></rc>
    <rc><c>Si</c><c>   1</c></rc>
    <rc><c>Si</c><c>   1</c></rc>
    <rc><c>Si</c><c>   1</c></rc>
    <rc><c>Si</c><c>   1</c></rc>
    <rc><c>Si</c><c>   1</c></rc>
    <rc><c>Si</c><c>   1</c></rc>
    <rc><c>Si</c><c>   1</c></rc>
    <rc><c>Si</c><c>   1</c></rc>
    <rc><c>Si</c><c>   1</c></rc>
    <rc><c>Si</c><c>   1</c></rc>
    <rc><c>Si</c><c>   1</c></rc>
    <rc><c>Si</c><c>   1</c></rc>
    <rc><c>Si</c><c>   1</c></rc>
    <rc><c>Si</c><c>   1</c></rc>
    <rc><c>Si</c><c>   1</c></rc>
    <rc><c>Si</c><c>   1</c></rc>
    <rc><c>Si</c><c>   1</c></rc>
    <rc><c>Si</c><c>   1</c></rc>
    <rc><c>Si</c><c>   1</c></rc>
    <rc><c>Si</c><c>   1</c></rc>
    <rc><c>Si</c><c>   1</c></rc>
    <rc><c>Si</c><c>   1</c></rc>
    <rc><c>Si</c><c>   1</c></rc>
    <rc><c>Si</c><c>   1</c></rc>
    <rc><c>Si</c><c>   1</c></rc>
    <rc><c>Si</c><c>   1</c></rc>
    <rc><c>Si</c><c>   1</c></rc>
    <rc><c>Si</c><c>   1</c></rc>
    <rc><c>Si</c><c>   1</c></rc>
    <rc><c>Si</c><c>   1</c></rc>
    <rc><c>Si</c><c>   1</c></rc>
    <rc><c>Si</c><c>   1</c></rc>
    <rc><c>Si</c><c>   1</c></rc>
    <rc><c>Si</c><c>   1</c></rc>
    <rc><c>Si</c><c>   1</c></rc>
    <rc><c>Si</c><c>   1</c></rc>
    <rc><c>Si</c><c>   1</c></rc>
   </set>
  </array>
  <array name="atomtypes" >
   <dimension dim="1">type</dimension>
   <field type="int">atomspertype</field>
   <field type="string">element</field>
   <field>mass</field>
   <field>valence</field>
   <field type="string">pseudopotential</field>
   <set>
    <rc><c> 128</c><c>Si</c><c>     28.08500000</c><c>      4.00000000</c><c> PAW_PBE Si 05Jan2001                   </c></rc>
   </set>
  </array>
 </atominfo>
 <structure name="initialpos" >
  <crystal>
   <varray name="basis" >
    <v>       0.00000000      10.93733369      10.93733369 </v>
    <v>      10.93733369       0.00000000      10.93733369 </v>
    <v>      10.93733369      10.93733369       0.00000000 </v>
   </varray>
   <i name="volume">   2616.76295363 </i>
   <varray name="rec_basis" >
    <v>      -0.04571498       0.04571498       0.04571498 </v>
    <v>       0.04571498      -0.04571498       0.04571498 </v>
    <v>       0.04571498       0.04571498      -0.04571498 </v>
   </varray>
  </crystal>
  <varray name="positions" >
   <v>       0.00430276       0.01178188       0.00135022 </v>
   <v>       0.26427266       0.99466713       0.99868802 </v>
   <v>       0.50649842       0.00522996       0.99104188 </v>
   <v>       0.75011214       0.99665166       0.00721496 </v>
   <v>       0.00851729       0.24971568       0.99472115 </v>
   <v>       0.24551885       0.24393214       0.00622746 </v>
   <v>       0.50430879       0.25929774       0.99765979 </v>
   <v>       0.75348867       0.24453310       0.99756658 </v>
   <v>       0.00170628       0.49888992       0.99840921 </v>
   <v>       0.25528521       0.50807470       0.99352887 </v>
   <v>       0.49466640       0.51082024       0.00035380 </v>
   <v>       0.75048402       0.49860020       0.00300778 </v>
   <v>       0.99761899       0.76072986       0.99743559 </v>
   <v>       0.24658901       0.76785040       0.98740061 </v>
   <v>       0.50434945       0.74891854       0.99665515 </v>
   <v>       0.74994320       0.74824096       0.99904844 </v>
   <v>       0.00580701       0.99817191       0.25165652 </v>
   <v>       0.24167069       0.01085990       0.23917058 </v>
   <v>       0.50213786       0.00387577       0.24501370 </v>
   <v>       0.74741167       0.00224932       0.25056756 </v>
   <v>       0.00680783       0.24573704       0.24941572 </v>
   <v>       0.25695788       0.25169735       0.24809330 </v>
   <v>       0.49870135       0.24927753       0.25697255 </v>
   <v>       0.74898622       0.24741163       0.24995354 </v>
   <v>       0.98693659       0.49405792       0.26361152 </v>
   <v>       0.24303895       0.48761435       0.25035863 </v>
   <v>       0.50204493       0.49587339       0.24468473 </v>
   <v>       0.73920630       0.49646239       0.24516395 </v>
   <v>       0.99427651       0.74394113       0.25490912 </v>
   <v>       0.25586602       0.75299245       0.24990643 </v>
   <v>       0.49561143       0.75042228       0.24902734 </v>
   <v>       0.75287263       0.74945803       0.25547524 </v>
   <v>       0.00458445       0.00859603       0.50639975 </v>
   <v>       0.25011809       0.99581262       0.50755284 </v>
   <v>       0.50733513       0.00003855       0.49934586 </v>
   <v>       0.75135334       0.00038336       0.49632625 </v>
   <v>       0.00256115       0.24871807       0.49716803 </v>
   <v>       0.23985975       0.24873940       0.50441363 </v>
   <v>       0.49989278       0.26201624       0.48758965 </v>
   <v>       0.74249841       0.25476783       0.48302655 </v>
   <v>       0.99524522       0.49738912       0.51254897 </v>
   <v>       0.24385615       0.49995776       0.50135492 </v>
   <v>       0.49870647       0.49928503       0.49116389 </v>
   <v>       0.75224001       0.49715039       0.49637983 </v>
   <v>       0.99136546       0.75348739       0.49818529 </v>
   <v>       0.24213036       0.76297616       0.50404194 </v>
   <v>       0.49188949       0.74107970       0.50301137 </v>
   <v>       0.75580306       0.74635374       0.49923665 </v>
   <v>       0.99010463       0.99875900       0.75606928 </v>
   <v>       0.25063381       0.99804769       0.75395031 </v>
   <v>       0.50714197       0.99819937       0.75494869 </v>
   <v>       0.75870926       0.99162043       0.74088422 </v>
   <v>       0.00299560       0.26836901       0.73481410 </v>
   <v>       0.24395929       0.25657095       0.75145112 </v>
   <v>       0.49515387       0.25518023       0.75468780 </v>
   <v>       0.75040718       0.25061890       0.74982934 </v>
   <v>       0.00608778       0.49242900       0.74568756 </v>
   <v>       0.24914306       0.49961775       0.75067535 </v>
   <v>       0.49984969       0.50031759       0.74937502 </v>
   <v>       0.75054677       0.50851516       0.74340750 </v>
   <v>       0.99783772       0.74748041       0.75302043 </v>
   <v>       0.25773721       0.75333572       0.74134079 </v>
   <v>       0.49398013       0.75239410       0.75336849 </v>
   <v>       0.74759991       0.75680431       0.75089086 </v>
   <v>       0.06420206       0.06460146       0.07081452 </v>
   <v>       0.30709191       0.06784785       0.05935807 </v>
   <v>       0.56166623       0.05149685       0.06854860 </v>
   <v>       0.81694476       0.06258337       0.06127168 </v>
   <v>       0.05943664       0.31734367       0.06133293 </v>
   <v>       0.31511931       0.30660289       0.06048248 </v>
   <v>       0.56232428       0.30792799       0.05931527 </v>
   <v>       0.82050151       0.29915884       0.05908052 </v>
   <v>       0.05077137       0.57779037       0.05029034 </v>
   <v>       0.31400848       0.55709535       0.06648247 </v>
   <v>       0.56231776       0.56970316       0.05496964 </v>
   <v>       0.82624661       0.56074798       0.05379906 </v>
   <v>       0.07358565       0.82210522       0.05811131 </v>
   <v>       0.29108333       0.82317836       0.06212082 </v>
   <v>       0.56390509       0.81116991       0.06479914 </v>
   <v>       0.81585177       0.81219223       0.05566985 </v>
   <v>       0.06735053       0.06712644       0.31184087 </v>
   <v>       0.31932135       0.06115361       0.29850653 </v>
   <v>       0.54757836       0.05168450       0.32749746 </v>
   <v>       0.81229224       0.06659893       0.30668528 </v>
   <v>       0.06639876       0.31670752       0.30605725 </v>
   <v>       0.32233503       0.30390226       0.32954624 </v>
   <v>       0.55480093       0.31268567       0.31277792 </v>
   <v>       0.80205694       0.31866265       0.31069593 </v>
   <v>       0.06231784       0.54603740       0.31965882 </v>
   <v>       0.31137249       0.55743719       0.31137827 </v>
   <v>       0.56047056       0.54747791       0.31258593 </v>
   <v>       0.80031009       0.57248572       0.31231741 </v>
   <v>       0.04956053       0.80092263       0.32340248 </v>
   <v>       0.30598980       0.82897513       0.30662622 </v>
   <v>       0.56223743       0.81030856       0.31399877 </v>
   <v>       0.80442805       0.80727863       0.32358182 </v>
   <v>       0.05907049       0.07038897       0.56379653 </v>
   <v>       0.32148942       0.05817080       0.55921964 </v>
   <v>       0.55532336       0.07077970       0.55955533 </v>
   <v>       0.81050914       0.06065351       0.55896238 </v>
   <v>       0.05636471       0.32644523       0.56505610 </v>
   <v>       0.31524314       0.30924493       0.56967215 </v>
   <v>       0.56233351       0.30107849       0.56834436 </v>
   <v>       0.80978302       0.31449637       0.57242706 </v>
   <v>       0.06280938       0.57505815       0.55752677 </v>
   <v>       0.32328014       0.55501250       0.54950851 </v>
   <v>       0.56602393       0.56347567       0.55554538 </v>
   <v>       0.82017997       0.55910360       0.56793595 </v>
   <v>       0.06114741       0.81236337       0.57322519 </v>
   <v>       0.31187710       0.81654520       0.56407277 </v>
   <v>       0.55506476       0.80579360       0.57041444 </v>
   <v>       0.80579354       0.81581369       0.57074897 </v>
   <v>       0.06275123       0.06643642       0.81622150 </v>
   <v>       0.31417302       0.05866205       0.80870750 </v>
   <v>       0.56530372       0.06258681       0.80865151 </v>
   <v>       0.81390242       0.06559035       0.80302000 </v>
   <v>       0.05910014       0.31420819       0.81535702 </v>
   <v>       0.31969709       0.31034864       0.80763985 </v>
   <v>       0.55627813       0.31789832       0.81358470 </v>
   <v>       0.80411723       0.31550431       0.82010045 </v>
   <v>       0.05484734       0.57056682       0.80745031 </v>
   <v>       0.31628378       0.55863401       0.81375495 </v>
   <v>       0.57058069       0.55864061       0.80484190 </v>
   <v>       0.80781133       0.56878287       0.81363265 </v>
   <v>       0.06760095       0.81816545       0.81781070 </v>
   <v>       0.31155469       0.80952477       0.81168924 </v>
   <v>       0.55295577       0.81717935       0.81247396 </v>
   <v>       0.81799095       0.80692021       0.81319645 </v>
  </varray>
 </structure>
 <calculation>
  <scstep>
   <time name="dav">   70.41   70.43</time>
   <time name="total">   71.42   71.44</time>
   <energy>
    <i name="alphaZ">    210.77028614 </i>
    <i name="ewald"> -14468.82181098 </i>
    <i name="hartreedc">   -756.55852144 </i>
    <i name="XCdc">  -1195.23995433 </i>
    <i name="pawpsdc">   4221.13331941 </i>
    <i name="pawaedc">  -1969.18571412 </i>
    <i name="eentropy">     -0.00199840 </i>
    <i name="bandstr">   2149.60942354 </i>
    <i name="atom">  13192.48085998 </i>
    <i name="e_fr_energy">   1384.18588982 </i>
    <i name="e_wo_entrp">   1384.18788821 </i>
    <i name="e_0_energy">   1384.18688901 </i>
   </energy>
  </scstep>
  <scstep>
   <time name="dav">   80.20   80.21</time>
   <time name="total">   80.20   80.21</time>
   <energy>
    <i name="e_fr_energy">   -537.06651078 </i>
    <i name="e_wo_entrp">   -537.06651078 </i>
    <i name="e_0_energy">   -537.06651078 </i>
   </energy>
  </scstep>
  <scstep>
   <time name="dav">   81.94   81.96</time>
   <time name="total">   81.95   81.96</time>
   <energy>
    <i name="e_fr_energy">   -686.44668393 </i>
    <i name="e_wo_entrp">   -686.44668393 </i>
    <i name="e_0_energy">   -686.44668393 </i>
   </energy>
  </scstep>
  <scstep>
   <time name="dav">   80.94   80.95</time>
   <time name="total">   80.94   80.96</time>
   <energy>
    <i name="e_fr_energy">   -690.65105756 </i>
    <i name="e_wo_entrp">   -690.65105756 </i>
    <i name="e_0_energy">   -690.65105756 </i>
   </energy>
  </scstep>
  <scstep>
   <time name="dav">   82.55   82.57</time>
   <time name="total">   85.80   85.82</time>
   <energy>
    <i name="e_fr_energy">   -690.79762134 </i>
    <i name="e_wo_entrp">   -690.79762134 </i>
    <i name="e_0_energy">   -690.79762134 </i>
   </energy>
  </scstep>
  <scstep>
   <time name="dav">   77.88   77.89</time>
   <time name="total">   82.13   82.15</time>
   <energy>
    <i name="e_fr_energy">   -682.32337072 </i>
    <i name="e_wo_entrp">   -682.32337072 </i>
    <i name="e_0_energy">   -682.32337072 </i>
   </energy>
  </scstep>
  <scstep>
   <time name="dav">   76.73   76.75</time>
   <time name="total">   80.97   80.99</time>
   <energy>
    <i name="e_fr_energy">   -678.78309152 </i>
    <i name="e_wo_entrp">   -678.78309152 </i>
    <i name="e_0_energy">   -678.78309152 </i>
   </energy>
  </scstep>
  <scstep>
   <time name="dav">   77.69   77.71</time>
   <time name="total">   81.92   81.93</time>
   <energy>
    <i name="e_fr_energy">   -678.83737901 </i>
    <i name="e_wo_entrp">   -678.83737901 </i>
    <i name="e_0_energy">   -678.83737901 </i>
   </energy>
  </scstep>
  <scstep>
   <time name="dav">   79.67   79.68</time>
   <time name="total">   83.91   83.92</time>
   <energy>
    <i name="e_fr_energy">   -678.86072427 </i>
    <i name="e_wo_entrp">   -678.86072427 </i>
    <i name="e_0_energy">   -678.86072427 </i>
   </energy>
  </scstep>
  <scstep>
   <time name="dav">   79.82   79.84</time>
   <time name="total">   84.05   84.07</time>
   <energy>
    <i name="e_fr_energy">   -678.86324582 </i>
    <i name="e_wo_entrp">   -678.86324582 </i>
    <i name="e_0_energy">   -678.86324582 </i>
   </energy>
  </scstep>
  <scstep>
   <time name="dav">   76.19   76.20</time>
   <time name="total">   80.41   80.42</time>
   <energy>
    <i name="e_fr_energy">   -678.86474440 </i>
    <i name="e_wo_entrp">   -678.86474440 </i>
    <i name="e_0_energy">   -678.86474440 </i>
   </energy>
  </scstep>
  <scstep>
   <time name="dav">   80.18   80.20</time>
   <time name="total">   84.40   84.42</time>
   <energy>
    <i name="e_fr_energy">   -678.86480842 </i>
    <i name="e_wo_entrp">   -678.86480842 </i>
    <i name="e_0_energy">   -678.86480842 </i>
   </energy>
  </scstep>
  <scstep>
   <time name="dav">   76.73   76.74</time>
   <time name="total">   80.94   80.95</time>
   <energy>
    <i name="e_fr_energy">   -678.86483769 </i>
    <i name="e_wo_entrp">   -678.86483769 </i>
    <i name="e_0_energy">   -678.86483769 </i>
   </energy>
  </scstep>
  <scstep>
   <time name="dav">   80.33   80.34</time>
   <time name="total">   84.55   84.57</time>
   <energy>
    <i name="e_fr_energy">   -678.86484166 </i>
    <i name="e_wo_entrp">   -678.86484166 </i>
    <i name="e_0_energy">   -678.86484166 </i>
   </energy>
  </scstep>
  <scstep>
   <time name="dav">   80.05   80.06</time>
   <time name="total">   84.26   84.28</time>
   <energy>
    <i name="e_fr_energy">   -678.86484494 </i>
    <i name="e_wo_entrp">   -678.86484494 </i>
    <i name="e_0_energy">   -678.86484494 </i>
   </energy>
  </scstep>
  <scstep>
   <time name="dav">   79.68   79.70</time>
   <time name="total">   83.83   83.85</time>
   <energy>
    <i name="e_fr_energy">   -678.86484431 </i>
    <i name="e_wo_entrp">   -678.86484431 </i>
    <i name="e_0_energy">   -678.86484431 </i>
   </energy>
  </scstep>
  <scstep>
   <time name="dav">   54.68   54.69</time>
   <time name="total">   58.81   58.82</time>
   <energy>
    <i name="e_fr_energy">   -678.86484441 </i>
    <i name="e_wo_entrp">   -678.86484441 </i>
    <i name="e_0_energy">   -678.86484441 </i>
   </energy>
  </scstep>
  <scstep>
   <time name="dav">   52.13   52.14</time>
   <time name="total">   56.27   56.28</time>
   <energy>
    <i name="e_fr_energy">   -678.86484449 </i>
    <i name="e_wo_entrp">   -678.86484449 </i>
    <i name="e_0_energy">   -678.86484449 </i>
   </energy>
  </scstep>
  <scstep>
   <time name="dav">   51.69   51.70</time>
   <time name="total">   55.82   55.84</time>
   <energy>
    <i name="e_fr_energy">   -678.86484444 </i>
    <i name="e_wo_entrp">   -678.86484444 </i>
    <i name="e_0_energy">   -678.86484444 </i>
   </energy>
  </scstep>
  <scstep>
   <time name="dav">   50.55   50.56</time>
   <time name="total">   51.55   51.56</time>
   <energy>
    <i name="alphaZ">    210.77028614 </i>
    <i name="ewald"> -14468.82181098 </i>
    <i name="hartreedc">  -1002.59452259 </i>
    <i name="XCdc">  -1155.65908490 </i>
    <i name="pawpsdc">   4733.61984192 </i>
    <i name="pawaedc">  -2495.42347946 </i>
    <i name="eentropy">     -0.00000000 </i>
    <i name="bandstr">    306.76306544 </i>
    <i name="atom">  13192.48085998 </i>
    <i name="e_fr_energy">   -678.86484444 </i>
    <i name="e_wo_entrp">   -678.86484444 </i>
    <i name="e_0_energy">   -678.86484444 </i>
   </energy>
  </scstep>
  <structure>
   <crystal>
    <varray name="basis" >
     <v>       0.00000000      10.93733369      10.93733369 </v>
     <v>      10.93733369       0.00000000      10.93733369 </v>
     <v>      10.93733369      10.93733369       0.00000000 </v>
    </varray>
    <i name="volume">   2616.76295363 </i>
    <varray name="rec_basis" >
     <v>      -0.04571498       0.04571498       0.04571498 </v>
     <v>       0.04571498      -0.04571498       0.04571498 </v>
     <v>       0.04571498       0.04571498      -0.04571498 </v>
    </varray>
   </crystal>
   <varray name="positions" >
    <v>       0.00430276       0.01178188       0.00135022 </v>
    <v>       0.26427266       0.99466713       0.99868802 </v>
    <v>       0.50649842       0.00522996       0.99104188 </v>
    <v>       0.75011214       0.99665166       0.00721496 </v>
    <v>       0.00851729       0.24971568       0.99472115 </v>
    <v>       0.24551885       0.24393214       0.00622746 </v>
    <v>       0.50430879       0.25929774       0.99765979 </v>
    <v>       0.75348867       0.24453310       0.99756658 </v>
    <v>       0.00170628       0.49888992       0.99840921 </v>
    <v>       0.25528521       0.50807470       0.99352887 </v>
    <v>       0.49466640       0.51082024       0.00035380 </v>
    <v>       0.75048402       0.49860020       0.00300778 </v>
    <v>       0.99761899       0.76072986       0.99743559 </v>
    <v>       0.24658901       0.76785040       0.98740061 </v>
    <v>       0.50434945       0.74891854       0.99665515 </v>
    <v>       0.74994320       0.74824096       0.99904844 </v>
    <v>       0.00580701       0.99817191       0.25165652 </v>
    <v>       0.24167069       0.01085990       0.23917058 </v>
    <v>       0.50213786       0.00387577       0.24501370 </v>
    <v>       0.74741167       0.00224932       0.25056756 </v>
    <v>       0.00680783       0.24573704       0.24941572 </v>
    <v>       0.25695788       0.25169735       0.24809330 </v>
    <v>       0.49870135       0.24927753       0.25697255 </v>
    <v>       0.74898622       0.24741163       0.24995354 </v>
    <v>       0.98693659       0.49405792       0.26361152 </v>
    <v>       0.24303895       0.48761435       0.25035863 </v>
    <v>       0.50204493       0.49587339       0.24468473 </v>
    <v>       0.73920630       0.49646239       0.24516395 </v>
    <v>       0.99427651       0.74394113       0.25490912 </v>
    <v>       0.25586602       0.75299245       0.24990643 </v>
    <v>       0.49561143       0.75042228       0.24902734 </v>
    <v>       0.75287263       0.74945803       0.25547524 </v>
    <v>       0.00458445       0.00859603       0.50639975 </v>
    <v>       0.25011809       0.99581262       0.50755284 </v>
    <v>       0.50733513       0.00003855       0.49934586 </v>
    <v>       0.75135334       0.00038336       0.49632625 </v>
    <v>       0.00256115       0.24871807       0.49716803 </v>
    <v>       0.23985975       0.24873940       0.50441363 </v>
    <v>       0.49989278       0.26201624       0.48758965 </v>
    <v>       0.74249841       0.25476783       0.48302655 </v>
    <v>       0.99524522       0.49738912       0.51254897 </v>
    <v>       0.24385615       0.49995776       0.50135492 </v>
    <v>       0.49870647       0.49928503       0.49116389 </v>
    <v>       0.75224001       0.49715039       0.49637983 </v>
    <v>       0.99136546       0.75348739       0.49818529 </v>
    <v>       0.24213036       0.76297616       0.50404194 </v>
    <v>       0.49188949       0.74107970       0.50301137 </v>
    <v>       0.75580306       0.74635374       0.49923665 </v>
    <v>       0.99010463       0.99875900       0.75606928 </v>
    <v>       0.25063381       0.99804769       0.75395031 </v>
    <v>       0.50714197       0.99819937       0.75494869 </v>
    <v>       0.75870926       0.99162043       0.74088422 </v>
    <v>       0.00299560       0.26836901       0.73481410 </v>
    <v>       0.24395929       0.25657095       0.75145112 </v>
    <v>       0.49515387       0.25518023       0.75468780 </v>
    <v>       0.75040718       0.25061890       0.74982934 </v>
    <v>       0.00608778       0.49242900       0.74568756 </v>
    <v>       0.24914306       0.49961775       0.75067535 </v>
    <v>       0.49984969       0.50031759       0.74937502 </v>
    <v>       0.75054677       0.50851516       0.74340750 </v>
    <v>       0.99783772       0.74748041       0.75302043 </v>
    <v>       0.25773721       0.75333572       0.74134079 </v>
    <v>       0.49398013       0.75239410       0.75336849 </v>
    <v>       0.74759991       0.75680431       0.75089086 </v>
    <v>       0.06420206       0.06460146       0.07081452 </v>
    <v>       0.30709191       0.06784785       0.05935807 </v>
    <v>       0.56166623       0.05149685       0.06854860 </v>
    <v>       0.81694476       0.06258337       0.06127168 </v>
    <v>       0.05943664       0.31734367       0.06133293 </v>
    <v>       0.31511931       0.30660289       0.06048248 </v>
    <v>       0.56232428       0.30792799       0.05931527 </v>
    <v>       0.82050151       0.29915884       0.05908052 </v>
    <v>       0.05077137       0.57779037       0.05029034 </v>
    <v>       0.31400848       0.55709535       0.06648247 </v>
    <v>       0.56231776       0.56970316       0.05496964 </v>
    <v>       0.82624661       0.56074798       0.05379906 </v>
    <v>       0.07358565       0.82210522       0.05811131 </v>
    <v>       0.29108333       0.82317836       0.06212082 </v>
    <v>       0.56390509       0.81116991       0.06479914 </v>
    <v>       0.81585177       0.81219223       0.05566985 </v>
    <v>       0.06735053       0.06712644       0.31184087 </v>
    <v>       0.31932135       0.06115361       0.29850653 </v>
    <v>       0.54757836       0.05168450       0.32749746 </v>
    <v>       0.81229224       0.06659893       0.30668528 </v>
    <v>       0.06639876       0.31670752       0.30605725 </v>
    <v>       0.32233503       0.30390226       0.32954624 </v>
    <v>       0.55480093       0.31268567       0.31277792 </v>
    <v>       0.80205694       0.31866265       0.31069593 </v>
    <v>       0.06231784       0.54603740       0.31965882 </v>
    <v>       0.31137249       0.55743719       0.31137827 </v>
    <v>       0.56047056       0.54747791       0.31258593 </v>
    <v>       0.80031009       0.57248572       0.31231741 </v>
    <v>       0.04956053       0.80092263       0.32340248 </v>
    <v>       0.30598980       0.82897513       0.30662622 </v>
    <v>       0.56223743       0.81030856       0.31399877 </v>
    <v>       0.80442805       0.80727863       0.32358182 </v>
    <v>       0.05907049       0.07038897       0.56379653 </v>
    <v>       0.32148942       0.05817080       0.55921964 </v>
    <v>       0.55532336       0.07077970       0.55955533 </v>
    <v>       0.81050914       0.06065351       0.55896238 </v>
    <v>       0.05636471       0.32644523       0.56505610 </v>
    <v>       0.31524314       0.30924493       0.56967215 </v>
    <v>       0.56233351       0.30107849       0.56834436 </v>
    <v>       0.80978302       0.31449637       0.57242706 </v>
    <v>       0.06280938       0.57505815       0.55752677 </v>
    <v>       0.32328014       0.55501250       0.54950851 </v>
    <v>       0.56602393       0.56347567       0.55554538 </v>
    <v>       0.82017997       0.55910360       0.56793595 </v>
    <v>       0.06114741       0.81236337       0.57322519 </v>
    <v>       0.31187710       0.81654520       0.56407277 </v>
    <v>       0.55506476       0.80579360       0.57041444 </v>
    <v>       0.80579354       0.81581369       0.57074897 </v>
    <v>       0.06275123       0.06643642       0.81622150 </v>
    <v>       0.31417302       0.05866205       0.80870750 </v>
    <v>       0.56530372       0.06258681       0.80865151 </v>
    <v>       0.81390242       0.06559035       0.80302000 </v>
    <v>       0.05910014       0.31420819       0.81535702 </v>
    <v>       0.31969709       0.31034864       0.80763985 </v>
    <v>       0.55627813       0.31789832       0.81358470 </v>
    <v>       0.80411723       0.31550431       0.82010045 </v>
    <v>       0.05484734       0.57056682       0.80745031 </v>
    <v>       0.31628378       0.55863401       0.81375495 </v>
    <v>       0.57058069       0.55864061       0.80484190 </v>
    <v>       0.80781133       0.56878287       0.81363265 </v>
    <v>       0.06760095       0.81816545       0.81781070 </v>
    <v>       0.31155469       0.80952477       0.81168924 </v>
    <v>       0.55295577       0.81717935       0.81247396 </v>
    <v>       0.81799095       0.80692021       0.81319645 </v>
   </varray>
  </structure>
  <varray name="forces" >
   <v>      -0.45943338      -0.14228603      -0.78586846 </v>
   <v>       0.56005567      -2.49402191      -0.14544066 </v>
   <v>       0.15105059      -0.01863848      -1.81722679 </v>
   <v>      -0.71000677      -1.05677791       0.48737523 </v>
   <v>       0.83763016       0.23557767      -0.96277784 </v>
   <v>       0.10358004      -1.24562946       1.74150226 </v>
   <v>      -2.17649965      -1.30963317      -3.15966414 </v>
   <v>       0.97383613      -0.03194794      -0.69969503 </v>
   <v>      -0.85085247      -0.22720348       1.20679665 </v>
   <v>      -0.07441785      -0.31836800      -2.18878830 </v>
   <v>      -2.17909892       0.40419306      -0.24782061 </v>
   <v>      -0.85342071       0.02866038      -0.07401118 </v>
   <v>       0.48232329       0.95835806       0.37211581 </v>
   <v>      -1.64051998       1.83229486      -1.60883848 </v>
   <v>       1.60282926      -1.05032133      -0.24449358 </v>
   <v>      -0.02599206       0.34228938       0.08449660 </v>
   <v>       0.55199444       0.19390116      -1.28054307 </v>
   <v>      -0.32322759       1.51543629       0.92041929 </v>
   <v>      -0.47219673       0.41712533      -1.92115135 </v>
   <v>      -0.07418355      -0.23244631      -0.90726438 </v>
   <v>       1.26024430      -1.47646117       0.05908515 </v>
   <v>       0.13454546       0.47335704      -0.04415160 </v>
   <v>      -2.47703501      -0.22088015      -0.66337490 </v>
   <v>       0.18686814      -0.91114141       0.14405882 </v>
   <v>      -0.35620620      -1.68471394       1.44602584 </v>
   <v>       0.54281210       1.34887840       1.16591150 </v>
   <v>      -0.07507508      -1.33684438      -0.60183644 </v>
   <v>       0.62569895       0.47358454       2.46356349 </v>
   <v>      -1.02063907      -0.17072091      -0.04008854 </v>
   <v>      -0.32221944      -0.98102750      -1.94466075 </v>
   <v>      -0.00027331       0.74309563      -0.34897179 </v>
   <v>      -0.41905984      -2.07304409      -0.01515663 </v>
   <v>      -1.77554933      -1.59798754      -1.81880745 </v>
   <v>      -0.25668958      -1.46148792       1.23154743 </v>
   <v>       0.06754345       0.73514250      -2.19899954 </v>
   <v>       0.03494047      -0.85279480      -0.34815444 </v>
   <v>       1.58810626      -0.66816714       0.88822642 </v>
   <v>       0.77982650       1.94943930       0.26468697 </v>
   <v>       0.81193623       1.38520807      -1.82260771 </v>
   <v>       1.76640476       3.21232161      -0.90316832 </v>
   <v>      -0.01939264      -0.67361831       2.98665551 </v>
   <v>      -1.00606322       0.27584727       0.50105960 </v>
   <v>      -0.31602654       2.42742648       0.11275444 </v>
   <v>       1.06566857       0.45447390       0.63259216 </v>
   <v>       2.13881526       1.14887975       0.41571946 </v>
   <v>      -2.07360645       0.33670533      -0.26521736 </v>
   <v>       0.60505328       0.11051088       1.91553313 </v>
   <v>       1.78581949       0.66615202      -1.42881883 </v>
   <v>      -0.06957170       0.80884226       2.20429435 </v>
   <v>      -1.03870046      -0.90852351      -0.22364031 </v>
   <v>      -0.52912320      -2.48473597      -0.76968693 </v>
   <v>       1.48855433      -0.03166750       0.00680806 </v>
   <v>       1.21479212       2.01241863      -3.47367448 </v>
   <v>      -0.82187074       1.11515041      -0.42321466 </v>
   <v>      -1.74161666       0.76584186       0.15903642 </v>
   <v>       1.06049428       0.16617244      -0.72923496 </v>
   <v>       1.85077690      -1.20193992       0.70132870 </v>
   <v>      -0.43492666      -0.47350416       0.42891361 </v>
   <v>      -0.46820339      -0.63596526       0.64878842 </v>
   <v>       0.52118983       1.63621106      -0.99880907 </v>
   <v>       1.17564030       0.86920715       1.38897100 </v>
   <v>       0.37101836       0.60791798      -1.88862059 </v>
   <v>      -0.89599825       0.48593860      -0.34963338 </v>
   <v>       0.12224357      -0.06389872      -1.26240669 </v>
   <v>      -0.98260872       0.34334251       1.23187280 </v>
   <v>      -1.15693915       1.44077011       0.72950126 </v>
   <v>       0.34643452      -0.55944268       2.68076919 </v>
   <v>      -0.25177258       0.37937010      -0.62574062 </v>
   <v>      -0.28052197       0.64743971      -0.31906662 </v>
   <v>       0.99449665      -0.10189426       0.97363315 </v>
   <v>       2.87511774       1.88254135       2.06284275 </v>
   <v>       1.44911641      -0.19798383       0.71194827 </v>
   <v>       0.31067891       2.69425000       0.21058582 </v>
   <v>       1.12723383      -1.07530898       0.70647544 </v>
   <v>      -0.11127115       1.32360141      -0.36787729 </v>
   <v>       1.27536070      -1.08849427      -1.90902572 </v>
   <v>       1.22244513      -1.41798200      -2.45752762 </v>
   <v>      -0.54943338       3.15555621       0.80269000 </v>
   <v>      -0.10665319      -0.87966308       0.17686608 </v>
   <v>       1.04001296       0.44800551      -0.49006927 </v>
   <v>       0.48082356      -0.08992122      -2.07549912 </v>
   <v>       1.59187568       0.17065532      -0.82925037 </v>
   <v>      -0.39084405      -0.33117211       3.42860479 </v>
   <v>      -0.28036324       1.20528366      -0.27305936 </v>
   <v>      -0.54470686       0.87786759      -0.80423978 </v>
   <v>      -0.60584868      -2.69312109      -0.41822398 </v>
   <v>      -0.86299520       0.50390796       2.16309314 </v>
   <v>      -2.28993091       0.45779521       1.23120121 </v>
   <v>       1.45487114      -0.76561430       0.08271910 </v>
   <v>       0.09054130      -0.52533267       0.16158613 </v>
   <v>       1.26340695      -1.12402830       1.28399821 </v>
   <v>      -1.66702380       0.59980972      -1.38981152 </v>
   <v>      -0.58546741      -0.04114109       2.94236947 </v>
   <v>       0.01544144       1.09290799      -0.57852206 </v>
   <v>      -0.05925777      -0.26389450       0.05042944 </v>
   <v>      -0.25456995      -0.43671630       2.29748299 </v>
   <v>       0.43997858       2.27191172       0.23218241 </v>
   <v>       1.07988945      -0.19131913      -0.54254621 </v>
   <v>       0.32383890       1.37549817       1.01328751 </v>
   <v>      -0.05035740      -0.06651972       1.58141786 </v>
   <v>      -3.46750009      -0.56846893      -0.59836135 </v>
   <v>      -0.46520039      -1.71784775      -0.32446057 </v>
   <v>       0.79277255      -1.03182595       0.99229311 </v>
   <v>      -2.35507184      -1.43691988       0.24080926 </v>
   <v>      -0.52761511       0.47957999      -1.64549405 </v>
   <v>       2.91582179      -0.83864047      -0.52539763 </v>
   <v>      -0.47448259       0.50291574      -1.52781763 </v>
   <v>      -0.52860398      -2.57180141      -0.58289079 </v>
   <v>      -0.44943362      -1.89604896       0.28262347 </v>
   <v>      -0.65896887      -0.52301580      -0.23227190 </v>
   <v>      -0.72701458      -0.29838347       1.05469665 </v>
   <v>      -1.06057708      -0.73782902       0.20829448 </v>
   <v>      -0.18596622      -1.23752409       0.33316923 </v>
   <v>       1.27477385       0.85912571       1.16390816 </v>
   <v>       0.54491221       0.74218358       1.51066518 </v>
   <v>       1.04780449       0.01625269      -1.76030688 </v>
   <v>      -0.93729582      -0.00649282       0.37557844 </v>
   <v>       1.80451166      -0.69309265      -1.52821145 </v>
   <v>      -0.59121900       0.93913400       0.63928642 </v>
   <v>      -1.28701797      -0.69040431       1.72716251 </v>
   <v>      -1.33136399       1.49302235      -0.83456157 </v>
   <v>       0.05724683      -1.17320730       0.57700927 </v>
   <v>       1.81002284      -0.46385000      -0.42761555 </v>
   <v>      -0.63888748       0.53235080       0.19702826 </v>
   <v>      -1.67024692      -0.93052948      -0.57464229 </v>
   <v>       0.10400212      -0.58255806       1.17620934 </v>
   <v>      -0.49026402       1.22030111       0.68950704 </v>
   <v>       0.63926676      -0.50755139      -0.25305375 </v>
  </varray>
  <varray name="stress" >
   <v>      15.02819946       6.74065637      -1.48710871 </v>
   <v>       6.74065637      13.89463096      -1.20078421 </v>
   <v>      -1.48710871      -1.20078419      12.41780511 </v>
  </varray>
  <energy>
   <i name="e_fr_energy">   -678.86484444 </i>
   <i name="e_wo_entrp">   -678.86484444 </i>
   <i name="e_0_energy">     -0.00000000 </i>
  </energy>
  <time name="totalsc"> 1651.71 1652.04</time>
  <eigenvalues>
   <array>
    <dimension dim="1">band</dimension>
    <dimension dim="2">kpoint</dimension>
    <dimension dim="3">spin</dimension>
    <field>eigene</field>
    <field>occ</field>
    <set>
     <set comment="spin 1">
      <set comment="kpoint 1">
       <r>   -6.2894    1.0000 </r>
       <r>   -5.6687    1.0000 </r>
       <r>   -5.6478    1.0000 </r>
       <r>   -5.6117    1.0000 </r>
       <r>   -5.5577    1.0000 </r>
       <r>   -5.4891    1.0000 </r>
       <r>   -5.4536    1.0000 </r>
       <r>   -5.4379    1.0000 </r>
       <r>   -5.4129    1.0000 </r>
       <r>   -5.3395    1.0000 </r>
       <r>   -5.2706    1.0000 </r>
       <r>   -5.2073    1.0000 </r>
       <r>   -5.1713    1.0000 </r>
       <r>   -5.1341    1.0000 </r>
       <r>   -5.1103    1.0000 </r>
       <r>   -4.5252    1.0000 </r>
       <r>   -4.4985    1.0000 </r>
       <r>   -4.4367    1.0000 </r>
       <r>   -4.4040    1.0000 </r>
       <r>   -4.3564    1.0000 </r>
       <r>   -4.3267    1.0000 </r>
       <r>   -4.3061    1.0000 </r>
       <r>   -4.2477    1.0000 </r>
       <r>   -4.2360    1.0000 </r>
       <r>   -4.1708    1.0000 </r>
       <r>   -4.1527    1.0000 </r>
       <r>   -4.1355    1.0000 </r>
       <r>   -4.0463    1.0000 </r>
       <r>   -4.0360    1.0000 </r>
       <r>   -4.0142    1.0000 </r>
       <r>   -3.9797    1.0000 </r>
       <r>   -3.8797    1.0000 </r>
       <r>   -3.8295    1.0000 </r>
       <r>   -3.8037    1.0000 </r>
       <r>   -3.7588    1.0000 </r>
       <r>   -3.7220    1.0000 </r>
       <r>   -3.7080    1.0000 </r>
       <r>   -3.6700    1.0000 </r>
       <r>   -3.6676    1.0000 </r>
       <r>   -3.6568    1.0000 </r>
       <r>   -3.6246    1.0000 </r>
       <r>   -3.6054    1.0000 </r>
       <r>   -3.5975    1.0000 </r>
       <r>   -3.5654    1.0000 </r>
       <r>   -3.5409    1.0000 </r>
       <r>   -3.5126    1.0000 </r>
       <r>   -3.4944    1.0000 </r>
       <r>   -3.4496    1.0000 </r>
       <r>   -3.4349    1.0000 </r>
       <r>   -3.4182    1.0000 </r>
       <r>   -3.4131    1.0000 </r>
       <r>   -3.3469    1.0000 </r>
       <r>   -3.3040    1.0000 </r>
       <r>   -3.2620    1.0000 </r>
       <r>   -3.1931    1.0000 </r>
       <r>   -2.3429    1.0000 </r>
       <r>   -2.2969    1.0000 </r>
       <r>   -2.2785    1.0000 </r>
       <r>   -2.2289    1.0000 </r>
       <r>   -2.1911    1.0000 </r>
       <r>   -2.1581    1.0000 </r>
       <r>   -2.1396    1.0000 </r>
       <r>   -2.1144    1.0000 </r>
       <r>   -2.0943    1.0000 </r>
       <r>   -2.0808    1.0000 </r>
       <r>   -2.0263    1.0000 </r>
       <r>   -2.0137    1.0000 </r>
       <r>   -1.9828    1.0000 </r>
       <r>   -1.9586    1.0000 </r>
       <r>   -1.8914    1.0000 </r>
       <r>   -1.8801    1.0000 </r>
       <r>   -1.8470    1.0000 </r>
       <r>   -1.7982    1.0000 </r>
       <r>   -1.3556    1.0000 </r>
       <r>   -1.3316    1.0000 </r>
       <r>   -1.2486    1.0000 </r>
       <r>   -1.2367    1.0000 </r>
       <r>   -1.0279    1.0000 </r>
       <r>   -0.9713    1.0000 </r>
       <r>   -0.9393    1.0000 </r>
       <r>   -0.9357    1.0000 </r>
       <r>   -0.8900    1.0000 </r>
       <r>   -0.8694    1.0000 </r>
       <r>   -0.8582    1.0000 </r>
       <r>   -0.8033    1.0000 </r>
       <r>   -0.7962    1.0000 </r>
       <r>   -0.7530    1.0000 </r>
       <r>   -0.7381    1.0000 </r>
       <r>   -0.7249    1.0000 </r>
       <r>   -0.6818    1.0000 </r>
       <r>   -0.6725    1.0000 </r>
       <r>   -0.6510    1.0000 </r>
       <r>   -0.6435    1.0000 </r>
       <r>   -0.6208    1.0000 </r>
       <r>   -0.6062    1.0000 </r>
       <r>   -0.6008    1.0000 </r>
       <r>   -0.5613    1.0000 </r>
       <r>   -0.5320    1.0000 </r>
       <r>   -0.5112    1.0000 </r>
       <r>   -0.4148    1.0000 </r>
       <r>   -0.3375    1.0000 </r>
       <r>   -0.0096    1.0000 </r>
       <r>    0.0033    1.0000 </r>
       <r>    0.0530    1.0000 </r>
       <r>    0.0958    1.0000 </r>
       <r>    0.1286    1.0000 </r>
       <r>    0.1461    1.0000 </r>
       <r>    0.2220    1.0000 </r>
       <r>    0.2415    1.0000 </r>
       <r>    0.2611    1.0000 </r>
       <r>    0.3034    1.0000 </r>
       <r>    0.3605    1.0000 </r>
       <r>    0.3889    1.0000 </r>
       <r>    1.4297    1.0000 </r>
       <r>    1.4725    1.0000 </r>
       <r>    1.5089    1.0000 </r>
       <r>    1.5518    1.0000 </r>
       <r>    1.5608    1.0000 </r>
       <r>    1.5883    1.0000 </r>
       <r>    1.6097    1.0000 </r>
       <r>    1.6385    1.0000 </r>
       <r>    1.6511    1.0000 </r>
       <r>    1.6602    1.0000 </r>
       <r>    1.6716    1.0000 </r>
       <r>    1.6951    1.0000 </r>
       <r>    1.7177    1.0000 </r>
       <r>    1.7244    1.0000 </r>
       <r>    1.7396    1.0000 </r>
       <r>    1.7429    1.0000 </r>
       <r>    1.7757    1.0000 </r>
       <r>    1.8034    1.0000 </r>
       <r>    1.8167    1.0000 </r>
       <r>    1.8283    1.0000 </r>
       <r>    1.8335    1.0000 </r>
       <r>    1.8472    1.0000 </r>
       <r>    1.8673    1.0000 </r>
       <r>    1.8743    1.0000 </r>
       <r>    1.8892    1.0000 </r>
       <r>    1.8983    1.0000 </r>
       <r>    1.9134    1.0000 </r>
       <r>    1.9234    1.0000 </r>
       <r>    1.9409    1.0000 </r>
       <r>    1.9563    1.0000 </r>
       <r>    1.9676    1.0000 </r>
       <r>    1.9897    1.0000 </r>
       <r>    1.9961    1.0000 </r>
       <r>    2.0046    1.0000 </r>
       <r>    2.0224    1.0000 </r>
       <r>    2.0396    1.0000 </r>
       <r>    2.0424    1.0000 </r>
       <r>    2.0606    1.0000 </r>
       <r>    2.0689    1.0000 </r>
       <r>    2.0830    1.0000 </r>
       <r>    2.0965    1.0000 </r>
       <r>    2.1142    1.0000 </r>
       <r>    2.1322    1.0000 </r>
       <r>    2.1380    1.0000 </r>
       <r>    2.1573    1.0000 </r>
       <r>    2.1850    1.0000 </r>
       <r>    2.1919    1.0000 </r>
       <r>    2.1928    1.0000 </r>
       <r>    2.2184    1.0000 </r>
       <r>    2.2410    1.0000 </r>
       <r>    2.2490    1.0000 </r>
       <r>    2.2620    1.0000 </r>
       <r>    2.2715    1.0000 </r>
       <r>    2.3044    1.0000 </r>
       <r>    2.3064    1.0000 </r>
       <r>    2.3292    1.0000 </r>
       <r>    2.3481    1.0000 </r>
       <r>    2.3615    1.0000 </r>
       <r>    2.3823    1.0000 </r>
       <r>    2.3910    1.0000 </r>
       <r>    2.4145    1.0000 </r>
       <r>    2.4926    1.0000 </r>
       <r>    2.7594    1.0000 </r>
       <r>    2.8083    1.0000 </r>
       <r>    2.8161    1.0000 </r>
       <r>    2.8381    1.0000 </r>
       <r>    2.8619    1.0000 </r>
       <r>    2.8816    1.0000 </r>
       <r>    3.1793    1.0000 </r>
       <r>    3.2247    1.0000 </r>
       <r>    3.2538    1.0000 </r>
       <r>    3.2928    1.0000 </r>
       <r>    3.3173    1.0000 </r>
       <r>    3.3327    1.0000 </r>
       <r>    3.3438    1.0000 </r>
       <r>    3.3517    1.0000 </r>
       <r>    3.3692    1.0000 </r>
       <r>    3.3946    1.0000 </r>
       <r>    3.4074    1.0000 </r>
       <r>    3.4149    1.0000 </r>
       <r>    3.4283    1.0000 </r>
       <r>    3.4414    1.0000 </r>
       <r>    3.4676    1.0000 </r>
       <r>    3.4821    1.0000 </r>
       <r>    3.4950    1.0000 </r>
       <r>    3.5220    1.0000 </r>
       <r>    3.5454    1.0000 </r>
       <r>    3.5581    1.0000 </r>
       <r>    3.5671    1.0000 </r>
       <r>    3.5802    1.0000 </r>
       <r>    3.5912    1.0000 </r>
       <r>    3.6365    1.0000 </r>
       <r>    3.6787    1.0000 </r>
       <r>    3.6837    1.0000 </r>
       <r>    3.7118    1.0000 </r>
       <r>    3.7353    1.0000 </r>
       <r>    3.7491    1.0000 </r>
       <r>    3.7777    1.0000 </r>
       <r>    3.8099    1.0000 </r>
       <r>    3.8764    1.0000 </r>
       <r>    3.9011    1.0000 </r>
       <r>    3.9114    1.0000 </r>
       <r>    3.9252    1.0000 </r>
       <r>    3.9773    1.0000 </r>
       <r>    4.1302    1.0000 </r>
       <r>    4.1625    1.0000 </r>
       <r>    4.1945    1.0000 </r>
       <r>    4.2416    1.0000 </r>
       <r>    4.2635    1.0000 </r>
       <r>    4.2822    1.0000 </r>
       <r>    4.2999    1.0000 </r>
       <r>    4.3099    1.0000 </r>
       <r>    4.3607    1.0000 </r>
       <r>    4.3825    1.0000 </r>
       <r>    4.3849    1.0000 </r>
       <r>    4.3938    1.0000 </r>
       <r>    4.4454    1.0000 </r>
       <r>    4.4543    1.0000 </r>
       <r>    4.5256    1.0000 </r>
       <r>    4.5381    1.0000 </r>
       <r>    4.5468    1.0000 </r>
       <r>    4.5794    1.0000 </r>
       <r>    4.6108    1.0000 </r>
       <r>    4.6246    1.0000 </r>
       <r>    4.7272    1.0000 </r>
       <r>    4.7777    1.0000 </r>
       <r>    4.8073    1.0000 </r>
       <r>    4.8619    1.0000 </r>
       <r>    4.8804    1.0000 </r>
       <r>    4.9036    1.0000 </r>
       <r>    4.9381    1.0000 </r>
       <r>    4.9683    1.0000 </r>
       <r>    4.9936    1.0000 </r>
       <r>    5.0158    1.0000 </r>
       <r>    5.0491    1.0000 </r>
       <r>    5.0637    1.0000 </r>
       <r>    5.1019    1.0000 </r>
       <r>    5.1147    1.0000 </r>
       <r>    5.2353    1.0000 </r>
       <r>    5.2951    1.0000 </r>
       <r>    5.6932    1.0000 </r>
       <r>    5.7576    1.0000 </r>
       <r>    5.8396    1.0000 </r>
       <r>    6.1354    0.0000 </r>
       <r>    6.1879    0.0000 </r>
       <r>    6.2796    0.0000 </r>
       <r>    6.2811    0.0000 </r>
       <r>    6.3162    0.0000 </r>
       <r>    6.3467    0.0000 </r>
       <r>    6.5198    0.0000 </r>
       <r>    6.5529    0.0000 </r>
       <r>    6.5877    0.0000 </r>
       <r>    6.6109    0.0000 </r>
       <r>    6.6771    0.0000 </r>
       <r>    6.6954    0.0000 </r>
       <r>    6.7974    0.0000 </r>
       <r>    6.8583    0.0000 </r>
       <r>    6.8605    0.0000 </r>
       <r>    6.8664    0.0000 </r>
       <r>    6.8971    0.0000 </r>
       <r>    6.9259    0.0000 </r>
       <r>    6.9373    0.0000 </r>
       <r>    6.9421    0.0000 </r>
       <r>    6.9688    0.0000 </r>
       <r>    6.9724    0.0000 </r>
       <r>    7.0112    0.0000 </r>
       <r>    7.0266    0.0000 </r>
       <r>    7.0486    0.0000 </r>
       <r>    7.0551    0.0000 </r>
       <r>    7.0630    0.0000 </r>
       <r>    7.0806    0.0000 </r>
       <r>    7.1058    0.0000 </r>
       <r>    7.1356    0.0000 </r>
       <r>    7.1495    0.0000 </r>
       <r>    7.1660    0.0000 </r>
       <r>    7.2010    0.0000 </r>
       <r>    7.2233    0.0000 </r>
       <r>    7.2408    0.0000 </r>
       <r>    7.2545    0.0000 </r>
       <r>    7.2604    0.0000 </r>
       <r>    7.2762    0.0000 </r>
       <r>    7.3080    0.0000 </r>
       <r>    7.3373    0.0000 </r>
       <r>    7.4388    0.0000 </r>
       <r>    7.4683    0.0000 </r>
       <r>    7.4927    0.0000 </r>
       <r>    7.4998    0.0000 </r>
       <r>    7.5272    0.0000 </r>
       <r>    7.5809    0.0000 </r>
       <r>    7.5967    0.0000 </r>
       <r>    7.6170    0.0000 </r>
       <r>    7.8151    0.0000 </r>
       <r>    7.8478    0.0000 </r>
       <r>    7.8536    0.0000 </r>
       <r>    7.8741    0.0000 </r>
       <r>    7.9057    0.0000 </r>
       <r>    7.9630    0.0000 </r>
       <r>    7.9890    0.0000 </r>
       <r>    8.0116    0.0000 </r>
       <r>    8.0689    0.0000 </r>
       <r>    8.0820    0.0000 </r>
       <r>    8.0922    0.0000 </r>
       <r>    8.1278    0.0000 </r>
       <r>    8.1464    0.0000 </r>
       <r>    8.1801    0.0000 </r>
       <r>    8.2427    0.0000 </r>
       <r>    8.5048    0.0000 </r>
       <r>    8.5279    0.0000 </r>
       <r>    8.5987    0.0000 </r>
      </set>
      <set comment="kpoint 2">
       <r>   -6.0987    1.0000 </r>
       <r>   -6.0963    1.0000 </r>
       <r>   -5.7315    1.0000 </r>
       <r>   -5.6435    1.0000 </r>
       <r>   -5.5850    1.0000 </r>
       <r>   -5.5372    1.0000 </r>
       <r>   -5.4847    1.0000 </r>
       <r>   -5.4669    1.0000 </r>
       <r>   -5.2803    1.0000 </r>
       <r>   -5.1293    1.0000 </r>
       <r>   -5.1174    1.0000 </r>
       <r>   -5.0069    1.0000 </r>
       <r>   -4.9717    1.0000 </r>
       <r>   -4.9657    1.0000 </r>
       <r>   -4.7802    1.0000 </r>
[...]
       <r>    -3.1033    38.1263   100.6886 </r>
       <r>    -3.0488    52.3705   103.5475 </r>
       <r>    -2.9942    51.6097   106.3649 </r>
       <r>    -2.9396    40.2405   108.5616 </r>
       <r>    -2.8850    28.7288   110.1299 </r>
       <r>    -2.8304    39.3970   112.2805 </r>
       <r>    -2.7758    25.3375   113.6637 </r>
       <r>    -2.7212    40.2711   115.8621 </r>
       <r>    -2.6666    27.2825   117.3514 </r>
       <r>    -2.6120    46.1907   119.8729 </r>
       <r>    -2.5574    24.0793   121.1874 </r>
       <r>    -2.5029    22.6376   122.4232 </r>
       <r>    -2.4483     5.9859   122.7500 </r>
       <r>    -2.3937     0.0000   122.7500 </r>
       <r>    -2.3391     3.2361   122.9267 </r>
       <r>    -2.2845     6.6440   123.2893 </r>
       <r>    -2.2299     9.0170   123.7816 </r>
       <r>    -2.1753    34.9311   125.6885 </r>
       <r>    -2.1207    28.6341   127.2516 </r>
       <r>    -2.0661    29.6258   128.8688 </r>
       <r>    -2.0116    32.6200   130.6496 </r>
       <r>    -1.9570    18.3053   131.6488 </r>
       <r>    -1.9024    11.2883   132.2651 </r>
       <r>    -1.8478    10.9796   132.8645 </r>
       <r>    -1.7932     5.9735   133.1906 </r>
       <r>    -1.7386     1.0887   133.2500 </r>
       <r>    -1.6840     2.9045   133.4086 </r>
       <r>    -1.6294    20.2671   134.5149 </r>
       <r>    -1.5748    30.7410   136.1931 </r>
       <r>    -1.5202    32.0596   137.9432 </r>
       <r>    -1.4657    30.6927   139.6187 </r>
       <r>    -1.4111    47.5007   142.2118 </r>
       <r>    -1.3565    43.0989   144.5645 </r>
       <r>    -1.3019    40.3726   146.7685 </r>
       <r>    -1.2473    69.0253   150.5365 </r>
       <r>    -1.1927    61.5088   153.8943 </r>
       <r>    -1.1381    59.7962   157.1586 </r>
       <r>    -1.0835    71.5947   161.0669 </r>
       <r>    -1.0289    63.7625   164.5477 </r>
       <r>    -0.9744    70.6711   168.4056 </r>
       <r>    -0.9198    70.0029   172.2271 </r>
       <r>    -0.8652    68.8307   175.9845 </r>
       <r>    -0.8106    38.5235   178.0875 </r>
       <r>    -0.7560    46.9099   180.6483 </r>
       <r>    -0.7014    60.5358   183.9529 </r>
       <r>    -0.6468    36.1672   185.9273 </r>
       <r>    -0.5922    40.9303   188.1616 </r>
       <r>    -0.5376    29.0107   189.7454 </r>
       <r>    -0.4830    18.6026   190.7609 </r>
       <r>    -0.4285     5.0698   191.0376 </r>
       <r>    -0.3739    43.8613   193.4320 </r>
       <r>    -0.3193    41.2300   195.6828 </r>
       <r>    -0.2647    64.1290   199.1836 </r>
       <r>    -0.2101    48.3489   201.8229 </r>
       <r>    -0.1555    51.8489   204.6534 </r>
       <r>    -0.1009    27.8260   206.1724 </r>
       <r>    -0.0463    54.8304   209.1656 </r>
       <r>     0.0083    50.9727   211.9481 </r>
       <r>     0.0628    21.0199   213.0956 </r>
       <r>     0.1174    12.0692   213.7545 </r>
       <r>     0.1720     9.0764   214.2500 </r>
       <r>     0.2266     3.5524   214.4439 </r>
       <r>     0.2812    21.1818   215.6002 </r>
       <r>     0.3358    21.3917   216.7680 </r>
       <r>     0.3904    30.9385   218.4569 </r>
       <r>     0.4450    20.6333   219.5833 </r>
       <r>     0.4996    30.8428   221.2670 </r>
       <r>     0.5542    18.0734   222.2536 </r>
       <r>     0.6087    22.7374   223.4948 </r>
       <r>     0.6633    27.4506   224.9933 </r>
       <r>     0.7179     9.1806   225.4945 </r>
       <r>     0.7725    28.0322   227.0248 </r>
       <r>     0.8271    13.2843   227.7500 </r>
       <r>     0.8817     6.1778   228.0872 </r>
       <r>     0.9363    13.8906   228.8455 </r>
       <r>     0.9909    19.5295   229.9116 </r>
       <r>     1.0455    31.7392   231.6443 </r>
       <r>     1.1000    20.7376   232.7763 </r>
       <r>     1.1546    36.2496   234.7552 </r>
       <r>     1.2092    18.4929   235.7647 </r>
       <r>     1.2638    26.4843   237.2105 </r>
       <r>     1.3184    27.5593   238.7149 </r>
       <r>     1.3730    25.2778   240.0948 </r>
       <r>     1.4276    41.6434   242.3681 </r>
       <r>     1.4822    76.0161   246.5178 </r>
       <r>     1.5368    83.9185   251.0990 </r>
       <r>     1.5914    95.2790   256.3002 </r>
       <r>     1.6459    85.3833   260.9613 </r>
       <r>     1.7005    69.6601   264.7641 </r>
       <r>     1.7551    68.4026   268.4982 </r>
       <r>     1.8097    34.3936   270.3757 </r>
       <r>     1.8643    35.7717   272.3285 </r>
       <r>     1.9189    21.6620   273.5110 </r>
       <r>     1.9735    17.2024   274.4500 </r>
       <r>     2.0281    30.7320   276.1277 </r>
       <r>     2.0827    67.6870   279.8227 </r>
       <r>     2.1372    86.7901   284.5605 </r>
       <r>     2.1918   107.4743   290.4275 </r>
       <r>     2.2464   140.6923   298.1079 </r>
       <r>     2.3010   122.4294   304.7913 </r>
       <r>     2.3556   117.6811   311.2154 </r>
       <r>     2.4102    97.2483   316.5242 </r>
       <r>     2.4648    71.1600   320.4088 </r>
       <r>     2.5194    47.8861   323.0229 </r>
       <r>     2.5740    27.5634   324.5276 </r>
       <r>     2.6286    43.1307   326.8821 </r>
       <r>     2.6831    55.3945   329.9060 </r>
       <r>     2.7377    78.6126   334.1975 </r>
       <r>     2.7923   107.4917   340.0654 </r>
       <r>     2.8469    86.2604   344.7744 </r>
       <r>     2.9015    89.9144   349.6828 </r>
       <r>     2.9561   104.6640   355.3963 </r>
       <r>     3.0107    86.1225   360.0977 </r>
       <r>     3.0653   114.1522   366.3293 </r>
       <r>     3.1199    80.7511   370.7375 </r>
       <r>     3.1744    56.5363   373.8238 </r>
       <r>     3.2290    85.3692   378.4841 </r>
       <r>     3.2836    88.7944   383.3314 </r>
       <r>     3.3382    97.4269   388.6498 </r>
       <r>     3.3928   113.2082   394.8298 </r>
       <r>     3.4474    78.8743   399.1355 </r>
       <r>     3.5020    79.1057   403.4539 </r>
       <r>     3.5566    90.2336   408.3797 </r>
       <r>     3.6112    81.0531   412.8044 </r>
       <r>     3.6658    77.7944   417.0512 </r>
       <r>     3.7203    61.3752   420.4017 </r>
       <r>     3.7749    91.2839   425.3848 </r>
       <r>     3.8295    94.1969   430.5270 </r>
       <r>     3.8841    73.5693   434.5431 </r>
       <r>     3.9387    83.5844   439.1060 </r>
       <r>     3.9933    64.1828   442.6098 </r>
       <r>     4.0479    61.7082   445.9784 </r>
       <r>     4.1025    65.7628   449.5684 </r>
       <r>     4.1571    59.8454   452.8353 </r>
       <r>     4.2116    89.0353   457.6957 </r>
       <r>     4.2662    46.7700   460.2489 </r>
       <r>     4.3208    81.3388   464.6891 </r>
       <r>     4.3754    78.5334   468.9762 </r>
       <r>     4.4300    84.1262   473.5687 </r>
       <r>     4.4846    65.6546   477.1527 </r>
       <r>     4.5392    70.9958   481.0284 </r>
       <r>     4.5938    57.2481   484.1535 </r>
       <r>     4.6484    50.8470   486.9292 </r>
       <r>     4.7030    38.3419   489.0223 </r>
       <r>     4.7575    24.8934   490.3812 </r>
       <r>     4.8121    31.1552   492.0820 </r>
       <r>     4.8667    19.6046   493.1522 </r>
       <r>     4.9213    55.2632   496.1690 </r>
       <r>     4.9759    45.9145   498.6755 </r>
       <r>     5.0305    41.4868   500.9402 </r>
       <r>     5.0851    28.2668   502.4833 </r>
       <r>     5.1397    13.8076   503.2371 </r>
       <r>     5.1943     7.8899   503.6678 </r>
       <r>     5.2488     5.9598   503.9931 </r>
       <r>     5.3034     4.1656   504.2205 </r>
       <r>     5.3580    18.9150   505.2531 </r>
       <r>     5.4126    23.7973   506.5521 </r>
       <r>     5.4672    21.7382   507.7388 </r>
       <r>     5.5218    27.0194   509.2138 </r>
       <r>     5.5764    22.2711   510.4296 </r>
       <r>     5.6310    10.5069   511.0031 </r>
       <r>     5.6856     5.1679   511.2852 </r>
       <r>     5.7402     3.9649   511.5017 </r>
       <r>     5.7947     4.5488   511.7500 </r>
       <r>     5.8493     4.1906   511.9788 </r>
       <r>     5.9039     0.3891   512.0000 </r>
       <r>     5.9585     0.0000   512.0000 </r>
       <r>     6.0131     0.0000   512.0000 </r>
       <r>     6.0677     0.0000   512.0000 </r>
       <r>     6.1223     1.0366   512.0566 </r>
       <r>     6.1769    14.0950   512.8260 </r>
       <r>     6.2315    21.5039   513.9999 </r>
       <r>     6.2860    12.9665   514.7078 </r>
       <r>     6.3406    15.1519   515.5349 </r>
       <r>     6.3952    22.4530   516.7606 </r>
       <r>     6.4498    28.3321   518.3073 </r>
       <r>     6.5044    30.0520   519.9478 </r>
       <r>     6.5590    21.7628   521.1358 </r>
       <r>     6.6136    14.4214   521.9231 </r>
       <r>     6.6682    11.0565   522.5267 </r>
       <r>     6.7228    30.1306   524.1715 </r>
       <r>     6.7774    40.6435   526.3902 </r>
       <r>     6.8319    34.8919   528.2950 </r>
       <r>     6.8865    29.9580   529.9304 </r>
       <r>     6.9411    30.2330   531.5808 </r>
       <r>     6.9957    39.6121   533.7432 </r>
       <r>     7.0503    45.8630   536.2469 </r>
       <r>     7.1049    39.1018   538.3814 </r>
       <r>     7.1595    26.7847   539.8436 </r>
       <r>     7.2141    27.5506   541.3476 </r>
       <r>     7.2687    57.8085   544.5033 </r>
       <r>     7.3232    73.2317   548.5010 </r>
       <r>     7.3778    75.3720   552.6155 </r>
       <r>     7.4324    70.1556   556.4453 </r>
       <r>     7.4870   102.8182   562.0581 </r>
       <r>     7.5416    84.8500   566.6900 </r>
       <r>     7.5962    88.8716   571.5415 </r>
       <r>     7.6508    87.6298   576.3252 </r>
       <r>     7.7054    82.6940   580.8395 </r>
       <r>     7.7600    85.9988   585.5341 </r>
       <r>     7.8146    79.5572   589.8771 </r>
       <r>     7.8691   107.4943   595.7452 </r>
       <r>     7.9237    86.2632   600.4542 </r>
       <r>     7.9783   102.8611   606.0694 </r>
       <r>     8.0329    79.9377   610.4331 </r>
       <r>     8.0875    91.0883   615.4056 </r>
       <r>     8.1421    68.7646   619.1595 </r>
       <r>     8.1967    87.9246   623.9593 </r>
       <r>     8.2513    88.3752   628.7836 </r>
       <r>     8.3059    83.4749   633.3405 </r>
       <r>     8.3604    77.7464   637.5847 </r>
       <r>     8.4150    74.5591   641.6548 </r>
       <r>     8.4696    28.0240   643.1847 </r>
       <r>     8.5242     7.1459   643.5748 </r>
       <r>     8.5788     3.2215   643.7506 </r>
       <r>     8.6334     4.5682   644.0000 </r>
       <r>     8.6880     0.0000   644.0000 </r>
       <r>     8.7426     0.0000   644.0000 </r>
       <r>     8.7972     0.0000   644.0000 </r>
       <r>     8.8518     0.0000   644.0000 </r>
       <r>     8.9063     0.0000   644.0000 </r>
       <r>     8.9609     0.0000   644.0000 </r>
       <r>     9.0155     0.0000   644.0000 </r>
       <r>     9.0701     0.0000   644.0000 </r>
       <r>     9.1247     0.0000   644.0000 </r>
       <r>     9.1793     0.0000   644.0000 </r>
       <r>     9.2339     0.0000   644.0000 </r>
       <r>     9.2885     0.0000   644.0000 </r>
       <r>     9.3431     0.0000   644.0000 </r>
      </set>
     </set>
    </array>
   </total>
  </dos>
 </calculation>
 <structure name="finalpos" >
  <crystal>
   <varray name="basis" >
    <v>       0.00000000      10.93733369      10.93733369 </v>
    <v>      10.93733369       0.00000000      10.93733369 </v>
    <v>      10.93733369      10.93733369       0.00000000 </v>
   </varray>
   <i name="volume">   2616.76295363 </i>
   <varray name="rec_basis" >
    <v>      -0.04571498       0.04571498       0.04571498 </v>
    <v>       0.04571498      -0.04571498       0.04571498 </v>
    <v>       0.04571498       0.04571498      -0.04571498 </v>
   </varray>
  </crystal>
  <varray name="positions" >
   <v>       0.00430276       0.01178188       0.00135022 </v>
   <v>       0.26427266       0.99466713       0.99868802 </v>
   <v>       0.50649842       0.00522996       0.99104188 </v>
   <v>       0.75011214       0.99665166       0.00721496 </v>
   <v>       0.00851729       0.24971568       0.99472115 </v>
   <v>       0.24551885       0.24393214       0.00622746 </v>
   <v>       0.50430879       0.25929774       0.99765979 </v>
   <v>       0.75348867       0.24453310       0.99756658 </v>
   <v>       0.00170628       0.49888992       0.99840921 </v>
   <v>       0.25528521       0.50807470       0.99352887 </v>
   <v>       0.49466640       0.51082024       0.00035380 </v>
   <v>       0.75048402       0.49860020       0.00300778 </v>
   <v>       0.99761899       0.76072986       0.99743559 </v>
   <v>       0.24658901       0.76785040       0.98740061 </v>
   <v>       0.50434945       0.74891854       0.99665515 </v>
   <v>       0.74994320       0.74824096       0.99904844 </v>
   <v>       0.00580701       0.99817191       0.25165652 </v>
   <v>       0.24167069       0.01085990       0.23917058 </v>
   <v>       0.50213786       0.00387577       0.24501370 </v>
   <v>       0.74741167       0.00224932       0.25056756 </v>
   <v>       0.00680783       0.24573704       0.24941572 </v>
   <v>       0.25695788       0.25169735       0.24809330 </v>
   <v>       0.49870135       0.24927753       0.25697255 </v>
   <v>       0.74898622       0.24741163       0.24995354 </v>
   <v>       0.98693659       0.49405792       0.26361152 </v>
   <v>       0.24303895       0.48761435       0.25035863 </v>
   <v>       0.50204493       0.49587339       0.24468473 </v>
   <v>       0.73920630       0.49646239       0.24516395 </v>
   <v>       0.99427651       0.74394113       0.25490912 </v>
   <v>       0.25586602       0.75299245       0.24990643 </v>
   <v>       0.49561143       0.75042228       0.24902734 </v>
   <v>       0.75287263       0.74945803       0.25547524 </v>
   <v>       0.00458445       0.00859603       0.50639975 </v>
   <v>       0.25011809       0.99581262       0.50755284 </v>
   <v>       0.50733513       0.00003855       0.49934586 </v>
   <v>       0.75135334       0.00038336       0.49632625 </v>
   <v>       0.00256115       0.24871807       0.49716803 </v>
   <v>       0.23985975       0.24873940       0.50441363 </v>
   <v>       0.49989278       0.26201624       0.48758965 </v>
   <v>       0.74249841       0.25476783       0.48302655 </v>
   <v>       0.99524522       0.49738912       0.51254897 </v>
   <v>       0.24385615       0.49995776       0.50135492 </v>
   <v>       0.49870647       0.49928503       0.49116389 </v>
   <v>       0.75224001       0.49715039       0.49637983 </v>
   <v>       0.99136546       0.75348739       0.49818529 </v>
   <v>       0.24213036       0.76297616       0.50404194 </v>
   <v>       0.49188949       0.74107970       0.50301137 </v>
   <v>       0.75580306       0.74635374       0.49923665 </v>
   <v>       0.99010463       0.99875900       0.75606928 </v>
   <v>       0.25063381       0.99804769       0.75395031 </v>
   <v>       0.50714197       0.99819937       0.75494869 </v>
   <v>       0.75870926       0.99162043       0.74088422 </v>
   <v>       0.00299560       0.26836901       0.73481410 </v>
   <v>       0.24395929       0.25657095       0.75145112 </v>
   <v>       0.49515387       0.25518023       0.75468780 </v>
   <v>       0.75040718       0.25061890       0.74982934 </v>
   <v>       0.00608778       0.49242900       0.74568756 </v>
   <v>       0.24914306       0.49961775       0.75067535 </v>
   <v>       0.49984969       0.50031759       0.74937502 </v>
   <v>       0.75054677       0.50851516       0.74340750 </v>
   <v>       0.99783772       0.74748041       0.75302043 </v>
   <v>       0.25773721       0.75333572       0.74134079 </v>
   <v>       0.49398013       0.75239410       0.75336849 </v>
   <v>       0.74759991       0.75680431       0.75089086 </v>
   <v>       0.06420206       0.06460146       0.07081452 </v>
   <v>       0.30709191       0.06784785       0.05935807 </v>
   <v>       0.56166623       0.05149685       0.06854860 </v>
   <v>       0.81694476       0.06258337       0.06127168 </v>
   <v>       0.05943664       0.31734367       0.06133293 </v>
   <v>       0.31511931       0.30660289       0.06048248 </v>
   <v>       0.56232428       0.30792799       0.05931527 </v>
   <v>       0.82050151       0.29915884       0.05908052 </v>
   <v>       0.05077137       0.57779037       0.05029034 </v>
   <v>       0.31400848       0.55709535       0.06648247 </v>
   <v>       0.56231776       0.56970316       0.05496964 </v>
   <v>       0.82624661       0.56074798       0.05379906 </v>
   <v>       0.07358565       0.82210522       0.05811131 </v>
   <v>       0.29108333       0.82317836       0.06212082 </v>
   <v>       0.56390509       0.81116991       0.06479914 </v>
   <v>       0.81585177       0.81219223       0.05566985 </v>
   <v>       0.06735053       0.06712644       0.31184087 </v>
   <v>       0.31932135       0.06115361       0.29850653 </v>
   <v>       0.54757836       0.05168450       0.32749746 </v>
   <v>       0.81229224       0.06659893       0.30668528 </v>
   <v>       0.06639876       0.31670752       0.30605725 </v>
   <v>       0.32233503       0.30390226       0.32954624 </v>
   <v>       0.55480093       0.31268567       0.31277792 </v>
   <v>       0.80205694       0.31866265       0.31069593 </v>
   <v>       0.06231784       0.54603740       0.31965882 </v>
   <v>       0.31137249       0.55743719       0.31137827 </v>
   <v>       0.56047056       0.54747791       0.31258593 </v>
   <v>       0.80031009       0.57248572       0.31231741 </v>
   <v>       0.04956053       0.80092263       0.32340248 </v>
   <v>       0.30598980       0.82897513       0.30662622 </v>
   <v>       0.56223743       0.81030856       0.31399877 </v>
   <v>       0.80442805       0.80727863       0.32358182 </v>
   <v>       0.05907049       0.07038897       0.56379653 </v>
   <v>       0.32148942       0.05817080       0.55921964 </v>
   <v>       0.55532336       0.07077970       0.55955533 </v>
   <v>       0.81050914       0.06065351       0.55896238 </v>
   <v>       0.05636471       0.32644523       0.56505610 </v>
   <v>       0.31524314       0.30924493       0.56967215 </v>
   <v>       0.56233351       0.30107849       0.56834436 </v>
   <v>       0.80978302       0.31449637       0.57242706 </v>
   <v>       0.06280938       0.57505815       0.55752677 </v>
   <v>       0.32328014       0.55501250       0.54950851 </v>
   <v>       0.56602393       0.56347567       0.55554538 </v>
   <v>       0.82017997       0.55910360       0.56793595 </v>
   <v>       0.06114741       0.81236337       0.57322519 </v>
   <v>       0.31187710       0.81654520       0.56407277 </v>
   <v>       0.55506476       0.80579360       0.57041444 </v>
   <v>       0.80579354       0.81581369       0.57074897 </v>
   <v>       0.06275123       0.06643642       0.81622150 </v>
   <v>       0.31417302       0.05866205       0.80870750 </v>
   <v>       0.56530372       0.06258681       0.80865151 </v>
   <v>       0.81390242       0.06559035       0.80302000 </v>
   <v>       0.05910014       0.31420819       0.81535702 </v>
   <v>       0.31969709       0.31034864       0.80763985 </v>
   <v>       0.55627813       0.31789832       0.81358470 </v>
   <v>       0.80411723       0.31550431       0.82010045 </v>
   <v>       0.05484734       0.57056682       0.80745031 </v>
   <v>       0.31628378       0.55863401       0.81375495 </v>
   <v>       0.57058069       0.55864061       0.80484190 </v>
   <v>       0.80781133       0.56878287       0.81363265 </v>
   <v>       0.06760095       0.81816545       0.81781070 </v>
   <v>       0.31155469       0.80952477       0.81168924 </v>
   <v>       0.55295577       0.81717935       0.81247396 </v>
   <v>       0.81799095       0.80692021       0.81319645 </v>
  </varray>
 </structure>
</modeling>
