potpaw_PBE@./ARUN.APL1ZEROSTATE         
           1
     0.000000   10.937334   10.937334
    10.937334    0.000000   10.937334
    10.937334   10.937334    0.000000
   Si
 128
Direct configuration=     1
   0.00430276  0.01178188  0.00135022
   0.26427266  0.99466713  0.99868802
   0.50649842  0.00522996  0.99104188
   0.75011214  0.99665166  0.00721496
   0.00851729  0.24971568  0.99472115
   0.24551885  0.24393214  0.00622746
   0.50430879  0.25929774  0.99765979
   0.75348867  0.24453310  0.99756658
   0.00170628  0.49888992  0.99840921
   0.25528521  0.50807470  0.99352887
   0.49466640  0.51082024  0.00035380
   0.75048402  0.49860020  0.00300778
   0.99761899  0.76072986  0.99743559
   0.24658901  0.76785040  0.98740061
   0.50434945  0.74891854  0.99665515
   0.74994320  0.74824096  0.99904844
   0.00580701  0.99817191  0.25165652
   0.24167069  0.01085990  0.23917058
   0.50213786  0.00387577  0.24501370
   0.74741167  0.00224932  0.25056756
   0.00680783  0.24573704  0.24941572
   0.25695788  0.25169735  0.24809330
   0.49870135  0.24927753  0.25697255
   0.74898622  0.24741163  0.24995354
   0.98693659  0.49405792  0.26361152
   0.24303895  0.48761435  0.25035863
   0.50204493  0.49587339  0.24468473
   0.73920630  0.49646239  0.24516395
   0.99427651  0.74394113  0.25490912
   0.25586602  0.75299245  0.24990643
   0.49561143  0.75042228  0.24902734
   0.75287263  0.74945803  0.25547524
   0.00458445  0.00859603  0.50639975
   0.25011809  0.99581262  0.50755284
   0.50733513  0.00003855  0.49934586
   0.75135334  0.00038336  0.49632625
   0.00256115  0.24871807  0.49716803
   0.23985975  0.24873940  0.50441363
   0.49989278  0.26201624  0.48758965
   0.74249841  0.25476783  0.48302655
   0.99524522  0.49738912  0.51254897
   0.24385615  0.49995776  0.50135492
   0.49870647  0.49928503  0.49116389
   0.75224001  0.49715039  0.49637983
   0.99136546  0.75348739  0.49818529
   0.24213036  0.76297616  0.50404194
   0.49188949  0.74107970  0.50301137
   0.75580306  0.74635374  0.49923665
   0.99010463  0.99875900  0.75606928
   0.25063381  0.99804769  0.75395031
   0.50714197  0.99819937  0.75494869
   0.75870926  0.99162043  0.74088422
   0.00299560  0.26836901  0.73481410
   0.24395929  0.25657095  0.75145112
   0.49515387  0.25518023  0.75468780
   0.75040718  0.25061890  0.74982934
   0.00608778  0.49242900  0.74568756
   0.24914306  0.49961775  0.75067535
   0.49984969  0.50031759  0.74937502
   0.75054677  0.50851516  0.74340750
   0.99783772  0.74748041  0.75302043
   0.25773721  0.75333572  0.74134079
   0.49398013  0.75239410  0.75336849
   0.74759991  0.75680431  0.75089086
   0.06420206  0.06460146  0.07081452
   0.30709191  0.06784785  0.05935807
   0.56166623  0.05149685  0.06854860
   0.81694476  0.06258337  0.06127168
   0.05943664  0.31734367  0.06133293
   0.31511931  0.30660289  0.06048248
   0.56232428  0.30792799  0.05931527
   0.82050151  0.29915884  0.05908052
   0.05077137  0.57779037  0.05029034
   0.31400848  0.55709535  0.06648247
   0.56231776  0.56970316  0.05496964
   0.82624661  0.56074798  0.05379906
   0.07358565  0.82210522  0.05811131
   0.29108333  0.82317836  0.06212082
   0.56390509  0.81116991  0.06479914
   0.81585177  0.81219223  0.05566985
   0.06735053  0.06712644  0.31184087
   0.31932135  0.06115361  0.29850653
   0.54757836  0.05168450  0.32749746
   0.81229224  0.06659893  0.30668528
   0.06639876  0.31670752  0.30605725
   0.32233503  0.30390226  0.32954624
   0.55480093  0.31268567  0.31277792
   0.80205694  0.31866265  0.31069593
   0.06231784  0.54603740  0.31965882
   0.31137249  0.55743719  0.31137827
   0.56047056  0.54747791  0.31258593
   0.80031009  0.57248572  0.31231741
   0.04956053  0.80092263  0.32340248
   0.30598980  0.82897513  0.30662622
   0.56223743  0.81030856  0.31399877
   0.80442805  0.80727863  0.32358182
   0.05907049  0.07038897  0.56379653
   0.32148942  0.05817080  0.55921964
   0.55532336  0.07077970  0.55955533
   0.81050914  0.06065351  0.55896238
   0.05636471  0.32644523  0.56505610
   0.31524314  0.30924493  0.56967215
   0.56233351  0.30107849  0.56834436
   0.80978302  0.31449637  0.57242706
   0.06280938  0.57505815  0.55752677
   0.32328014  0.55501250  0.54950851
   0.56602393  0.56347567  0.55554538
   0.82017997  0.55910360  0.56793595
   0.06114741  0.81236337  0.57322519
   0.31187710  0.81654520  0.56407277
   0.55506476  0.80579360  0.57041444
   0.80579354  0.81581369  0.57074897
   0.06275123  0.06643642  0.81622150
   0.31417302  0.05866205  0.80870750
   0.56530372  0.06258681  0.80865151
   0.81390242  0.06559035  0.80302000
   0.05910014  0.31420819  0.81535702
   0.31969709  0.31034864  0.80763985
   0.55627813  0.31789832  0.81358470
   0.80411723  0.31550431  0.82010045
   0.05484734  0.57056682  0.80745031
   0.31628378  0.55863401  0.81375495
   0.57058069  0.55864061  0.80484190
   0.80781133  0.56878287  0.81363265
   0.06760095  0.81816545  0.81781070
   0.31155469  0.80952477  0.81168924
   0.55295577  0.81717935  0.81247396
   0.81799095  0.80692021  0.81319645
