 128 128   0   0
  0.2044346E+02  0.1546773E-08  0.1546773E-08  0.1546773E-08  0.5000000E-15
  1.000000000000000E-004
  CAR 
 potpaw_PBE@./ARUN.APL1ZEROSTATE         
      9.34957801     -7.04774411  301      5.86514706      1.00000000
     -7.048  0.0000E+00  0.0000E+00
     -6.993  0.0000E+00  0.0000E+00
     -6.938  0.0000E+00  0.0000E+00
     -6.884  0.0000E+00  0.0000E+00
     -6.829  0.0000E+00  0.0000E+00
     -6.774  0.0000E+00  0.0000E+00
     -6.720  0.0000E+00  0.0000E+00
     -6.665  0.0000E+00  0.0000E+00
     -6.610  0.0000E+00  0.0000E+00
     -6.556  0.0000E+00  0.0000E+00
     -6.501  0.0000E+00  0.0000E+00
     -6.447  0.0000E+00  0.0000E+00
     -6.392  0.0000E+00  0.0000E+00
     -6.337  0.1990E-05  0.1088E-06
     -6.283  0.4563E+01  0.2494E+00
     -6.228  0.1130E-01  0.2500E+00
     -6.173  0.4457E-01  0.2524E+00
     -6.119  0.1812E+02  0.1243E+01
     -6.064  0.2950E+02  0.2855E+01
     -6.009  0.1522E+02  0.3687E+01
     -5.955  0.1150E+01  0.3750E+01
     -5.900  0.1021E-01  0.3751E+01
     -5.845  0.1352E+02  0.4489E+01
     -5.791  0.4833E+01  0.4754E+01
     -5.736  0.2336E+02  0.6031E+01
     -5.681  0.4090E+02  0.8266E+01
     -5.627  0.2647E+02  0.9713E+01
     -5.572  0.2656E+02  0.1116E+02
     -5.517  0.2359E+02  0.1245E+02
     -5.463  0.2250E+02  0.1368E+02
     -5.408  0.1499E+02  0.1450E+02
     -5.353  0.4526E+01  0.1475E+02
     -5.299  0.4567E+01  0.1500E+02
     -5.244  0.5934E+01  0.1532E+02
     -5.189  0.4266E+02  0.1766E+02
     -5.135  0.2619E+02  0.1909E+02
     -5.080  0.4794E+02  0.2171E+02
     -5.025  0.4375E+02  0.2410E+02
     -4.971  0.2907E+02  0.2569E+02
     -4.916  0.3821E+02  0.2778E+02
     -4.861  0.1497E+02  0.2859E+02
     -4.807  0.2576E+02  0.3000E+02
     -4.752  0.2481E+02  0.3136E+02
     -4.697  0.4095E+02  0.3360E+02
     -4.643  0.3125E+02  0.3531E+02
     -4.588  0.3341E+02  0.3713E+02
     -4.533  0.4286E+02  0.3947E+02
     -4.479  0.2909E+02  0.4106E+02
     -4.424  0.1767E+02  0.4203E+02
     -4.370  0.2242E+02  0.4326E+02
     -4.315  0.3104E+02  0.4495E+02
     -4.260  0.4186E+02  0.4724E+02
     -4.206  0.3673E+02  0.4925E+02
     -4.151  0.4924E+02  0.5194E+02
     -4.096  0.6895E+02  0.5571E+02
     -4.042  0.5945E+02  0.5896E+02
     -3.987  0.5160E+02  0.6178E+02
     -3.932  0.5303E+02  0.6468E+02
     -3.878  0.4146E+02  0.6694E+02
     -3.823  0.5148E+02  0.6976E+02
     -3.768  0.5360E+02  0.7269E+02
     -3.714  0.4328E+02  0.7505E+02
     -3.659  0.5072E+02  0.7782E+02
     -3.604  0.3940E+02  0.7998E+02
     -3.550  0.2297E+02  0.8123E+02
     -3.495  0.4583E+02  0.8374E+02
     -3.440  0.4880E+02  0.8640E+02
     -3.386  0.4655E+02  0.8895E+02
     -3.331  0.5716E+02  0.9207E+02
     -3.276  0.3860E+02  0.9418E+02
     -3.222  0.4031E+02  0.9639E+02
     -3.167  0.3365E+02  0.9823E+02
     -3.112  0.4778E+02  0.1008E+03
     -3.058  0.4132E+02  0.1031E+03
     -3.003  0.3624E+02  0.1051E+03
     -2.948  0.4243E+02  0.1074E+03
     -2.894  0.4421E+02  0.1098E+03
     -2.839  0.3444E+02  0.1117E+03
     -2.784  0.3277E+02  0.1135E+03
     -2.730  0.2198E+02  0.1147E+03
     -2.675  0.3159E+02  0.1164E+03
     -2.620  0.4196E+02  0.1187E+03
     -2.566  0.3134E+02  0.1204E+03
     -2.511  0.3173E+02  0.1222E+03
     -2.456  0.7564E+01  0.1226E+03
     -2.402  0.3322E+01  0.1227E+03
     -2.347  0.2555E+01  0.1229E+03
     -2.293  0.6587E+01  0.1232E+03
     -2.238  0.1291E+02  0.1240E+03
     -2.183  0.2007E+02  0.1251E+03
     -2.129  0.2689E+02  0.1265E+03
     -2.074  0.2709E+02  0.1280E+03
     -2.019  0.2929E+02  0.1296E+03
     -1.965  0.2528E+02  0.1310E+03
     -1.910  0.2483E+02  0.1323E+03
     -1.855  0.8296E+01  0.1328E+03
     -1.801  0.8261E+01  0.1332E+03
     -1.746  0.6183E-01  0.1332E+03
     -1.691  0.1516E-01  0.1333E+03
     -1.637  0.1725E+02  0.1342E+03
     -1.582  0.2063E+02  0.1353E+03
     -1.527  0.3893E+02  0.1374E+03
     -1.473  0.2879E+02  0.1390E+03
     -1.418  0.5435E+02  0.1420E+03
     -1.363  0.3358E+02  0.1438E+03
     -1.309  0.4852E+02  0.1465E+03
     -1.254  0.7743E+02  0.1507E+03
     -1.199  0.5770E+02  0.1539E+03
     -1.145  0.6376E+02  0.1574E+03
     -1.090  0.5820E+02  0.1605E+03
     -1.035  0.6775E+02  0.1642E+03
     -0.981  0.6039E+02  0.1675E+03
     -0.926  0.7164E+02  0.1715E+03
     -0.871  0.6922E+02  0.1752E+03
     -0.817  0.5394E+02  0.1782E+03
     -0.762  0.5549E+02  0.1812E+03
     -0.707  0.3063E+02  0.1829E+03
     -0.653  0.5602E+02  0.1860E+03
     -0.598  0.2754E+02  0.1875E+03
     -0.543  0.4129E+02  0.1897E+03
     -0.489  0.1869E+02  0.1907E+03
     -0.434  0.1039E+02  0.1913E+03
     -0.379  0.4270E+02  0.1936E+03
     -0.325  0.3058E+02  0.1953E+03
     -0.270  0.6795E+02  0.1990E+03
     -0.216  0.4751E+02  0.2016E+03
     -0.161  0.5899E+02  0.2048E+03
     -0.106  0.4026E+02  0.2070E+03
     -0.052  0.4503E+02  0.2095E+03
      0.003  0.3627E+02  0.2115E+03
      0.058  0.2876E+02  0.2131E+03
      0.112  0.9985E+01  0.2136E+03
      0.167  0.1471E+02  0.2144E+03
      0.222  0.3519E+01  0.2146E+03
      0.276  0.1909E+02  0.2156E+03
      0.331  0.2014E+02  0.2167E+03
      0.386  0.3844E+02  0.2188E+03
      0.440  0.2780E+02  0.2204E+03
      0.495  0.1424E+02  0.2211E+03
      0.550  0.3184E+02  0.2229E+03
      0.604  0.1248E+02  0.2236E+03
      0.659  0.2379E+02  0.2249E+03
      0.714  0.1884E+02  0.2259E+03
      0.768  0.1935E+02  0.2270E+03
      0.823  0.1454E+02  0.2277E+03
      0.878  0.4554E+01  0.2280E+03
      0.932  0.2109E+02  0.2292E+03
      0.987  0.1298E+02  0.2299E+03
      1.042  0.3457E+02  0.2318E+03
      1.096  0.1806E+02  0.2327E+03
      1.151  0.3653E+02  0.2347E+03
      1.206  0.3071E+02  0.2364E+03
      1.260  0.2230E+02  0.2376E+03
      1.315  0.2780E+02  0.2392E+03
      1.370  0.2958E+02  0.2408E+03
      1.424  0.4362E+02  0.2432E+03
      1.479  0.6113E+02  0.2465E+03
      1.534  0.8006E+02  0.2509E+03
      1.588  0.8960E+02  0.2558E+03
      1.643  0.8856E+02  0.2606E+03
      1.697  0.6848E+02  0.2644E+03
      1.752  0.6159E+02  0.2677E+03
      1.807  0.4113E+02  0.2700E+03
      1.861  0.3875E+02  0.2721E+03
      1.916  0.2742E+02  0.2736E+03
      1.971  0.1433E+02  0.2744E+03
      2.025  0.2687E+02  0.2758E+03
      2.080  0.6485E+02  0.2794E+03
      2.135  0.1105E+03  0.2854E+03
      2.189  0.9863E+02  0.2908E+03
      2.244  0.1326E+03  0.2981E+03
      2.299  0.1165E+03  0.3044E+03
      2.353  0.1153E+03  0.3107E+03
      2.408  0.1008E+03  0.3162E+03
      2.463  0.8168E+02  0.3207E+03
      2.517  0.3613E+02  0.3227E+03
      2.572  0.3144E+02  0.3244E+03
      2.627  0.4201E+02  0.3267E+03
      2.681  0.4433E+02  0.3291E+03
      2.736  0.9408E+02  0.3343E+03
      2.791  0.1022E+03  0.3398E+03
      2.845  0.9546E+02  0.3451E+03
      2.900  0.8229E+02  0.3496E+03
      2.955  0.9541E+02  0.3548E+03
      3.009  0.1015E+03  0.3603E+03
      3.064  0.1050E+03  0.3661E+03
      3.119  0.8756E+02  0.3708E+03
      3.173  0.5587E+02  0.3739E+03
      3.228  0.8265E+02  0.3784E+03
      3.283  0.7424E+02  0.3825E+03
      3.337  0.1101E+03  0.3885E+03
      3.392  0.1022E+03  0.3941E+03
      3.447  0.9573E+02  0.3993E+03
      3.501  0.8679E+02  0.4041E+03
      3.556  0.9521E+02  0.4093E+03
      3.611  0.5934E+02  0.4125E+03
      3.665  0.7912E+02  0.4168E+03
      3.720  0.5448E+02  0.4198E+03
      3.774  0.8691E+02  0.4246E+03
      3.829  0.9455E+02  0.4297E+03
      3.884  0.7409E+02  0.4338E+03
      3.938  0.8466E+02  0.4384E+03
      3.993  0.6204E+02  0.4418E+03
      4.048  0.6282E+02  0.4452E+03
      4.102  0.6953E+02  0.4490E+03
      4.157  0.8518E+02  0.4537E+03
      4.212  0.6612E+02  0.4573E+03
      4.266  0.6843E+02  0.4610E+03
      4.321  0.5885E+02  0.4643E+03
      4.376  0.7611E+02  0.4684E+03
      4.430  0.7431E+02  0.4725E+03
      4.485  0.7964E+02  0.4768E+03
      4.540  0.6311E+02  0.4803E+03
      4.594  0.7463E+02  0.4844E+03
      4.649  0.4981E+02  0.4871E+03
      4.704  0.3912E+02  0.4892E+03
      4.758  0.2477E+02  0.4906E+03
      4.813  0.2607E+02  0.4920E+03
      4.868  0.2668E+02  0.4935E+03
      4.922  0.5334E+02  0.4964E+03
      4.977  0.3779E+02  0.4984E+03
      5.032  0.4149E+02  0.5007E+03
      5.086  0.3478E+02  0.5026E+03
      5.141  0.1806E+02  0.5036E+03
      5.196  0.7509E+01  0.5040E+03
      5.250  0.3845E-02  0.5040E+03
      5.305  0.1302E+02  0.5047E+03
      5.360  0.2130E+02  0.5059E+03
      5.414  0.1424E+02  0.5067E+03
      5.469  0.1840E+02  0.5077E+03
      5.524  0.2240E+02  0.5089E+03
      5.578  0.2438E+02  0.5102E+03
      5.633  0.1236E+02  0.5109E+03
      5.688  0.6540E+01  0.5113E+03
      5.742  0.4571E+01  0.5115E+03
      5.797  0.5821E+01  0.5118E+03
      5.851  0.3329E+01  0.5120E+03
      5.906  0.0000E+00  0.5120E+03
      5.961  0.0000E+00  0.5120E+03
      6.015  0.0000E+00  0.5120E+03
      6.070  0.2086E-03  0.5120E+03
      6.125  0.4574E+01  0.5123E+03
      6.179  0.1673E+02  0.5132E+03
      6.234  0.1930E+02  0.5142E+03
      6.289  0.9729E+01  0.5148E+03
      6.343  0.1876E+02  0.5158E+03
      6.398  0.2939E+02  0.5174E+03
      6.453  0.1499E+02  0.5182E+03
      6.507  0.3478E+02  0.5201E+03
      6.562  0.1100E+02  0.5207E+03
      6.617  0.2264E+02  0.5219E+03
      6.671  0.1449E+02  0.5227E+03
      6.726  0.3187E+02  0.5245E+03
      6.781  0.3425E+02  0.5263E+03
      6.835  0.3424E+02  0.5282E+03
      6.890  0.2808E+02  0.5298E+03
      6.945  0.3728E+02  0.5318E+03
      6.999  0.4026E+02  0.5340E+03
      7.054  0.4676E+02  0.5365E+03
      7.109  0.3254E+02  0.5383E+03
      7.163  0.3116E+02  0.5400E+03
      7.218  0.2778E+02  0.5415E+03
      7.273  0.5610E+02  0.5446E+03
      7.327  0.6859E+02  0.5484E+03
      7.382  0.6068E+02  0.5517E+03
      7.437  0.8238E+02  0.5562E+03
      7.491  0.8175E+02  0.5607E+03
      7.546  0.1049E+03  0.5664E+03
      7.601  0.7877E+02  0.5707E+03
      7.655  0.8262E+02  0.5752E+03
      7.710  0.9216E+02  0.5802E+03
      7.765  0.8864E+02  0.5851E+03
      7.819  0.9434E+02  0.5902E+03
      7.874  0.9668E+02  0.5955E+03
      7.928  0.1062E+03  0.6013E+03
      7.983  0.9309E+02  0.6064E+03
      8.038  0.9355E+02  0.6115E+03
      8.092  0.7488E+02  0.6156E+03
      8.147  0.6113E+02  0.6190E+03
      8.202  0.1013E+03  0.6245E+03
      8.256  0.7499E+02  0.6286E+03
      8.311  0.8574E+02  0.6333E+03
      8.366  0.7529E+02  0.6374E+03
      8.420  0.6718E+02  0.6411E+03
      8.475  0.3710E+02  0.6431E+03
      8.530  0.6839E+01  0.6435E+03
      8.584  0.2357E+01  0.6436E+03
      8.639  0.7161E+01  0.6440E+03
      8.694  0.0000E+00  0.6440E+03
      8.748  0.0000E+00  0.6440E+03
      8.803  0.0000E+00  0.6440E+03
      8.858  0.0000E+00  0.6440E+03
      8.912  0.0000E+00  0.6440E+03
      8.967  0.0000E+00  0.6440E+03
      9.022  0.0000E+00  0.6440E+03
      9.076  0.0000E+00  0.6440E+03
      9.131  0.0000E+00  0.6440E+03
      9.186  0.0000E+00  0.6440E+03
      9.240  0.0000E+00  0.6440E+03
      9.295  0.0000E+00  0.6440E+03
      9.350  0.0000E+00  0.6440E+03
