 vasp.5.4.4.18Apr17-6-g9f103f2a35 (build Nov 08 2017 09:05:29) complex          
  
 executed on          Intel_17.33 date 2020.07.18  23:32:40
 running on   32 total cores
 distrk:  each k-point on   32 cores,    1 groups
 distr:  one band on NCORES_PER_BAND=  16 cores,    2 groups


--------------------------------------------------------------------------------------------------------


 INCAR:
 POTCAR:   PAW_PBE Si 05Jan2001                   

 ----------------------------------------------------------------------------- 
|                                                                             |
|           W    W    AA    RRRRR   N    N  II  N    N   GGGG   !!!           |
|           W    W   A  A   R    R  NN   N  II  NN   N  G    G  !!!           |
|           W    W  A    A  R    R  N N  N  II  N N  N  G       !!!           |
|           W WW W  AAAAAA  RRRRR   N  N N  II  N  N N  G  GGG   !            |
|           WW  WW  A    A  R   R   N   NN  II  N   NN  G    G                |
|           W    W  A    A  R    R  N    N  II  N    N   GGGG   !!!           |
|                                                                             |
|      For optimal performance we recommend to set                            |
|        NCORE= 4 - approx SQRT( number of cores)                             |
|      NCORE specifies how many cores store one orbital (NPAR=cpu/NCORE).     |
|      This setting can  greatly improve the performance of VASP for DFT.     |
|      The default,   NCORE=1            might be grossly inefficient         |
|      on modern multi-core architectures or massively parallel machines.     |
|      Do your own testing !!!!                                               |
|      Unfortunately you need to use the default for GW and RPA calculations. |
|      (for HF NCORE is supported but not extensively tested yet)             |
|                                                                             |
 ----------------------------------------------------------------------------- 

 POTCAR:   PAW_PBE Si 05Jan2001                   
   VRHFIN =Si: s2p2                                                             
   LEXCH  = PE                                                                  
   EATOM  =   103.0669 eV,    7.5752 Ry                                         
                                                                                
   TITEL  = PAW_PBE Si 05Jan2001                                                
   LULTRA =        F    use ultrasoft PP ?                                      
   IUNSCR =        1    unscreen: 0-lin 1-nonlin 2-no                           
   RPACOR =    1.500    partial core radius                                     
   POMASS =   28.085; ZVAL   =    4.000    mass and valenz                      
   RCORE  =    1.900    outmost cutoff radius                                   
   RWIGS  =    2.480; RWIGS  =    1.312    wigner-seitz radius (au A)           
   ENMAX  =  245.345; ENMIN  =  184.009 eV                                      
   ICORE  =        2    local potential                                         
   LCOR   =        T    correct aug charges                                     
   LPAW   =        T    paw PP                                                  
   EAUG   =  322.069                                                            
   DEXC   =    -.007                                                            
   RMAX   =    2.944    core radius for proj-oper                               
   RAUG   =    1.300    factor for augmentation sphere                          
   RDEP   =    1.993    radius for radial grids                                 
   QCUT   =   -4.246; QGAM   =    8.493    optimization parameters              
                                                                                
   Description                                                                  
     l     E      TYP  RCUT    TYP  RCUT                                        
     0   .000     23  1.900                                                     
     0   .000     23  1.900                                                     
     1   .000     23  1.900                                                     
     1   .000     23  1.900                                                     
     2   .000      7  1.900                                                     
  local pseudopotential read in
  partial core-charges read in
  atomic valenz-charges read in
  non local Contribution for L=           0  read in
    real space projection operators read in
  non local Contribution for L=           0  read in
    real space projection operators read in
  non local Contribution for L=           1  read in
    real space projection operators read in
  non local Contribution for L=           1  read in
    real space projection operators read in
    PAW grid and wavefunctions read in
 
   number of l-projection  operators is LMAX  =           4
   number of lm-projection operators is LMMAX =           8
 

 ----------------------------------------------------------------------------- 
|                                                                             |
|  ADVICE TO THIS USER RUNNING 'VASP/VAMP'   (HEAR YOUR MASTER'S VOICE ...):  |
|                                                                             |
|      You have a (more or less) 'large supercell' and for larger cells       |
|      it might be more efficient to use real space projection operators      |
|      So try LREAL= Auto  in the INCAR   file.                               |
|      Mind: If you want to do a very accurate calculations keep the          |
|      reciprocal projection scheme          (i.e. LREAL=.FALSE.)             |
|                                                                             |
 ----------------------------------------------------------------------------- 

 PAW_PBE Si 05Jan2001                   :
 energy of atom  1       EATOM= -103.0669
 kinetic energy error for atom=    0.0006 (will be added to EATOM!!)
 
 
 POSCAR: kk                                      
  positions in direct lattice
  No initial velocities read in
 exchange correlation table for  LEXCH =        8
   RHO(1)=    0.500       N(1)  =     2000
   RHO(2)=  100.500       N(2)  =     4000
 


--------------------------------------------------------------------------------------------------------


 ion  position               nearest neighbor table
   1  0.991  0.003  0.006-  68 2.26 113 2.36  77 2.41  65 2.49
   2  0.248  0.002  0.005-  65 2.23  66 2.38 114 2.43  78 2.49
   3  0.492  0.994  0.010-  79 2.24  66 2.26  67 2.50 115 2.60
   4  0.749  0.998  0.004-  80 2.33  67 2.34 116 2.39  68 2.43
   5  0.996  0.253  0.991-  72 2.16 117 2.21  69 2.45  65 2.52
   6  0.245  0.251  0.004-  66 2.26  69 2.37  70 2.42 118 2.51
   7  0.516  0.243  0.002-  71 2.29  67 2.33 119 2.47  70 2.59
   8  0.739  0.242  0.008-  68 2.19  71 2.27 120 2.44  72 2.61
   9  0.004  0.507  0.994- 121 2.32  73 2.35  76 2.53  69 2.63
  10  0.242  0.509  0.001-  74 2.15  73 2.32 122 2.35  70 2.45
  11  0.492  0.512  0.998-  74 2.31 123 2.33  75 2.36  71 2.57
  12  0.749  0.499  0.997- 124 2.23  75 2.27  72 2.40  76 2.42
  13  0.001  0.740  0.999-  73 2.18 125 2.31  77 2.43  80 2.45
  14  0.262  0.741  0.001-  78 2.36  74 2.41 126 2.42  77 2.51
  15  0.502  0.740  0.011-  78 2.27  75 2.28  79 2.34 127 2.61
  16  0.744  0.768  0.989-  79 2.25 128 2.30  80 2.44  76 2.61
  17  0.010  0.997  0.252-  65 2.29  93 2.32  84 2.36  81 2.45
  18  0.250  0.993  0.246-  81 2.34  94 2.35  66 2.40  82 2.44
  19  0.491  0.012  0.250-  67 2.26  82 2.28  83 2.34  95 2.50
  20  0.746  0.996  0.252-  96 2.25  83 2.31  68 2.42  84 2.55
  21  0.995  0.256  0.247-  69 2.17  88 2.38  85 2.38  81 2.45
  22  0.249  0.254  0.244-  70 2.23  86 2.26  85 2.31  82 2.39
  23  0.500  0.247  0.254-  83 2.23  71 2.30  87 2.33  86 2.33
  24  0.746  0.255  0.247-  88 2.32  87 2.35  84 2.36  72 2.40
  25  0.010  0.496  0.236-  73 2.18  85 2.30  92 2.37  89 2.42
  26  0.242  0.495  0.244-  74 2.32  86 2.35  89 2.40  90 2.46
  27  0.511  0.495  0.245-  91 2.25  87 2.34  75 2.35  90 2.51
  28  0.755  0.497  0.252-  76 2.29  88 2.36  92 2.41  91 2.44
  29  0.992  0.752  0.260-  96 2.27  93 2.28  89 2.52  77 2.57
  30  0.243  0.749  0.251-  93 2.32  78 2.37  90 2.40  94 2.42
  31  0.506  0.765  0.241-  95 2.26  79 2.39  94 2.43  91 2.55
  32  0.746  0.761  0.252-  96 2.28  80 2.28  95 2.32  92 2.59
  33  0.002  0.006  0.505-  97 2.11 100 2.28  81 2.31 109 2.36
  34  0.241  0.993  0.508-  97 2.31 110 2.42  82 2.54  98 2.56
  35  0.499  0.998  0.501- 111 2.22  99 2.39  98 2.39  83 2.48
  36  0.748  0.009  0.502- 100 2.29  99 2.32 112 2.33  84 2.51
  37  0.995  0.247  0.498-  97 2.39 104 2.43  85 2.45 101 2.66
  38  0.243  0.259  0.497-  98 2.37 101 2.45 102 2.48  86 2.49
  39  0.503  0.256  0.500- 103 2.31  87 2.34 102 2.43  99 2.45
  40  0.748  0.246  0.494-  88 2.27 103 2.34 104 2.41 100 2.53
  41  0.992  0.506  0.506- 108 2.23  89 2.30 105 2.30 101 2.33
  42  0.256  0.498  0.502- 106 2.22 102 2.28 105 2.50  90 2.52
  43  0.509  0.493  0.496- 103 2.25 107 2.41  91 2.43 106 2.62
  44  0.747  0.497  0.500- 104 2.30  92 2.32 107 2.35 108 2.41
  45  0.013  0.748  0.498- 105 2.29 109 2.33  93 2.37 112 2.70
  46  0.251  0.749  0.497- 106 2.23  94 2.33 109 2.44 110 2.44
  47  0.503  0.748  0.503- 110 2.33 111 2.35 107 2.37  95 2.39
  48  0.744  0.754  0.490- 111 2.30  96 2.31 112 2.43 108 2.51
  49  0.999  0.990  0.756- 125 2.27 113 2.40  97 2.43 116 2.51
  50  0.239  0.000  0.746- 126 2.28  98 2.32 113 2.33 114 2.56
  51  0.505  0.996  0.756- 115 2.25 127 2.35  99 2.48 114 2.55
  52  0.743  0.014  0.748- 116 2.19 115 2.21 100 2.30 128 2.52
  53  0.001  0.243  0.758- 120 2.25 101 2.28 113 2.30 117 2.32
  54  0.254  0.249  0.761- 114 2.24 118 2.26 102 2.45 117 2.55
  55  0.520  0.238  0.746- 115 2.23 119 2.33 103 2.33 118 2.57
  56  0.739  0.255  0.742- 119 2.23 104 2.27 116 2.45 120 2.72
  57  0.002  0.496  0.762- 117 2.29 121 2.29 124 2.41 105 2.53
  58  0.251  0.490  0.746- 118 2.18 106 2.41 121 2.45 122 2.50
  59  0.500  0.494  0.754- 119 2.23 122 2.27 123 2.34 107 2.37
  60  0.752  0.503  0.745- 108 2.31 124 2.32 120 2.45 123 2.46
  61  0.992  0.754  0.743- 109 2.27 128 2.30 121 2.31 125 2.46
  62  0.245  0.753  0.752- 110 2.32 125 2.37 126 2.47 122 2.61
  63  0.500  0.747  0.752- 123 2.34 127 2.35 126 2.36 111 2.49
  64  0.752  0.742  0.751- 127 2.31 128 2.38 124 2.41 112 2.48
  65  0.071  0.055  0.071-   2 2.23  17 2.29   1 2.49   5 2.52
  66  0.314  0.073  0.057-   6 2.26   3 2.26   2 2.38  18 2.40
  67  0.563  0.059  0.071-  19 2.26   7 2.33   4 2.34   3 2.50
  68  0.812  0.070  0.061-   8 2.19   1 2.26  20 2.42   4 2.43
  69  0.058  0.300  0.076-  21 2.17   6 2.37   5 2.45   9 2.63
  70  0.310  0.315  0.068-  22 2.23   6 2.42  10 2.45   7 2.59
  71  0.560  0.309  0.072-   8 2.27   7 2.29  23 2.30  11 2.57
  72  0.825  0.310  0.058-   5 2.16  24 2.40  12 2.40   8 2.61
  73  0.058  0.567  0.064-  25 2.18  13 2.18  10 2.32   9 2.35
  74  0.310  0.551  0.060-  10 2.15  11 2.31  26 2.32  14 2.41
  75  0.570  0.560  0.059-  12 2.27  15 2.28  27 2.35  11 2.36
  76  0.803  0.562  0.071-  28 2.29  12 2.42   9 2.53  16 2.61
  77  0.063  0.813  0.056-   1 2.41  13 2.43  14 2.51  29 2.57
  78  0.322  0.805  0.064-  15 2.27  14 2.36  30 2.37   2 2.49
  79  0.565  0.818  0.053-   3 2.24  16 2.25  15 2.34  31 2.39
  80  0.808  0.814  0.071-  32 2.28   4 2.33  16 2.44  13 2.45
  81  0.066  0.063  0.323-  33 2.31  18 2.34  21 2.45  17 2.45
  82  0.310  0.064  0.307-  19 2.28  22 2.39  18 2.44  34 2.54
  83  0.563  0.070  0.304-  23 2.23  20 2.31  19 2.34  35 2.48
  84  0.823  0.068  0.303-  17 2.36  24 2.36  36 2.51  20 2.55
  85  0.067  0.314  0.305-  25 2.30  22 2.31  21 2.38  37 2.45
  86  0.316  0.309  0.301-  22 2.26  23 2.33  26 2.35  38 2.49
  87  0.560  0.311  0.315-  23 2.33  39 2.34  27 2.34  24 2.35
  88  0.807  0.311  0.314-  40 2.27  24 2.32  28 2.36  21 2.38
  89  0.053  0.553  0.324-  41 2.30  26 2.40  25 2.42  29 2.52
  90  0.312  0.560  0.304-  30 2.40  26 2.46  27 2.51  42 2.52
  91  0.562  0.564  0.304-  27 2.25  43 2.43  28 2.44  31 2.55
  92  0.823  0.556  0.317-  44 2.32  25 2.37  28 2.41  32 2.59
  93  0.060  0.813  0.311-  29 2.28  30 2.32  17 2.32  45 2.37
  94  0.315  0.808  0.313-  46 2.33  18 2.35  30 2.42  31 2.43
  95  0.562  0.814  0.314-  31 2.26  32 2.32  47 2.39  19 2.50
  96  0.813  0.818  0.307-  20 2.25  29 2.27  32 2.28  48 2.31
  97  0.058  0.058  0.564-  33 2.11  34 2.31  37 2.39  49 2.43
  98  0.310  0.071  0.564-  50 2.32  38 2.37  35 2.39  34 2.56
  99  0.565  0.062  0.559-  36 2.32  35 2.39  39 2.45  51 2.48
 100  0.823  0.047  0.569-  33 2.28  36 2.29  52 2.30  40 2.53
 101  0.050  0.322  0.578-  53 2.28  41 2.33  38 2.45  37 2.66
 102  0.311  0.318  0.567-  42 2.28  39 2.43  54 2.45  38 2.48
 103  0.564  0.316  0.563-  43 2.25  39 2.31  55 2.33  40 2.34
 104  0.803  0.314  0.562-  56 2.27  44 2.30  40 2.41  37 2.43
 105  0.057  0.567  0.562-  45 2.29  41 2.30  42 2.50  57 2.53
 106  0.302  0.573  0.556-  42 2.22  46 2.23  58 2.41  43 2.62
 107  0.561  0.561  0.567-  44 2.35  59 2.37  47 2.37  43 2.41
 108  0.816  0.556  0.562-  41 2.23  60 2.31  44 2.41  48 2.51
 109  0.058  0.820  0.564-  61 2.27  45 2.33  33 2.36  46 2.44
 110  0.319  0.803  0.569-  62 2.32  47 2.33  34 2.42  46 2.44
 111  0.563  0.822  0.555-  35 2.22  48 2.30  47 2.35  63 2.49
 112  0.799  0.826  0.556-  36 2.33  48 2.43  64 2.48  45 2.70
 113  0.055  0.061  0.819-  53 2.30  50 2.33   1 2.36  49 2.40
 114  0.303  0.072  0.813-  54 2.24   2 2.43  51 2.55  50 2.56
 115  0.568  0.062  0.804-  52 2.21  55 2.23  51 2.25   3 2.60
 116  0.801  0.062  0.815-  52 2.19   4 2.39  56 2.45  49 2.51
 117  0.052  0.315  0.817-   5 2.21  57 2.29  53 2.32  54 2.55
 118  0.317  0.318  0.806-  58 2.18  54 2.26   6 2.51  55 2.57
 119  0.563  0.318  0.807-  59 2.23  56 2.23  55 2.33   7 2.47
 120  0.823  0.310  0.817-  53 2.25   8 2.44  60 2.45  56 2.72
 121  0.058  0.572  0.811-  57 2.29  61 2.31   9 2.32  58 2.45
 122  0.321  0.547  0.817-  59 2.27  10 2.35  58 2.50  62 2.61
 123  0.558  0.562  0.814-  11 2.33  63 2.34  59 2.34  60 2.46
 124  0.812  0.551  0.820-  12 2.23  60 2.32  57 2.41  64 2.41
 125  0.057  0.811  0.816-  49 2.27  13 2.31  62 2.37  61 2.46
 126  0.313  0.821  0.810-  50 2.28  63 2.36  14 2.42  62 2.47
 127  0.569  0.810  0.805-  64 2.31  51 2.35  63 2.35  15 2.61
 128  0.810  0.815  0.807-  61 2.30  16 2.30  64 2.38  52 2.52
 
  LATTYP: Found a face centered cubic cell.
 ALAT       =    21.8746673814
  
  Lattice vectors:
  
 A1 = (   0.0000000000,  10.9373336907,  10.9373336907)
 A2 = (  10.9373336907,   0.0000000000,  10.9373336907)
 A3 = (  10.9373336907,  10.9373336907,   0.0000000000)


Analysis of symmetry for initial positions (statically):
=====================================================================
 Subroutine PRICEL returns:
 Original cell was already a primitive cell.
 

 Routine SETGRP: Setting up the symmetry group for a 
 face centered cubic supercell.


 Subroutine GETGRP returns: Found  1 space group operations
 (whereof  1 operations were pure point group operations)
 out of a pool of 48 trial point group operations.


The static configuration has the point symmetry C_1 .


Analysis of symmetry for dynamics (positions and initial velocities):
=====================================================================
 Subroutine PRICEL returns:
 Original cell was already a primitive cell.
 

 Routine SETGRP: Setting up the symmetry group for a 
 face centered cubic supercell.


 Subroutine GETGRP returns: Found  1 space group operations
 (whereof  1 operations were pure point group operations)
 out of a pool of 48 trial point group operations.


The dynamic configuration has the point symmetry C_1 .


 Subroutine INISYM returns: Found  1 space group operations
 (whereof  1 operations are pure point group operations),
 and found     1 'primitive' translations

 
 
 KPOINTS: KPOINTS File, automatically generated by

Automatic generation of k-mesh.
Space group operators:
 irot       det(A)        alpha          n_x          n_y          n_z        tau_x        tau_y        tau_z
    1     1.000000     0.000001     1.000000     0.000000     0.000000     0.000000     0.000000     0.000000
 
 Subroutine IBZKPT returns following result:
 ===========================================
 
 Found      8 irreducible k-points:
 
 Following reciprocal coordinates:
            Coordinates               Weight
  0.000000  0.000000  0.000000      1.000000
  0.500000  0.000000  0.000000      1.000000
  0.000000  0.500000  0.000000      1.000000
  0.500000  0.500000  0.000000      1.000000
  0.000000  0.000000  0.500000      1.000000
  0.500000  0.000000  0.500000      1.000000
  0.000000  0.500000  0.500000      1.000000
  0.500000  0.500000  0.500000      1.000000
 
 Following cartesian coordinates:
            Coordinates               Weight
  0.000000  0.000000  0.000000      1.000000
 -0.022857  0.022857  0.022857      1.000000
  0.022857 -0.022857  0.022857      1.000000
  0.000000  0.000000  0.045715      1.000000
  0.022857  0.022857 -0.022857      1.000000
  0.000000  0.045715  0.000000      1.000000
  0.045715  0.000000  0.000000      1.000000
  0.022857  0.022857  0.022857      1.000000
 


--------------------------------------------------------------------------------------------------------




 Dimension of arrays:
   k-points           NKPTS =      8   k-points in BZ     NKDIM =      8   number of bands    NBANDS=    322
   number of dos      NEDOS =    301   number of ions     NIONS =    128
   non local maximal  LDIM  =      4   non local SUM 2l+1 LMDIM =      8
   total plane-waves  NPLWV = ******
   max r-space proj   IRMAX =      1   max aug-charges    IRDMAX= 176811
   dimension x,y,z NGX =   120 NGY =  120 NGZ =  120
   dimension x,y,z NGXF=   240 NGYF=  240 NGZF=  240
   support grid    NGXF=   480 NGYF=  480 NGZF=  480
   ions per type =             128
   NGX,Y,Z   is equivalent  to a cutoff of  12.90, 12.90, 12.90 a.u.
   NGXF,Y,Z  is equivalent  to a cutoff of  25.80, 25.80, 25.80 a.u.

 SYSTEM =  potpaw_PBE@./ARUN.APL1ZEROSTATE         
 POSCAR =  kk                                      

 Startparameter for this run:
   NWRITE =      2    write-flag & timer
   PREC   = accura    normal or accurate (medium, high low for compatibility)
   ISTART =      0    job   : 0-new  1-cont  2-samecut
   ICHARG =      2    charge: 1-file 2-atom 10-const
   ISPIN  =      1    spin polarized calculation?
   LNONCOLLINEAR =      F non collinear calculations
   LSORBIT =      F    spin-orbit coupling
   INIWAV =      1    electr: 0-lowe 1-rand  2-diag
   LASPH  =      F    aspherical Exc in radial PAW
   METAGGA=      F    non-selfconsistent MetaGGA calc.

 Electronic Relaxation 1
   ENCUT  =  500.0 eV  36.75 Ry    6.06 a.u.  28.20 28.20 28.20*2*pi/ulx,y,z
   ENINI  =  500.0     initial cutoff
   ENAUG  =  322.1 eV  augmentation charge cutoff
   NELM   =    120;   NELMIN=  4; NELMDL= -5     # of ELM steps 
   EDIFF  = 0.1E-07   stopping-criterion for ELM
   LREAL  =      F    real-space projection
   NLSPLINE    = F    spline interpolate recip. space projectors
   LCOMPAT=      F    compatible to vasp.4.4
   GGA_COMPAT  = T    GGA compatible to vasp.4.4-vasp.4.6
   LMAXPAW     = -100 max onsite density
   LMAXMIX     =    2 max onsite mixed and CHGCAR
   VOSKOWN=      0    Vosko Wilk Nusair interpolation
   ROPT   =    0.00000
 Ionic relaxation
   EDIFFG = 0.1E-06   stopping-criterion for IOM
   NSW    =      0    number of steps for IOM
   NBLOCK =      1;   KBLOCK =      1    inner block; outer block 
   IBRION =     -1    ionic relax: 0-MD 1-quasi-New 2-CG
   NFREE  =      0    steps in history (QN), initial steepest desc. (CG)
   ISIF   =      2    stress and relaxation
   IWAVPR =     10    prediction:  0-non 1-charg 2-wave 3-comb
   ISYM   =      2    0-nonsym 1-usesym 2-fastsym
   LCORR  =      T    Harris-Foulkes like correction to forces

   POTIM  = 0.5000    time-step for ionic-motion
   TEIN   =    0.0    initial temperature
   TEBEG  =    0.0;   TEEND  =   0.0 temperature during run
   SMASS  =  -3.00    Nose mass-parameter (am)
   estimated Nose-frequenzy (Omega)   =  0.10E-29 period in steps =****** mass=  -0.547E-26a.u.
   SCALEE = 1.0000    scale energy and forces
   NPACO  =    256;   APACO  = 16.0  distance and # of slots for P.C.
   PSTRESS=    0.0 pullay stress

  Mass of Ions in am
   POMASS =  28.09
  Ionic Valenz
   ZVAL   =   4.00
  Atomic Wigner-Seitz radii
   RWIGS  =  -1.00
  virtual crystal weights 
   VCA    =   1.00
   NELECT =     512.0000    total number of electrons
   NUPDOWN=      -1.0000    fix difference up-down

 DOS related values:
   EMIN   =  10.00;   EMAX   =-10.00  energy-range for DOS
   EFERMI =   0.00
   ISMEAR =     0;   SIGMA  =   0.01  broadening in eV -4-tet -1-fermi 0-gaus

 Electronic relaxation 2 (details)
   IALGO  =     38    algorithm
   LDIAG  =      T    sub-space diagonalisation (order eigenvalues)
   LSUBROT=      F    optimize rotation matrix (better conditioning)
   TURBO    =      0    0=normal 1=particle mesh
   IRESTART =      0    0=no restart 2=restart with 2 vectors
   NREBOOT  =      0    no. of reboots
   NMIN     =      0    reboot dimension
   EREF     =   0.00    reference energy to select bands
   IMIX   =      4    mixing-type and parameters
     AMIX     =   0.40;   BMIX     =  1.00
     AMIX_MAG =   1.60;   BMIX_MAG =  1.00
     AMIN     =   0.10
     WC   =   100.;   INIMIX=   1;  MIXPRE=   1;  MAXMIX= -45

 Intra band minimization:
   WEIMIN = 0.0000     energy-eigenvalue tresh-hold
   EBREAK =  0.78E-11  absolut break condition
   DEPER  =   0.30     relativ break condition  

   TIME   =   0.40     timestep for ELM

  volume/ion in A,a.u.               =      20.44       137.96
  Fermi-wavevector in a.u.,A,eV,Ry     =   0.950408  1.796010 12.289804  0.903275
  Thomas-Fermi vector in A             =   2.078782
 
 Write flags
   LWAVE        =      F    write WAVECAR
   LDOWNSAMPLE  =      F    k-point downsampling of WAVECAR
   LCHARG       =      F    write CHGCAR
   LVTOT        =      F    write LOCPOT, total local potential
   LVHAR        =      F    write LOCPOT, Hartree potential only
   LELF         =      F    write electronic localiz. function (ELF)
   LORBIT       =      0    0 simple, 1 ext, 2 COOP (PROOUT), +10 PAW based schemes


 Dipole corrections
   LMONO  =      F    monopole corrections only (constant potential shift)
   LDIPOL =      F    correct potential (dipole corrections)
   IDIPOL =      0    1-x, 2-y, 3-z, 4-all directions 
   EPSILON=  1.0000000 bulk dielectric constant

 Exchange correlation treatment:
   GGA     =    --    GGA type
   LEXCH   =     8    internal setting for exchange type
   VOSKOWN=      0    Vosko Wilk Nusair interpolation
   LHFCALC =     F    Hartree Fock is set to
   LHFONE  =     F    Hartree Fock one center treatment
   AEXX    =    0.0000 exact exchange contribution

 Linear response parameters
   LEPSILON=     F    determine dielectric tensor
   LRPA    =     F    only Hartree local field effects (RPA)
   LNABLA  =     F    use nabla operator in PAW spheres
   LVEL    =     F    velocity operator in full k-point grid
   LINTERFAST=   F  fast interpolation
   KINTER  =     0    interpolate to denser k-point grid
   CSHIFT  =0.1000    complex shift for real part using Kramers Kronig
   OMEGAMAX=  -1.0    maximum frequency
   DEG_THRESHOLD= 0.2000000E-02 threshold for treating states as degnerate
   RTIME   =   -0.100 relaxation time in fs
  (WPLASMAI=    0.000 imaginary part of plasma frequency in eV, 0.658/RTIME)
   DFIELD  = 0.0000000 0.0000000 0.0000000 field for delta impulse in time
 
 Orbital magnetization related:
   ORBITALMAG=     F  switch on orbital magnetization
   LCHIMAG   =     F  perturbation theory with respect to B field
   DQ        =  0.001000  dq finite difference perturbation B field
   LLRAUG    =     F  two centre corrections for induced B field



--------------------------------------------------------------------------------------------------------


 Static calculation
 charge density and potential will be updated during run
 non-spin polarized calculation
 Variant of blocked Davidson
 Davidson routine will perform the subspace rotation
 perform sub-space diagonalisation
    after iterative eigenvector-optimisation
 modified Broyden-mixing scheme, WC =      100.0
 initial mixing is a Kerker type mixing with AMIX =  0.4000 and BMIX =      1.0000
 Hartree-type preconditioning will be used
 using additional bands           66
 reciprocal scheme for non local part
 use partial core corrections
 calculate Harris-corrections to forces 
   (improved forces if not selfconsistent)
 use gradient corrections 
 use of overlap-Matrix (Vanderbilt PP)
 Gauss-broadening in eV      SIGMA  =   0.01


--------------------------------------------------------------------------------------------------------


  energy-cutoff  :      500.00
  volume of cell :     2616.76
      direct lattice vectors                 reciprocal lattice vectors
     0.000000000 10.937333691 10.937333691    -0.045714981  0.045714981  0.045714981
    10.937333691  0.000000000 10.937333691     0.045714981 -0.045714981  0.045714981
    10.937333691 10.937333691  0.000000000     0.045714981  0.045714981 -0.045714981

  length of vectors
    15.467725642 15.467725642 15.467725642     0.079180669  0.079180669  0.079180669


 
 k-points in units of 2pi/SCALE and weight: KPOINTS File, automatically generated by
   0.00000000  0.00000000  0.00000000       0.125
  -0.02285749  0.02285749  0.02285749       0.125
   0.02285749 -0.02285749  0.02285749       0.125
   0.00000000  0.00000000  0.04571498       0.125
   0.02285749  0.02285749 -0.02285749       0.125
   0.00000000  0.04571498  0.00000000       0.125
   0.04571498  0.00000000  0.00000000       0.125
   0.02285749  0.02285749  0.02285749       0.125
 
 k-points in reciprocal lattice and weights: KPOINTS File, automatically generated by
   0.00000000  0.00000000  0.00000000       0.125
   0.50000000  0.00000000  0.00000000       0.125
   0.00000000  0.50000000  0.00000000       0.125
   0.50000000  0.50000000  0.00000000       0.125
   0.00000000  0.00000000  0.50000000       0.125
   0.50000000  0.00000000  0.50000000       0.125
   0.00000000  0.50000000  0.50000000       0.125
   0.50000000  0.50000000  0.50000000       0.125
 
 position of ions in fractional coordinates (direct lattice) 
   0.99128824  0.00322874  0.00628363
   0.24779512  0.00236593  0.00541454
   0.49179803  0.99412806  0.00985546
   0.74881837  0.99797073  0.00371790
   0.99626594  0.25331052  0.99148790
   0.24526482  0.25097652  0.00437642
   0.51563371  0.24262386  0.00166746
   0.73852303  0.24199915  0.00775426
   0.00359784  0.50702360  0.99376161
   0.24242177  0.50876757  0.00130631
   0.49188647  0.51233207  0.99846438
   0.74946652  0.49949304  0.99681368
   0.00139806  0.73973240  0.99882568
   0.26165444  0.74129918  0.00122501
   0.50152308  0.73968622  0.01131144
   0.74370639  0.76799565  0.98930993
   0.00988145  0.99651989  0.25218619
   0.24975828  0.99311828  0.24552209
   0.49070287  0.01172435  0.25009184
   0.74557547  0.99596378  0.25193464
   0.99463087  0.25622507  0.24670764
   0.24944213  0.25361232  0.24412254
   0.50041778  0.24670006  0.25386351
   0.74564233  0.25462590  0.24716536
   0.00951663  0.49590621  0.23607231
   0.24218785  0.49485307  0.24354448
   0.51085643  0.49546311  0.24533676
   0.75526439  0.49719054  0.25208543
   0.99237338  0.75235507  0.25969020
   0.24343535  0.74949232  0.25064453
   0.50581718  0.76487282  0.24142188
   0.74612404  0.76062196  0.25167644
   0.00191131  0.00628975  0.50541842
   0.24121103  0.99343503  0.50794866
   0.49859315  0.99792908  0.50073578
   0.74828076  0.00901817  0.50156769
   0.99503733  0.24733410  0.49838875
   0.24320424  0.25858121  0.49725217
   0.50295754  0.25589495  0.49985198
   0.74848891  0.24629058  0.49355427
   0.99219343  0.50630269  0.50565469
   0.25566194  0.49796844  0.50238593
   0.50895971  0.49332147  0.49599577
   0.74697219  0.49670391  0.49991998
   0.01287689  0.74803838  0.49784418
   0.25111966  0.74914642  0.49690864
   0.50326271  0.74794083  0.50330898
   0.74406613  0.75431873  0.48962936
   0.99932609  0.99045549  0.75561702
   0.23924935  0.00031121  0.74616603
   0.50458401  0.99570865  0.75569300
   0.74295680  0.01432481  0.74782936
   0.00148940  0.24264099  0.75754798
   0.25362523  0.24898661  0.76053195
   0.52035396  0.23769925  0.74615009
   0.73865553  0.25544323  0.74158263
   0.00183729  0.49577424  0.76192862
   0.25078207  0.49015813  0.74572666
   0.50040443  0.49394082  0.75414271
   0.75204720  0.50275942  0.74470386
   0.99203382  0.75412170  0.74278398
   0.24454015  0.75298083  0.75210200
   0.49975980  0.74716353  0.75200221
   0.75184126  0.74162921  0.75073236
   0.07135732  0.05494227  0.07125759
   0.31433719  0.07265482  0.05652586
   0.56343116  0.05899930  0.07144138
   0.81216385  0.06970288  0.06079179
   0.05787462  0.29955004  0.07586708
   0.31027010  0.31452125  0.06770597
   0.55952035  0.30872150  0.07202620
   0.82549638  0.30966558  0.05835886
   0.05849930  0.56713947  0.06419677
   0.31045469  0.55143433  0.05984143
   0.56981292  0.55951608  0.05937985
   0.80347259  0.56218890  0.07135462
   0.06347793  0.81280914  0.05603555
   0.32175836  0.80535192  0.06383564
   0.56548105  0.81772150  0.05295910
   0.80789601  0.81376015  0.07093932
   0.06616726  0.06346141  0.32291407
   0.31018831  0.06440496  0.30704744
   0.56305525  0.07003993  0.30437833
   0.82334979  0.06830190  0.30326310
   0.06680481  0.31420766  0.30486509
   0.31639931  0.30905749  0.30062904
   0.56009713  0.31060298  0.31504959
   0.80656545  0.31060258  0.31364226
   0.05294395  0.55326633  0.32442579
   0.31202985  0.55978995  0.30374818
   0.56242851  0.56359267  0.30359680
   0.82301195  0.55556236  0.31696192
   0.05994796  0.81323136  0.31115828
   0.31465053  0.80763003  0.31282724
   0.56233731  0.81352946  0.31445734
   0.81322433  0.81776002  0.30748604
   0.05837415  0.05840865  0.56355265
   0.30987070  0.07092664  0.56383361
   0.56486490  0.06189218  0.55944332
   0.82294380  0.04671943  0.56861077
   0.05036951  0.32242635  0.57835265
   0.31090063  0.31768066  0.56653739
   0.56378096  0.31566693  0.56253323
   0.80287074  0.31429825  0.56207974
   0.05747726  0.56726490  0.56181175
   0.30157163  0.57302478  0.55631841
   0.56121059  0.56060003  0.56687350
   0.81589661  0.55627525  0.56223363
   0.05836417  0.81995761  0.56393021
   0.31896881  0.80252918  0.56883214
   0.56284301  0.82237384  0.55518693
   0.79918563  0.82555959  0.55576491
   0.05512664  0.06082527  0.81914852
   0.30267602  0.07220989  0.81329349
   0.56827623  0.06162025  0.80402083
   0.80100950  0.06195874  0.81498397
   0.05231020  0.31538657  0.81685135
   0.31723592  0.31805997  0.80615926
   0.56270486  0.31781558  0.80683410
   0.82330930  0.30968564  0.81704095
   0.05798986  0.57156310  0.81051056
   0.32095643  0.54660142  0.81695957
   0.55763658  0.56206513  0.81413212
   0.81151892  0.55060509  0.82021889
   0.05664790  0.81068817  0.81632694
   0.31342493  0.82098028  0.81045133
   0.56939248  0.81046405  0.80467914
   0.80977495  0.81506848  0.80743019
 
 position of ions in cartesian coordinates  (Angst):
   0.10403995 10.91077641 10.87736411
   0.08509765  2.76943860  2.73609495
  10.98090281  5.48675161 16.25206955
  10.95580283  8.23074036 19.10521527
  13.61477564 21.74072698 13.66703470
   2.79288032  2.73040954  5.42755707
   2.67189568  5.65789548  8.29331605
   2.73163639  8.16228377 10.72429830
  16.41458860 10.90845304  5.58483704
   5.57884821  2.66573533  8.21600840
  16.52408493 16.30046458 10.98347336
  16.36560595 19.09964926 13.66028744
  19.01518982 10.93978078  8.10599119
   8.12123481  2.87520030 10.96963845
   8.21391205  5.60904227 13.57552026
  19.22023746 18.95457775 16.53398959
  13.65751500  2.86632116 11.00734720
  13.54742304  5.41704662 13.59375570
   2.86357104  8.10231896  5.49521423
  13.64868142 10.91010093 19.04779596
   5.50074287 13.57693352 13.68102882
   5.44389222  5.39828149  5.50207431
   5.47483082  8.24982615  8.17147711
   5.48825845 10.85866906 10.94026744
   8.00589333  2.68608812  5.52797825
   8.07610039  5.31261661  8.06126243
   8.10237545  8.27073727 11.00645260
   8.19508133 11.01772113 13.69851754
  11.06907686 13.69423720 19.08267725
  10.93883044  5.40391652 10.85998130
  11.00618097  8.17280294 13.89796058
  11.07184540 10.91327679 16.47978387
   5.59672296  5.54883453  0.08969775
  16.42113432  8.19380951 13.50373595
  16.39139763 10.92999391 16.36796297
   5.58444800 13.67000959  8.28283111
   8.15621964 16.33409938 13.58823094
   8.26680189  8.09861882  5.48819491
   8.26585643 10.96806241  8.29982300
   8.09192999 13.58464076 10.88023522
  11.06811561 16.38246473 16.38955209
  10.94120961  8.29102250  8.24270694
  10.82049276 10.99153348 10.96228372
  10.90040801 13.63767578 13.60250051
  13.62663322  5.58592671  8.32238416
  13.62852006  8.18143520 10.94024398
  13.68533666 11.00921044 13.68483063
  13.60547533 13.49333920 16.38833517
  19.09737767 19.19439836 21.76290510
   8.16447071 10.77781690  2.62015379
  19.15566427 13.78407016 16.40920150
   8.33593446 16.30522565  8.28264159
  10.93940046  8.30184511  2.67013550
  11.04144134 11.09217550  5.49723337
  10.76068847 13.85217736  8.29108081
  10.90480460 16.18985873 10.87278988
  13.75591577  8.35356253  5.44254327
  13.51728441 10.89914855  8.10391029
  13.65070606 13.72140066 10.87548584
  13.64392220 16.37046585 13.72423872
  16.37215696 18.97428125 19.09828563
  16.46159312 10.90060778 10.91021978
  16.39687594 13.69093886 13.63801653
  16.32245643 16.43414898 16.33458484
   1.38029002  1.55982688  1.38138081
   1.41289222  4.05625295  4.23266078
   1.42667319  6.94381277  6.80772963
   1.42726372  9.54780719  9.64527070
   4.10606228  1.46277764  3.90927278
   4.18054660  4.13405039  6.83355151
   4.16436467  6.90743534  9.49625084
   4.02520612  9.66701966 12.41564521
   6.90513505  1.34196778  6.84281992
   6.68572701  4.05005223  9.42676789
   6.76907132  6.88169132 12.35184816
   6.92927688  9.56827715 14.93669538
   9.50284428  1.30715883  9.58424406
   9.50659444  4.21737032 12.32758131
   9.52292428  6.76408626 15.12854780
   9.67625326  9.61211525 17.73659456
   4.22591756  4.25551236  1.41779196
   4.06269887  6.75091336  4.09705155
   4.09513747  9.48741053  6.92437334
   4.06393036 12.32214116  9.75229206
   6.77100524  4.06507770  4.16726046
   6.66834504  6.74864506  6.84082975
   6.84297096  9.57177172  9.52313764
   6.82757409 12.25208553 12.21883954
   9.59961162  4.12741876  6.63032418
   9.44480470  6.73496976  9.53538411
   9.48474070  9.47200785 12.31566942
   9.54308924 12.46827468 15.07792726
  12.29782464  4.05891268  9.55025353
  12.25481499  6.86293372 12.27475698
  12.33716799  9.58979572 15.04831399
  12.30719156 12.25758326 17.83862008
   6.80259824  6.80222094  1.27729244
   6.94258461  9.55599554  4.16490749
   6.79575369 12.29693419  6.85505126
   6.73007181 15.21989673  9.51179700
   9.85212050  6.87654405  4.07739268
   9.67098780  9.59683246  6.87500332
   9.60516816 12.31887412  9.61881504
   9.58523857 14.92891894 12.21885007
  12.34908811  6.77337056  6.83301353
  12.35200326  9.38302958  9.56575269
  12.33155420 12.33823209 12.26961712
  12.23350488 15.07307038 15.00790152
  15.13604279  6.80624121  9.60649830
  14.99903643  9.71017526 12.26619779
  15.06684180 12.22826655 15.15057889
  15.10800706 14.81954619 17.77038066
   9.62456696  9.56223916  1.26820478
   9.68504597 12.20573097  4.10025236
   9.46780531 15.00927089  6.88938803
   9.59141508 17.67465979  9.43857157
  12.38366389  9.50630986  4.02162219
  12.29596088 12.28694799  6.94844319
  12.30066879 14.97910458  9.63054590
  12.32338465 17.94105800 12.39194374
  15.11620078  9.49907886  6.88563082
  14.91372162 12.44576700  9.48876970
  15.05192858 15.00349211 12.24655126
  14.99315935 17.84686091 14.89800481
  17.79520722  9.54801719  9.48634407
  17.84351190 12.29220965 12.40736834
  17.66535993 15.02867978 15.09195128
  17.74580943 17.68791225 17.77145477
 


--------------------------------------------------------------------------------------------------------


 k-point  1 :   0.0000 0.0000 0.0000  plane waves:   66299
 k-point  2 :   0.5000 0.0000 0.0000  plane waves:   66394
 k-point  3 :   0.0000 0.5000 0.0000  plane waves:   66394
 k-point  4 :   0.5000 0.5000 0.0000  plane waves:   66552
 k-point  5 :   0.0000 0.0000 0.5000  plane waves:   66394
 k-point  6 :   0.5000 0.0000 0.5000  plane waves:   66552
 k-point  7 :   0.0000 0.5000 0.5000  plane waves:   66552
 k-point  8 :   0.5000 0.5000 0.5000  plane waves:   66394

 maximum and minimum number of plane-waves per node :      4207     4110

 maximum number of plane-waves:     66552
 maximum index in each direction: 
   IXMAX=   28   IYMAX=   28   IZMAX=   28
   IXMIN=  -28   IYMIN=  -28   IZMIN=  -28


 parallel 3D FFT for wavefunctions:
    minimum data exchange during FFTs selected (reduces bandwidth)
 parallel 3D FFT for charge:
    minimum data exchange during FFTs selected (reduces bandwidth)


 total amount of memory used by VASP MPI-rank0   221701. kBytes
=======================================================================

   base      :      30000. kBytes
   nonl-proj :      10690. kBytes
   fftplans  :      66746. kBytes
   grid      :      26864. kBytes
   one-center:         24. kBytes
   wavefun   :      87377. kBytes
 
     INWAV:  cpu time    0.0000: real time    0.0003
 Broyden mixing: mesh for mixing (old mesh)
   NGX = 57   NGY = 57   NGZ = 57
  (NGX  =240   NGY  =240   NGZ  =240)
  gives a total of 185193 points

 initial charge density was supplied:
 charge density of overlapping atoms calculated
 number of electron     512.0000000 magnetization 
 keeping initial charge density in first step


--------------------------------------------------------------------------------------------------------


 Maximum index for augmentation-charges         5602 (set IRDMAX)


--------------------------------------------------------------------------------------------------------


 First call to EWALD:  gamma=   0.129
 Maximum number of real-space cells 3x 3x 3
 Maximum number of reciprocal cells 3x 3x 3

    FEWALD:  cpu time    0.0059: real time    0.0059


--------------------------------------- Iteration      1(   1)  ---------------------------------------


    POTLOK:  cpu time    0.4880: real time    0.4974
    SETDIJ:  cpu time    0.5122: real time    0.5122
     EDDAV:  cpu time   70.3587: real time   70.3720
       DOS:  cpu time    0.0067: real time    0.0067
    --------------------------------------------
      LOOP:  cpu time   71.3657: real time   71.3884

 eigenvalue-minimisations  :  5152
 total energy-change (2. order) : 0.1383821E+04  (-0.1908322E+05)
 number of electron     512.0000000 magnetization 
 augmentation part      512.0000000 magnetization 

 Free energy of the ion-electron system (eV)
  ---------------------------------------------------
  alpha Z        PSCENC =       210.77028614
  Ewald energy   TEWEN  =    -14467.76087225
  -Hartree energ DENC   =      -759.23312830
  -exchange      EXHF   =         0.00000000
  -V(xc)+E(xc)   XCENC  =     -1195.26808208
  PAW double counting   =      4221.13331941    -1969.18571412
  entropy T*S    EENTRO =        -0.00179077
  eigenvalues    EBANDS =      2150.88592872
  atomic energy  EATOM  =     13192.48085998
  Solvation  Ediel_sol  =         0.00000000
  ---------------------------------------------------
  free energy    TOTEN  =      1383.82080673 eV

  energy without entropy =     1383.82259751  energy(sigma->0) =     1383.82170212


--------------------------------------------------------------------------------------------------------




--------------------------------------- Iteration      1(   2)  ---------------------------------------


     EDDAV:  cpu time   80.3364: real time   80.3574
       DOS:  cpu time    0.0048: real time    0.0048
    --------------------------------------------
      LOOP:  cpu time   80.3411: real time   80.3622

 eigenvalue-minimisations  :  6120
 total energy-change (2. order) :-0.1921252E+04  (-0.1826984E+04)
 number of electron     512.0000000 magnetization 
 augmentation part      512.0000000 magnetization 

 Free energy of the ion-electron system (eV)
  ---------------------------------------------------
  alpha Z        PSCENC =       210.77028614
  Ewald energy   TEWEN  =    -14467.76087225
  -Hartree energ DENC   =      -759.23312830
  -exchange      EXHF   =         0.00000000
  -V(xc)+E(xc)   XCENC  =     -1195.26808208
  PAW double counting   =      4221.13331941    -1969.18571412
  entropy T*S    EENTRO =        -0.00001093
  eigenvalues    EBANDS =       229.63240531
  atomic energy  EATOM  =     13192.48085998
  Solvation  Ediel_sol  =         0.00000000
  ---------------------------------------------------
  free energy    TOTEN  =      -537.43093683 eV

  energy without entropy =     -537.43092590  energy(sigma->0) =     -537.43093137


--------------------------------------------------------------------------------------------------------




--------------------------------------- Iteration      1(   3)  ---------------------------------------


     EDDAV:  cpu time   82.1049: real time   82.1184
       DOS:  cpu time    0.0017: real time    0.0017
    --------------------------------------------
      LOOP:  cpu time   82.1065: real time   82.1201

 eigenvalue-minimisations  :  6296
 total energy-change (2. order) :-0.1496341E+03  (-0.1466256E+03)
 number of electron     512.0000000 magnetization 
 augmentation part      512.0000000 magnetization 

 Free energy of the ion-electron system (eV)
  ---------------------------------------------------
  alpha Z        PSCENC =       210.77028614
  Ewald energy   TEWEN  =    -14467.76087225
  -Hartree energ DENC   =      -759.23312830
  -exchange      EXHF   =         0.00000000
  -V(xc)+E(xc)   XCENC  =     -1195.26808208
  PAW double counting   =      4221.13331941    -1969.18571412
  entropy T*S    EENTRO =        -0.00000000
  eigenvalues    EBANDS =        79.99828007
  atomic energy  EATOM  =     13192.48085998
  Solvation  Ediel_sol  =         0.00000000
  ---------------------------------------------------
  free energy    TOTEN  =      -687.06505114 eV

  energy without entropy =     -687.06505114  energy(sigma->0) =     -687.06505114


--------------------------------------------------------------------------------------------------------




--------------------------------------- Iteration      1(   4)  ---------------------------------------


     EDDAV:  cpu time   80.9990: real time   81.0477
       DOS:  cpu time    0.0020: real time    0.0020
    --------------------------------------------
      LOOP:  cpu time   81.0010: real time   81.0497

 eigenvalue-minimisations  :  6184
 total energy-change (2. order) :-0.4193365E+01  (-0.4159266E+01)
 number of electron     512.0000000 magnetization 
 augmentation part      512.0000000 magnetization 

 Free energy of the ion-electron system (eV)
  ---------------------------------------------------
  alpha Z        PSCENC =       210.77028614
  Ewald energy   TEWEN  =    -14467.76087225
  -Hartree energ DENC   =      -759.23312830
  -exchange      EXHF   =         0.00000000
  -V(xc)+E(xc)   XCENC  =     -1195.26808208
  PAW double counting   =      4221.13331941    -1969.18571412
  entropy T*S    EENTRO =        -0.00000000
  eigenvalues    EBANDS =        75.80491541
  atomic energy  EATOM  =     13192.48085998
  Solvation  Ediel_sol  =         0.00000000
  ---------------------------------------------------
  free energy    TOTEN  =      -691.25841579 eV

  energy without entropy =     -691.25841579  energy(sigma->0) =     -691.25841579


--------------------------------------------------------------------------------------------------------




--------------------------------------- Iteration      1(   5)  ---------------------------------------


     EDDAV:  cpu time   82.3617: real time   82.3964
       DOS:  cpu time    0.0011: real time    0.0011
    CHARGE:  cpu time    3.1923: real time    3.1945
    MIXING:  cpu time    0.0365: real time    0.0365
    --------------------------------------------
      LOOP:  cpu time   85.5916: real time   85.6286

 eigenvalue-minimisations  :  6312
 total energy-change (2. order) :-0.1461350E+00  (-0.1457339E+00)
 number of electron     511.9999998 magnetization 
 augmentation part      -30.1794907 magnetization 

 Broyden mixing:
  rms(total) = 0.23986E+01    rms(broyden)= 0.23986E+01
  rms(prec ) = 0.29082E+01
  weight for this iteration     100.00

 Free energy of the ion-electron system (eV)
  ---------------------------------------------------
  alpha Z        PSCENC =       210.77028614
  Ewald energy   TEWEN  =    -14467.76087225
  -Hartree energ DENC   =      -759.23312830
  -exchange      EXHF   =         0.00000000
  -V(xc)+E(xc)   XCENC  =     -1195.26808208
  PAW double counting   =      4221.13331941    -1969.18571412
  entropy T*S    EENTRO =        -0.00000000
  eigenvalues    EBANDS =        75.65878044
  atomic energy  EATOM  =     13192.48085998
  Solvation  Ediel_sol  =         0.00000000
  ---------------------------------------------------
  free energy    TOTEN  =      -691.40455077 eV

  energy without entropy =     -691.40455077  energy(sigma->0) =     -691.40455077


--------------------------------------------------------------------------------------------------------




--------------------------------------- Iteration      1(   6)  ---------------------------------------


    POTLOK:  cpu time    0.4909: real time    0.4915
    SETDIJ:  cpu time    0.5116: real time    0.5122
     EDDAV:  cpu time   78.2102: real time   78.2340
       DOS:  cpu time    0.0010: real time    0.0010
    CHARGE:  cpu time    3.1779: real time    3.1781
    MIXING:  cpu time    0.0322: real time    0.0322
    --------------------------------------------
      LOOP:  cpu time   82.4238: real time   82.4491

 eigenvalue-minimisations  :  5920
 total energy-change (2. order) : 0.8502897E+01  (-0.6059915E+00)
 number of electron     511.9999998 magnetization 
 augmentation part      -29.8397072 magnetization 

 Broyden mixing:
  rms(total) = 0.14252E+01    rms(broyden)= 0.14252E+01
  rms(prec ) = 0.17175E+01
  weight for this iteration     100.00

 eigenvalues of (default mixing * dielectric matrix)
  average eigenvalue GAMMA=   2.4290
  2.4290

 Free energy of the ion-electron system (eV)
  ---------------------------------------------------
  alpha Z        PSCENC =       210.77028614
  Ewald energy   TEWEN  =    -14467.76087225
  -Hartree energ DENC   =      -854.76489859
  -exchange      EXHF   =         0.00000000
  -V(xc)+E(xc)   XCENC  =     -1180.61108599
  PAW double counting   =      4466.20231199    -2221.03698660
  entropy T*S    EENTRO =        -0.00000000
  eigenvalues    EBANDS =       171.81873136
  atomic energy  EATOM  =     13192.48085998
  Solvation  Ediel_sol  =         0.00000000
  ---------------------------------------------------
  free energy    TOTEN  =      -682.90165395 eV

  energy without entropy =     -682.90165395  energy(sigma->0) =     -682.90165395


--------------------------------------------------------------------------------------------------------




--------------------------------------- Iteration      1(   7)  ---------------------------------------


    POTLOK:  cpu time    0.4895: real time    0.4926
    SETDIJ:  cpu time    0.5145: real time    0.5145
     EDDAV:  cpu time   77.1095: real time   77.1360
       DOS:  cpu time    0.0013: real time    0.0013
    CHARGE:  cpu time    3.1896: real time    3.1898
    MIXING:  cpu time    0.0387: real time    0.0387
    --------------------------------------------
      LOOP:  cpu time   81.3432: real time   81.3730

 eigenvalue-minimisations  :  5808
 total energy-change (2. order) : 0.3518770E+01  (-0.1137277E+01)
 number of electron     511.9999998 magnetization 
 augmentation part      -29.3868957 magnetization 

 Broyden mixing:
  rms(total) = 0.15793E+00    rms(broyden)= 0.15793E+00
  rms(prec ) = 0.20688E+00
  weight for this iteration     100.00

 eigenvalues of (default mixing * dielectric matrix)
  average eigenvalue GAMMA=   2.0631
  2.0631  2.0631

 Free energy of the ion-electron system (eV)
  ---------------------------------------------------
  alpha Z        PSCENC =       210.77028614
  Ewald energy   TEWEN  =    -14467.76087225
  -Hartree energ DENC   =     -1004.89620309
  -exchange      EXHF   =         0.00000000
  -V(xc)+E(xc)   XCENC  =     -1156.75796550
  PAW double counting   =      4785.64815955    -2549.00279833
  entropy T*S    EENTRO =        -0.00000000
  eigenvalues    EBANDS =       310.13564984
  atomic energy  EATOM  =     13192.48085998
  Solvation  Ediel_sol  =         0.00000000
  ---------------------------------------------------
  free energy    TOTEN  =      -679.38288366 eV

  energy without entropy =     -679.38288366  energy(sigma->0) =     -679.38288366


--------------------------------------------------------------------------------------------------------




--------------------------------------- Iteration      1(   8)  ---------------------------------------


    POTLOK:  cpu time    0.4904: real time    0.4955
    SETDIJ:  cpu time    0.5131: real time    0.5131
     EDDAV:  cpu time   77.1370: real time   77.1554
       DOS:  cpu time    0.0014: real time    0.0014
    CHARGE:  cpu time    3.1431: real time    3.1432
    MIXING:  cpu time    0.0389: real time    0.0389
    --------------------------------------------
      LOOP:  cpu time   81.3238: real time   81.3475

 eigenvalue-minimisations  :  5824
 total energy-change (2. order) :-0.5039414E-01  (-0.1082428E+00)
 number of electron     511.9999998 magnetization 
 augmentation part      -29.4535763 magnetization 

 Broyden mixing:
  rms(total) = 0.64701E-01    rms(broyden)= 0.64701E-01
  rms(prec ) = 0.79664E-01
  weight for this iteration     100.00

 eigenvalues of (default mixing * dielectric matrix)
  average eigenvalue GAMMA=   1.9940
  2.6680  1.6570  1.6570

 Free energy of the ion-electron system (eV)
  ---------------------------------------------------
  alpha Z        PSCENC =       210.77028614
  Ewald energy   TEWEN  =    -14467.76087225
  -Hartree energ DENC   =      -999.08761970
  -exchange      EXHF   =         0.00000000
  -V(xc)+E(xc)   XCENC  =     -1156.76889784
  PAW double counting   =      4741.02216008    -2502.98351415
  entropy T*S    EENTRO =        -0.00000000
  eigenvalues    EBANDS =       302.89431992
  atomic energy  EATOM  =     13192.48085998
  Solvation  Ediel_sol  =         0.00000000
  ---------------------------------------------------
  free energy    TOTEN  =      -679.43327781 eV

  energy without entropy =     -679.43327781  energy(sigma->0) =     -679.43327781


--------------------------------------------------------------------------------------------------------




--------------------------------------- Iteration      1(   9)  ---------------------------------------


    POTLOK:  cpu time    0.4907: real time    0.4919
    SETDIJ:  cpu time    0.5107: real time    0.5108
     EDDAV:  cpu time   79.8184: real time   79.8276
       DOS:  cpu time    0.0011: real time    0.0011
    CHARGE:  cpu time    3.1535: real time    3.1536
    MIXING:  cpu time    0.0355: real time    0.0355
    --------------------------------------------
      LOOP:  cpu time   84.0098: real time   84.0204

 eigenvalue-minimisations  :  6088
 total energy-change (2. order) :-0.2463100E-01  (-0.1150259E-01)
 number of electron     511.9999998 magnetization 
 augmentation part      -29.4607145 magnetization 

 Broyden mixing:
  rms(total) = 0.27980E-01    rms(broyden)= 0.27980E-01
  rms(prec ) = 0.32760E-01
  weight for this iteration     100.00

 eigenvalues of (default mixing * dielectric matrix)
  average eigenvalue GAMMA=   1.7680
  2.5924  1.8057  1.8057  0.8682

 Free energy of the ion-electron system (eV)
  ---------------------------------------------------
  alpha Z        PSCENC =       210.77028614
  Ewald energy   TEWEN  =    -14467.76087225
  -Hartree energ DENC   =     -1005.39421304
  -exchange      EXHF   =         0.00000000
  -V(xc)+E(xc)   XCENC  =     -1155.62970132
  PAW double counting   =      4741.92995825    -2503.90804101
  entropy T*S    EENTRO =        -0.00000000
  eigenvalues    EBANDS =       308.05381445
  atomic energy  EATOM  =     13192.48085998
  Solvation  Ediel_sol  =         0.00000000
  ---------------------------------------------------
  free energy    TOTEN  =      -679.45790880 eV

  energy without entropy =     -679.45790880  energy(sigma->0) =     -679.45790880


--------------------------------------------------------------------------------------------------------




--------------------------------------- Iteration      1(  10)  ---------------------------------------


    POTLOK:  cpu time    0.4932: real time    0.4945
    SETDIJ:  cpu time    0.5118: real time    0.5119
     EDDAV:  cpu time   79.9090: real time   79.9161
       DOS:  cpu time    0.0016: real time    0.0016
    CHARGE:  cpu time    3.1421: real time    3.1422
    MIXING:  cpu time    0.0393: real time    0.0393
    --------------------------------------------
      LOOP:  cpu time   84.0970: real time   84.1055

 eigenvalue-minimisations  :  6104
 total energy-change (2. order) :-0.2358597E-02  (-0.7855404E-03)
 number of electron     511.9999998 magnetization 
 augmentation part      -29.4692207 magnetization 

 Broyden mixing:
  rms(total) = 0.12299E-01    rms(broyden)= 0.12299E-01
  rms(prec ) = 0.14682E-01
  weight for this iteration     100.00

 eigenvalues of (default mixing * dielectric matrix)
  average eigenvalue GAMMA=   1.8428
  2.6592  2.6592  1.4908  1.4908  0.9139

 Free energy of the ion-electron system (eV)
  ---------------------------------------------------
  alpha Z        PSCENC =       210.77028614
  Ewald energy   TEWEN  =    -14467.76087225
  -Hartree energ DENC   =     -1004.47313625
  -exchange      EXHF   =         0.00000000
  -V(xc)+E(xc)   XCENC  =     -1155.77524960
  PAW double counting   =      4735.67353544    -2497.49827592
  entropy T*S    EENTRO =        -0.00000000
  eigenvalues    EBANDS =       307.12258506
  atomic energy  EATOM  =     13192.48085998
  Solvation  Ediel_sol  =         0.00000000
  ---------------------------------------------------
  free energy    TOTEN  =      -679.46026740 eV

  energy without entropy =     -679.46026740  energy(sigma->0) =     -679.46026740


--------------------------------------------------------------------------------------------------------




--------------------------------------- Iteration      1(  11)  ---------------------------------------


    POTLOK:  cpu time    0.4899: real time    0.4940
    SETDIJ:  cpu time    0.5090: real time    0.5091
     EDDAV:  cpu time   76.1545: real time   76.1633
       DOS:  cpu time    0.0019: real time    0.0019
    CHARGE:  cpu time    3.1642: real time    3.1643
    MIXING:  cpu time    0.0336: real time    0.0336
    --------------------------------------------
      LOOP:  cpu time   80.3533: real time   80.3663

 eigenvalue-minimisations  :  5728
 total energy-change (2. order) :-0.1706604E-02  (-0.2727162E-03)
 number of electron     511.9999998 magnetization 
 augmentation part      -29.4721675 magnetization 

 Broyden mixing:
  rms(total) = 0.36405E-02    rms(broyden)= 0.36405E-02
  rms(prec ) = 0.51420E-02
  weight for this iteration     100.00

 eigenvalues of (default mixing * dielectric matrix)
  average eigenvalue GAMMA=   1.7622
  2.8415  2.1415  1.7353  1.7353  0.8839  1.2355

 Free energy of the ion-electron system (eV)
  ---------------------------------------------------
  alpha Z        PSCENC =       210.77028614
  Ewald energy   TEWEN  =    -14467.76087225
  -Hartree energ DENC   =     -1004.38990169
  -exchange      EXHF   =         0.00000000
  -V(xc)+E(xc)   XCENC  =     -1155.78431088
  PAW double counting   =      4731.01367200    -2492.73054789
  entropy T*S    EENTRO =        -0.00000000
  eigenvalues    EBANDS =       306.93884059
  atomic energy  EATOM  =     13192.48085998
  Solvation  Ediel_sol  =         0.00000000
  ---------------------------------------------------
  free energy    TOTEN  =      -679.46197400 eV

  energy without entropy =     -679.46197400  energy(sigma->0) =     -679.46197400


--------------------------------------------------------------------------------------------------------




--------------------------------------- Iteration      1(  12)  ---------------------------------------


    POTLOK:  cpu time    0.4874: real time    0.4904
    SETDIJ:  cpu time    0.5149: real time    0.5149
     EDDAV:  cpu time   80.6858: real time   80.6992
       DOS:  cpu time    0.0016: real time    0.0016
    CHARGE:  cpu time    3.1489: real time    3.1502
    MIXING:  cpu time    0.0394: real time    0.0394
    --------------------------------------------
      LOOP:  cpu time   84.8781: real time   84.8956

 eigenvalue-minimisations  :  6184
 total energy-change (2. order) :-0.8376919E-04  (-0.4175383E-04)
 number of electron     511.9999998 magnetization 
 augmentation part      -29.4704647 magnetization 

 Broyden mixing:
  rms(total) = 0.17683E-02    rms(broyden)= 0.17683E-02
  rms(prec ) = 0.21245E-02
  weight for this iteration     100.00

 eigenvalues of (default mixing * dielectric matrix)
  average eigenvalue GAMMA=   1.8387
  3.1697  2.7032  1.7564  1.7564  0.8987  1.2933  1.2933

 Free energy of the ion-electron system (eV)
  ---------------------------------------------------
  alpha Z        PSCENC =       210.77028614
  Ewald energy   TEWEN  =    -14467.76087225
  -Hartree energ DENC   =     -1004.96016264
  -exchange      EXHF   =         0.00000000
  -V(xc)+E(xc)   XCENC  =     -1155.72013416
  PAW double counting   =      4732.09013869    -2493.84466063
  entropy T*S    EENTRO =        -0.00000000
  eigenvalues    EBANDS =       307.48248710
  atomic energy  EATOM  =     13192.48085998
  Solvation  Ediel_sol  =         0.00000000
  ---------------------------------------------------
  free energy    TOTEN  =      -679.46205777 eV

  energy without entropy =     -679.46205777  energy(sigma->0) =     -679.46205777


--------------------------------------------------------------------------------------------------------




--------------------------------------- Iteration      1(  13)  ---------------------------------------


    POTLOK:  cpu time    0.4892: real time    0.4951
    SETDIJ:  cpu time    0.5125: real time    0.5126
     EDDAV:  cpu time   76.3187: real time   76.3337
       DOS:  cpu time    0.0015: real time    0.0014
    CHARGE:  cpu time    3.1248: real time    3.1249
    MIXING:  cpu time    0.0445: real time    0.0445
    --------------------------------------------
      LOOP:  cpu time   80.4913: real time   80.5122

 eigenvalue-minimisations  :  5744
 total energy-change (2. order) :-0.3274776E-04  (-0.1138499E-04)
 number of electron     511.9999998 magnetization 
 augmentation part      -29.4703826 magnetization 

 Broyden mixing:
  rms(total) = 0.63209E-03    rms(broyden)= 0.63208E-03
  rms(prec ) = 0.81566E-03
  weight for this iteration     100.00

 eigenvalues of (default mixing * dielectric matrix)
  average eigenvalue GAMMA=   1.7709
  3.1662  2.5713  1.8884  1.8884  1.3886  1.3886  0.9378  0.9378

 Free energy of the ion-electron system (eV)
  ---------------------------------------------------
  alpha Z        PSCENC =       210.77028614
  Ewald energy   TEWEN  =    -14467.76087225
  -Hartree energ DENC   =     -1004.96942317
  -exchange      EXHF   =         0.00000000
  -V(xc)+E(xc)   XCENC  =     -1155.73001469
  PAW double counting   =      4731.56431000    -2493.30915582
  entropy T*S    EENTRO =        -0.00000000
  eigenvalues    EBANDS =       307.49191928
  atomic energy  EATOM  =     13192.48085998
  Solvation  Ediel_sol  =         0.00000000
  ---------------------------------------------------
  free energy    TOTEN  =      -679.46209052 eV

  energy without entropy =     -679.46209052  energy(sigma->0) =     -679.46209052


--------------------------------------------------------------------------------------------------------




--------------------------------------- Iteration      1(  14)  ---------------------------------------


    POTLOK:  cpu time    0.4897: real time    0.4903
    SETDIJ:  cpu time    0.5129: real time    0.5129
     EDDAV:  cpu time   80.1637: real time   80.1807
       DOS:  cpu time    0.0013: real time    0.0013
    CHARGE:  cpu time    3.1301: real time    3.1312
    MIXING:  cpu time    0.0302: real time    0.0302
    --------------------------------------------
      LOOP:  cpu time   84.3278: real time   84.3465

 eigenvalue-minimisations  :  6136
 total energy-change (2. order) :-0.4416510E-05  (-0.9018831E-06)
 number of electron     511.9999998 magnetization 
 augmentation part      -29.4702412 magnetization 

 Broyden mixing:
  rms(total) = 0.18986E-03    rms(broyden)= 0.18980E-03
  rms(prec ) = 0.25292E-03
  weight for this iteration     100.00

 eigenvalues of (default mixing * dielectric matrix)
  average eigenvalue GAMMA=   1.7784
  3.2107  2.5982  2.2611  1.6793  1.6793  1.3222  1.3222  0.9986  0.9343

 Free energy of the ion-electron system (eV)
  ---------------------------------------------------
  alpha Z        PSCENC =       210.77028614
  Ewald energy   TEWEN  =    -14467.76087225
  -Hartree energ DENC   =     -1005.02266153
  -exchange      EXHF   =         0.00000000
  -V(xc)+E(xc)   XCENC  =     -1155.72232282
  PAW double counting   =      4731.73001532    -2493.47847835
  entropy T*S    EENTRO =        -0.00000000
  eigenvalues    EBANDS =       307.54107857
  atomic energy  EATOM  =     13192.48085998
  Solvation  Ediel_sol  =         0.00000000
  ---------------------------------------------------
  free energy    TOTEN  =      -679.46209494 eV

  energy without entropy =     -679.46209494  energy(sigma->0) =     -679.46209494


--------------------------------------------------------------------------------------------------------




--------------------------------------- Iteration      1(  15)  ---------------------------------------


    POTLOK:  cpu time    0.4917: real time    0.4921
    SETDIJ:  cpu time    0.5078: real time    0.5078
     EDDAV:  cpu time   80.0138: real time   80.0221
       DOS:  cpu time    0.0017: real time    0.0016
    CHARGE:  cpu time    3.1280: real time    3.1281
    MIXING:  cpu time    0.0466: real time    0.0466
    --------------------------------------------
      LOOP:  cpu time   84.1895: real time   84.1985

 eigenvalue-minimisations  :  6120
 total energy-change (2. order) :-0.3898089E-05  (-0.1652004E-06)
 number of electron     511.9999998 magnetization 
 augmentation part      -29.4700933 magnetization 

 Broyden mixing:
  rms(total) = 0.65879E-04    rms(broyden)= 0.65717E-04
  rms(prec ) = 0.86592E-04
  weight for this iteration     100.00

 eigenvalues of (default mixing * dielectric matrix)
  average eigenvalue GAMMA=   1.7248
  3.2631  2.6107  2.0556  1.7035  1.7035  1.4675  1.4675  0.9342  0.9342  1.1085

 Free energy of the ion-electron system (eV)
  ---------------------------------------------------
  alpha Z        PSCENC =       210.77028614
  Ewald energy   TEWEN  =    -14467.76087225
  -Hartree energ DENC   =     -1005.04908491
  -exchange      EXHF   =         0.00000000
  -V(xc)+E(xc)   XCENC  =     -1155.72061283
  PAW double counting   =      4731.81204653    -2493.56287984
  entropy T*S    EENTRO =        -0.00000000
  eigenvalues    EBANDS =       307.56815834
  atomic energy  EATOM  =     13192.48085998
  Solvation  Ediel_sol  =         0.00000000
  ---------------------------------------------------
  free energy    TOTEN  =      -679.46209883 eV

  energy without entropy =     -679.46209883  energy(sigma->0) =     -679.46209883


--------------------------------------------------------------------------------------------------------




--------------------------------------- Iteration      1(  16)  ---------------------------------------


    POTLOK:  cpu time    0.4893: real time    0.4928
    SETDIJ:  cpu time    0.5102: real time    0.5103
     EDDAV:  cpu time   79.2966: real time   79.3109
       DOS:  cpu time    0.0011: real time    0.0011
    CHARGE:  cpu time    3.0652: real time    3.0653
    MIXING:  cpu time    0.0183: real time    0.0183
    --------------------------------------------
      LOOP:  cpu time   83.3807: real time   83.3986

 eigenvalue-minimisations  :  6056
 total energy-change (2. order) : 0.7074123E-06  (-0.1824807E-07)
 number of electron     511.9999998 magnetization 
 augmentation part      -29.4701096 magnetization 

 Broyden mixing:
  rms(total) = 0.28563E-04    rms(broyden)= 0.28187E-04
  rms(prec ) = 0.35732E-04
  weight for this iteration     100.00

 eigenvalues of (default mixing * dielectric matrix)
  average eigenvalue GAMMA=   1.7313
  3.2769  2.6203  2.0739  2.0739  1.4919  1.4919  1.5031  1.5031  0.9223  1.0436
  1.0436

 Free energy of the ion-electron system (eV)
  ---------------------------------------------------
  alpha Z        PSCENC =       210.77028614
  Ewald energy   TEWEN  =    -14467.76087225
  -Hartree energ DENC   =     -1005.04623263
  -exchange      EXHF   =         0.00000000
  -V(xc)+E(xc)   XCENC  =     -1155.72083554
  PAW double counting   =      4731.79936046    -2493.54964822
  entropy T*S    EENTRO =        -0.00000000
  eigenvalues    EBANDS =       307.56498393
  atomic energy  EATOM  =     13192.48085998
  Solvation  Ediel_sol  =         0.00000000
  ---------------------------------------------------
  free energy    TOTEN  =      -679.46209813 eV

  energy without entropy =     -679.46209813  energy(sigma->0) =     -679.46209813


--------------------------------------------------------------------------------------------------------




--------------------------------------- Iteration      1(  17)  ---------------------------------------


    POTLOK:  cpu time    0.4916: real time    0.4929
    SETDIJ:  cpu time    0.5078: real time    0.5078
     EDDAV:  cpu time   56.0777: real time   56.0854
       DOS:  cpu time    0.0010: real time    0.0010
    CHARGE:  cpu time    3.0575: real time    3.0577
    MIXING:  cpu time    0.0506: real time    0.0506
    --------------------------------------------
      LOOP:  cpu time   60.1861: real time   60.1953

 eigenvalue-minimisations  :  3728
 total energy-change (2. order) :-0.8443021E-07  (-0.2526753E-08)
 number of electron     511.9999998 magnetization 
 augmentation part      -29.4701078 magnetization 

 Broyden mixing:
  rms(total) = 0.10706E-04    rms(broyden)= 0.96579E-05
  rms(prec ) = 0.12161E-04
  weight for this iteration     100.00

 eigenvalues of (default mixing * dielectric matrix)
  average eigenvalue GAMMA=   1.7187
  3.3018  2.6262  2.3849  1.8055  1.8055  1.5175  1.5175  1.4616  0.9246  1.0247
  1.1675  1.0873

 Free energy of the ion-electron system (eV)
  ---------------------------------------------------
  alpha Z        PSCENC =       210.77028614
  Ewald energy   TEWEN  =    -14467.76087225
  -Hartree energ DENC   =     -1005.04672160
  -exchange      EXHF   =         0.00000000
  -V(xc)+E(xc)   XCENC  =     -1155.72073191
  PAW double counting   =      4731.80553216    -2493.55582501
  entropy T*S    EENTRO =        -0.00000000
  eigenvalues    EBANDS =       307.56537427
  atomic energy  EATOM  =     13192.48085998
  Solvation  Ediel_sol  =         0.00000000
  ---------------------------------------------------
  free energy    TOTEN  =      -679.46209821 eV

  energy without entropy =     -679.46209821  energy(sigma->0) =     -679.46209821


--------------------------------------------------------------------------------------------------------




--------------------------------------- Iteration      1(  18)  ---------------------------------------


    POTLOK:  cpu time    0.4890: real time    0.4903
    SETDIJ:  cpu time    0.5095: real time    0.5096
     EDDAV:  cpu time   52.0894: real time   52.0958
       DOS:  cpu time    0.0015: real time    0.0015
    CHARGE:  cpu time    3.0540: real time    3.0542
    MIXING:  cpu time    0.0415: real time    0.0415
    --------------------------------------------
      LOOP:  cpu time   56.1849: real time   56.1929

 eigenvalue-minimisations  :  3328
 total energy-change (2. order) :-0.7015296E-07  (-0.5901029E-09)
 number of electron     511.9999998 magnetization 
 augmentation part      -29.4701043 magnetization 

 Broyden mixing:
  rms(total) = 0.62917E-05    rms(broyden)= 0.42723E-05
  rms(prec ) = 0.59360E-05
  weight for this iteration     100.00
  WARNING: grid for Broyden might be to small

 eigenvalues of (default mixing * dielectric matrix)
  average eigenvalue GAMMA=   1.7435
  3.2336  2.5290  2.5290  2.2653  1.7792  1.7792  1.4966  1.4966  0.9295  0.9688
  1.0648  1.2972  1.2972

 Free energy of the ion-electron system (eV)
  ---------------------------------------------------
  alpha Z        PSCENC =       210.77028614
  Ewald energy   TEWEN  =    -14467.76087225
  -Hartree energ DENC   =     -1005.04738602
  -exchange      EXHF   =         0.00000000
  -V(xc)+E(xc)   XCENC  =     -1155.72065485
  PAW double counting   =      4731.80826334    -2493.55859569
  entropy T*S    EENTRO =        -0.00000000
  eigenvalues    EBANDS =       307.56600106
  atomic energy  EATOM  =     13192.48085998
  Solvation  Ediel_sol  =         0.00000000
  ---------------------------------------------------
  free energy    TOTEN  =      -679.46209828 eV

  energy without entropy =     -679.46209828  energy(sigma->0) =     -679.46209828


--------------------------------------------------------------------------------------------------------




--------------------------------------- Iteration      1(  19)  ---------------------------------------


    POTLOK:  cpu time    0.4868: real time    0.4902
    SETDIJ:  cpu time    0.5079: real time    0.5080
     EDDAV:  cpu time   51.1424: real time   51.1650
       DOS:  cpu time    0.0011: real time    0.0011
    CHARGE:  cpu time    3.0541: real time    3.0543
    MIXING:  cpu time    0.0379: real time    0.0379
    --------------------------------------------
      LOOP:  cpu time   55.2303: real time   55.2566

 eigenvalue-minimisations  :  3232
 total energy-change (2. order) : 0.4274443E-07  (-0.1197512E-09)
 number of electron     511.9999998 magnetization 
 augmentation part      -29.4701061 magnetization 

 Broyden mixing:
  rms(total) = 0.50041E-05    rms(broyden)= 0.19256E-05
  rms(prec ) = 0.25610E-05
  weight for this iteration     100.00
  WARNING: grid for Broyden might be to small

 eigenvalues of (default mixing * dielectric matrix)
  average eigenvalue GAMMA=   1.7072
  3.2956  2.6975  2.4183  2.4183  1.8109  1.8109  1.5523  1.5523  1.3066  1.3066
  1.0094  1.0094  0.9195  0.7936

 Free energy of the ion-electron system (eV)
  ---------------------------------------------------
  alpha Z        PSCENC =       210.77028614
  Ewald energy   TEWEN  =    -14467.76087225
  -Hartree energ DENC   =     -1005.04703661
  -exchange      EXHF   =         0.00000000
  -V(xc)+E(xc)   XCENC  =     -1155.72068321
  PAW double counting   =      4731.80777043    -2493.55806929
  entropy T*S    EENTRO =        -0.00000000
  eigenvalues    EBANDS =       307.56564657
  atomic energy  EATOM  =     13192.48085998
  Solvation  Ediel_sol  =         0.00000000
  ---------------------------------------------------
  free energy    TOTEN  =      -679.46209824 eV

  energy without entropy =     -679.46209824  energy(sigma->0) =     -679.46209824


--------------------------------------------------------------------------------------------------------




--------------------------------------- Iteration      1(  20)  ---------------------------------------


    POTLOK:  cpu time    0.4922: real time    0.4936
    SETDIJ:  cpu time    0.5086: real time    0.5086
     EDDAV:  cpu time   50.7913: real time   50.8031
       DOS:  cpu time    0.0014: real time    0.0014
    --------------------------------------------
      LOOP:  cpu time   51.7936: real time   51.8068

 eigenvalue-minimisations  :  3200
 total energy-change (2. order) : 0.8421921E-08  (-0.4156356E-10)
 number of electron     511.9999998 magnetization 
 augmentation part      -29.4701061 magnetization 

 Free energy of the ion-electron system (eV)
  ---------------------------------------------------
  alpha Z        PSCENC =       210.77028614
  Ewald energy   TEWEN  =    -14467.76087225
  -Hartree energ DENC   =     -1005.04709027
  -exchange      EXHF   =         0.00000000
  -V(xc)+E(xc)   XCENC  =     -1155.72068019
  PAW double counting   =      4731.80760773    -2493.55790055
  entropy T*S    EENTRO =        -0.00000000
  eigenvalues    EBANDS =       307.56569118
  atomic energy  EATOM  =     13192.48085998
  Solvation  Ediel_sol  =         0.00000000
  ---------------------------------------------------
  free energy    TOTEN  =      -679.46209823 eV

  energy without entropy =     -679.46209823  energy(sigma->0) =     -679.46209823


--------------------------------------------------------------------------------------------------------




 average (electrostatic) potential at core
  the test charge radii are     0.9892
  (the norm of the test charge is              1.0000)
       1 -83.5794       2 -83.4032       3 -83.5711       4 -83.4458       5 -83.4598
       6 -83.5268       7 -83.6293       8 -83.4485       9 -83.5641      10 -83.5103
      11 -83.7322      12 -83.4342      13 -83.5401      14 -83.5261      15 -83.4273
      16 -83.4899      17 -83.4842      18 -83.4622      19 -83.4469      20 -83.5360
      21 -83.5372      22 -83.3624      23 -83.6011      24 -83.4250      25 -83.6218
      26 -83.5690      27 -83.4652      28 -83.3709      29 -83.6070      30 -83.4025
      31 -83.6265      32 -83.5560      33 -83.5363      34 -83.5114      35 -83.5943
      36 -83.3992      37 -83.7138      38 -83.5861      39 -83.4169      40 -83.3340
      41 -83.5909      42 -83.3376      43 -83.5630      44 -83.5402      45 -83.4438
      46 -83.4862      47 -83.5299      48 -83.4695      49 -83.6605      50 -83.5228
      51 -83.5130      52 -83.4215      53 -83.5616      54 -83.3705      55 -83.6785
      56 -83.3959      57 -83.5652      58 -83.5658      59 -83.6181      60 -83.6218
      61 -83.5898      62 -83.5279      63 -83.5751      64 -83.3759      65 -83.5206
      66 -83.4481      67 -83.4730      68 -83.4262      69 -83.5553      70 -83.4575
      71 -83.5354      72 -83.3977      73 -83.5536      74 -83.5423      75 -83.4976
      76 -83.5264      77 -83.5910      78 -83.4375      79 -83.4416      80 -83.5024
      81 -83.5801      82 -83.3930      83 -83.5374      84 -83.5042      85 -83.6263
      86 -83.5694      87 -83.5626      88 -83.3852      89 -83.7224      90 -83.4953
      91 -83.5053      92 -83.6237      93 -83.4637      94 -83.5835      95 -83.5942
      96 -83.4205      97 -83.5425      98 -83.5645      99 -83.4648     100 -83.5493
     101 -83.6340     102 -83.3563     103 -83.4234     104 -83.3580     105 -83.5453
     106 -83.4337     107 -83.6500     108 -83.5953     109 -83.5494     110 -83.4588
     111 -83.4534     112 -83.3983     113 -83.6169     114 -83.4259     115 -83.5126
     116 -83.4885     117 -83.5101     118 -83.5033     119 -83.5509     120 -83.5634
     121 -83.6055     122 -83.5648     123 -83.7231     124 -83.3932     125 -83.6140
     126 -83.5023     127 -83.4633     128 -83.4816
 
 
 
 E-fermi :   5.8651     XC(G=0):  -9.3316     alpha+bet :-11.7321


 k-point     1 :       0.0000    0.0000    0.0000
  band No.  band energies     occupation 
      1      -6.3024      2.00000
      2      -5.7269      2.00000
      3      -5.6526      2.00000
      4      -5.5930      2.00000
      5      -5.5867      2.00000
      6      -5.5222      2.00000
      7      -5.4786      2.00000
      8      -5.4495      2.00000
      9      -5.3921      2.00000
     10      -5.3324      2.00000
     11      -5.2459      2.00000
     12      -5.2128      2.00000
     13      -5.1963      2.00000
     14      -5.1617      2.00000
     15      -5.1014      2.00000
     16      -4.5574      2.00000
     17      -4.4992      2.00000
     18      -4.4262      2.00000
     19      -4.4022      2.00000
     20      -4.3544      2.00000
     21      -4.3180      2.00000
     22      -4.3062      2.00000
     23      -4.2667      2.00000
     24      -4.2460      2.00000
     25      -4.1778      2.00000
     26      -4.1377      2.00000
     27      -4.1016      2.00000
     28      -4.0674      2.00000
     29      -4.0083      2.00000
     30      -3.9739      2.00000
     31      -3.9555      2.00000
     32      -3.8441      2.00000
     33      -3.8039      2.00000
     34      -3.7775      2.00000
     35      -3.7600      2.00000
     36      -3.7258      2.00000
     37      -3.6934      2.00000
     38      -3.6762      2.00000
     39      -3.6695      2.00000
     40      -3.6416      2.00000
     41      -3.6404      2.00000
     42      -3.6162      2.00000
     43      -3.5838      2.00000
     44      -3.5689      2.00000
     45      -3.5373      2.00000
     46      -3.5190      2.00000
     47      -3.4750      2.00000
     48      -3.4527      2.00000
     49      -3.4238      2.00000
     50      -3.3669      2.00000
     51      -3.3414      2.00000
     52      -3.2800      2.00000
     53      -3.2654      2.00000
     54      -3.2534      2.00000
     55      -3.2018      2.00000
     56      -2.3482      2.00000
     57      -2.3141      2.00000
     58      -2.2571      2.00000
     59      -2.2415      2.00000
     60      -2.2269      2.00000
     61      -2.1741      2.00000
     62      -2.1462      2.00000
     63      -2.0962      2.00000
     64      -2.0632      2.00000
     65      -2.0254      2.00000
     66      -1.9870      2.00000
     67      -1.9649      2.00000
     68      -1.9306      2.00000
     69      -1.9157      2.00000
     70      -1.9113      2.00000
     71      -1.8696      2.00000
     72      -1.8494      2.00000
     73      -1.8162      2.00000
     74      -1.4257      2.00000
     75      -1.3090      2.00000
     76      -1.2647      2.00000
     77      -1.2191      2.00000
     78      -1.0371      2.00000
     79      -0.9607      2.00000
     80      -0.9242      2.00000
     81      -0.9121      2.00000
     82      -0.9002      2.00000
     83      -0.8654      2.00000
     84      -0.8498      2.00000
     85      -0.8190      2.00000
     86      -0.8165      2.00000
     87      -0.7781      2.00000
     88      -0.7459      2.00000
     89      -0.7115      2.00000
     90      -0.7050      2.00000
     91      -0.6913      2.00000
     92      -0.6688      2.00000
     93      -0.6441      2.00000
     94      -0.6137      2.00000
     95      -0.5943      2.00000
     96      -0.5752      2.00000
     97      -0.5559      2.00000
     98      -0.5276      2.00000
     99      -0.5002      2.00000
    100      -0.4287      2.00000
    101      -0.3940      2.00000
    102      -0.0028      2.00000
    103       0.0470      2.00000
[...]
   -.993E+00 0.458E+01 -.902E+01   0.141E+01 -.364E+01 0.845E+01   -.112E+01 -.176E+01 0.242E+01   -.128E-05 -.395E-05 -.144E-05
   0.395E+00 -.596E+01 -.322E+01   -.523E+00 0.562E+01 0.334E+01   0.476E+00 0.118E+01 -.466E+00   0.768E-06 0.989E-06 -.475E-06
   -.265E+01 0.908E+01 -.257E+01   0.237E+01 -.793E+01 0.171E+01   0.139E+01 -.198E+01 0.546E+00   0.288E-05 0.182E-05 0.498E-05
   0.355E+01 -.312E+00 0.733E+01   -.348E+01 0.240E+00 -.649E+01   0.236E+00 0.436E+00 -.211E+01   -.315E-06 -.507E-05 -.818E-06
   0.915E+01 -.415E+01 0.123E+01   -.807E+01 0.368E+01 -.111E+01   -.251E+01 -.113E+00 0.337E+00   0.147E-05 -.102E-05 -.221E-06
   -.320E+00 0.219E+01 -.752E+00   -.235E+00 -.199E+01 0.107E+01   -.154E+00 -.157E+01 -.186E+00   0.170E-05 0.312E-05 -.461E-05
   -.705E+01 -.465E+01 0.102E+02   0.640E+01 0.454E+01 -.979E+01   0.131E+01 0.344E-01 -.166E+01   -.164E-06 -.267E-05 -.131E-05
   -.502E+01 -.875E+01 0.759E+01   0.501E+01 0.793E+01 -.746E+01   0.593E-01 0.194E+01 -.176E+01   0.124E-06 0.183E-05 0.102E-05
   0.409E+01 -.638E+00 0.646E+01   -.355E+01 0.739E+00 -.568E+01   -.278E+00 -.202E+00 -.225E+01   0.307E-05 -.702E-07 0.153E-05
   -.674E+01 -.869E+01 0.768E+01   0.614E+01 0.822E+01 -.682E+01   0.848E+00 0.602E+00 -.187E+01   -.450E-05 0.108E-05 0.216E-06
   -.112E+02 -.122E+02 0.357E+01   0.111E+02 0.108E+02 -.383E+01   0.179E+01 0.221E+01 -.603E-01   -.211E-05 0.517E-06 -.287E-06
   -.288E+01 0.259E+01 0.642E+01   0.344E+01 -.240E+01 -.589E+01   -.426E+00 -.882E-01 -.185E+00   -.405E-05 0.247E-05 0.200E-05
   0.123E+01 0.639E+00 -.372E+01   -.619E+00 -.889E+00 0.298E+01   -.775E+00 0.104E+00 0.160E+01   -.462E-05 -.546E-06 -.595E-05
   -.329E+01 -.198E+00 -.390E+01   0.299E+01 0.406E+00 0.372E+01   -.215E+00 -.117E+01 0.150E+01   -.230E-06 -.942E-06 0.122E-05
   0.222E+01 -.216E+01 0.418E+01   -.151E+01 0.186E+01 -.394E+01   -.604E+00 0.101E+01 -.345E+00   0.139E-05 0.149E-05 0.902E-06
   -.133E+02 0.347E+01 -.559E+01   0.121E+02 -.295E+01 0.537E+01   0.245E+01 0.757E+00 0.158E+01   -.718E-06 -.290E-05 0.138E-05
   -.555E+01 0.536E+01 -.529E+01   0.496E+01 -.519E+01 0.457E+01   0.718E+00 -.180E+01 0.111E+01   0.124E-05 -.219E-05 0.251E-05
   0.142E+01 0.686E+00 0.345E+01   -.141E+01 -.141E+00 -.331E+01   0.547E+00 0.262E+00 -.295E-01   0.440E-05 0.168E-05 0.343E-05
   0.735E+01 -.552E+01 0.148E+01   -.660E+01 0.499E+01 -.147E+01   -.125E+01 0.172E+00 0.286E+00   -.156E-06 -.441E-05 -.954E-07
   -.569E+01 -.186E+01 0.499E+01   0.504E+01 0.173E+01 -.526E+01   0.196E+01 0.150E+00 0.889E+00   0.614E-06 0.665E-06 0.216E-05
   0.276E+01 -.571E+01 -.308E+01   -.244E+01 0.558E+01 0.253E+01   -.138E+00 0.333E+00 -.190E-01   0.307E-05 -.149E-05 -.149E-05
   -.161E+02 -.121E+02 -.135E+02   0.142E+02 0.113E+02 0.128E+02   0.447E+01 0.291E+01 0.237E+01   -.606E-05 -.595E-05 -.815E-05
   0.115E+01 0.391E+01 -.291E+01   -.392E+00 -.397E+01 0.239E+01   -.163E+01 -.791E+00 -.231E+00   -.548E-06 -.328E-06 0.138E-05
   -.439E+01 0.719E+01 0.811E+01   0.440E+01 -.652E+01 -.764E+01   0.114E+01 -.662E+00 -.586E+00   -.137E-06 0.221E-05 0.195E-05
   0.372E+01 0.180E+01 -.873E+00   -.345E+01 -.210E+01 0.405E+00   0.110E+01 -.120E+01 0.124E+01   -.266E-05 0.425E-05 0.142E-05
   0.126E+02 0.249E+01 0.144E+01   -.119E+02 -.190E+01 -.105E+01   -.304E+01 -.131E+01 -.455E+00   -.365E-06 0.225E-05 -.519E-07
   0.711E+01 0.334E+00 0.100E+02   -.649E+01 -.669E+00 -.897E+01   -.149E+01 0.864E+00 -.175E+01   0.377E-05 0.218E-05 -.703E-06
   -.470E+01 0.404E+01 0.446E+01   0.390E+01 -.429E+01 -.396E+01   -.720E-01 0.868E+00 -.912E+00   -.269E-05 0.240E-05 -.319E-05
   0.525E+01 -.548E+01 -.798E+01   -.468E+01 0.520E+01 0.741E+01   -.214E+01 0.198E+00 0.835E+00   -.218E-05 0.358E-06 -.423E-05
   0.886E+00 -.503E+01 0.221E+01   -.109E+01 0.466E+01 -.115E+01   0.273E+00 0.222E+01 -.884E+00   0.251E-05 0.241E-05 0.248E-05
   0.497E+00 -.970E+01 -.740E+01   -.794E+00 0.815E+01 0.671E+01   -.453E+00 0.423E+01 0.996E+00   0.568E-06 -.969E-06 -.390E-05
   -.439E+01 0.715E+01 -.889E-01   0.393E+01 -.723E+01 0.443E+00   0.127E+00 -.355E+00 -.311E+00   0.222E-05 -.503E-07 0.766E-06
   -.527E+01 0.754E+01 0.543E+00   0.452E+01 -.660E+01 -.490E+00   0.168E+01 -.281E+01 -.313E+00   0.388E-05 -.256E-05 0.132E-05
   0.551E+01 -.119E+01 -.374E+01   -.553E+01 0.124E+01 0.307E+01   -.107E+01 0.288E-01 0.156E+01   0.363E-05 -.521E-05 0.243E-05
   0.235E+01 0.120E+00 -.799E+00   -.192E+01 0.226E+00 0.612E+00   -.350E+00 -.163E+01 0.661E-01   -.161E-05 -.234E-05 0.198E-06
   -.565E+01 -.424E+01 0.801E+01   0.501E+01 0.390E+01 -.743E+01   0.225E+00 0.145E+01 -.247E+01   -.198E-05 0.140E-05 0.214E-05
   0.884E+01 -.652E+01 0.153E+01   -.803E+01 0.574E+01 -.110E+01   -.191E+01 0.241E+01 -.495E+00   0.158E-05 0.116E-05 0.200E-05
   0.396E+01 -.815E+00 0.152E+01   -.391E+01 0.128E+01 -.127E+01   -.532E+00 -.335E+00 -.698E+00   0.511E-06 -.132E-05 0.104E-06
   0.150E+02 -.323E+00 0.594E+01   -.132E+02 -.838E-01 -.567E+01   -.326E+01 0.165E+01 -.130E+01   0.438E-05 0.149E-05 0.185E-05
   -.805E+01 -.521E+00 0.168E+02   0.694E+01 0.216E+00 -.158E+02   0.248E+01 0.132E+01 -.277E+01   -.702E-06 0.370E-05 0.243E-06
   -.641E+01 -.127E+02 -.118E+02   0.568E+01 0.116E+02 0.107E+02   0.168E+01 0.253E+01 0.283E+01   -.306E-05 -.304E-05 -.292E-05
   0.130E+02 -.657E+00 -.112E+02   -.120E+02 0.124E+01 0.105E+02   -.260E+01 0.256E+00 0.225E+01   -.138E-05 0.364E-05 0.318E-05
   0.169E+01 -.147E+02 -.178E+01   -.180E+01 0.124E+02 0.121E+01   -.679E+00 0.489E+01 -.459E+00   -.849E-06 -.157E-05 -.199E-05
   -.115E+02 -.164E+01 0.107E+02   0.102E+02 0.200E+01 -.882E+01   0.147E+01 0.820E+00 -.357E+01   -.887E-06 0.246E-06 -.322E-05
   0.857E+00 0.104E+02 0.771E+01   -.116E+01 -.978E+01 -.711E+01   0.733E+00 -.278E+01 -.240E+01   0.629E-06 -.554E-07 -.210E-05
   0.337E+00 -.425E+01 -.666E+01   -.354E+00 0.421E+01 0.576E+01   -.704E+00 0.107E+01 0.112E+01   -.332E-05 -.831E-06 0.283E-05
   -.131E+01 0.125E+02 -.345E+00   0.125E+01 -.119E+02 0.470E+00   0.110E+01 -.276E+01 -.340E+00   -.358E-06 -.745E-06 -.497E-05
   0.373E+01 -.139E+01 -.392E+01   -.319E+01 0.114E+01 0.368E+01   -.103E+01 0.726E+00 0.762E+00   -.146E-05 0.110E-05 0.217E-05
   0.310E+01 0.554E+01 -.694E+01   -.261E+01 -.520E+01 0.655E+01   -.761E+00 -.108E+01 0.225E+01   0.355E-05 0.441E-07 0.100E-05
   0.547E+01 -.268E+01 0.828E+00   -.504E+01 0.268E+01 -.404E+00   -.172E+01 -.919E-01 -.841E+00   -.155E-05 -.381E-05 -.179E-05
   -.150E+01 -.777E+00 -.122E+00   0.160E+01 0.763E+00 0.861E-01   -.856E+00 0.404E+00 -.130E+01   0.894E-06 0.162E-05 0.112E-05
   -.606E+01 0.295E+01 0.613E+01   0.496E+01 -.242E+01 -.536E+01   0.218E+01 0.322E+00 -.188E+01   0.189E-05 0.366E-05 0.194E-05
   0.107E+01 0.341E+01 0.174E+01   -.120E+01 -.313E+01 -.212E+01   0.598E+00 -.123E+01 0.621E+00   0.322E-07 -.535E-05 0.184E-05
 -----------------------------------------------------------------------------------------------
   -.533E+00 0.182E+00 -.126E+00   0.813E-13 0.228E-12 0.104E-12   0.533E+00 -.182E+00 0.126E+00   -.507E-05 -.839E-06 -.143E-05
 
 
 POSITION                                       TOTAL-FORCE (eV/Angst)
 -----------------------------------------------------------------------------------
      0.10404     10.91078     10.87736        -0.735526      1.407752      0.832860
      0.08510      2.76944      2.73609        -1.711814      0.577111      0.965040
     10.98090      5.48675     16.25207        -0.087118     -0.334982      2.639054
     10.95580      8.23074     19.10522         0.190098      0.068555      0.585206
     13.61478     21.74073     13.66703        -0.249072      3.501020      0.035615
      2.79288      2.73041      5.42756         0.486234     -0.586047      1.317351
      2.67190      5.65790      8.29332         0.329245     -1.950370     -0.767642
      2.73164      8.16228     10.72430         0.841261      0.043989      3.152487
     16.41459     10.90845      5.58484         0.230862      0.317681     -1.974664
      5.57885      2.66574      8.21601        -2.415426     -0.717689     -1.486218
     16.52408     16.30046     10.98347        -1.095572      1.267322     -0.744929
     16.36561     19.09965     13.66029         0.182196      1.607794     -0.199177
     19.01519     10.93978      8.10599         2.484183     -0.934671      1.037276
      8.12123      2.87520     10.96964         0.389997     -1.150260     -0.338931
      8.21391      5.60904     13.57552        -0.734626     -0.900316      1.622381
     19.22024     18.95458     16.53399        -0.583472      2.197671     -0.513710
     13.65752      2.86632     11.00735         1.166622      0.125444     -0.103840
     13.54742      5.41705     13.59376         0.750178      0.420072      0.960051
      2.86357      8.10232      5.49521        -0.477775      1.363075     -0.583250
     13.64868     10.91010     19.04780         0.752209      0.002592      2.117972
      5.50074     13.57693     13.68103         0.996138      1.823046     -1.567550
      5.44389      5.39828      5.50207        -0.414458      0.747213     -1.324208
      5.47483      8.24983      8.17148         0.735693     -0.483968      0.423807
      5.48826     10.85867     10.94027        -0.821579      0.163055      0.291210
      8.00589      2.68609      5.52798         2.464345      1.350716     -1.217850
      8.07610      5.31262      8.06126         0.976873      0.929597      0.411427
      8.10238      8.27074     11.00645         0.034846     -1.460147     -1.207958
      8.19508     11.01772     13.69852         0.806063     -0.149786     -0.618322
     11.06908     13.69424     19.08268        -2.343145     -0.249410      0.195605
     10.93883      5.40392     10.85998        -0.704463      0.708367      0.467063
     11.00618      8.17280     13.89796        -1.330678     -0.320297     -1.841520
     11.07185     10.91328     16.47978        -1.254180      0.811069     -1.253163
      5.59672      5.54883      0.08970        -2.270909     -1.356211     -1.939067
     16.42113      8.19381     13.50374        -0.621797      0.450155      1.785597
     16.39140     10.92999     16.36796         0.800056     -1.249664      1.471626
      5.58445     13.67001      8.28283        -1.387564     -0.670610      0.149311
      8.15622     16.33410     13.58823         1.138112      0.290457      0.755701
      8.26680      8.09862      5.48819         0.333210      0.172191      0.397664
      8.26586     10.96806      8.29982        -0.210912     -0.209822     -1.358375
      8.09193     13.58464     10.88024         0.371057      1.390256     -0.325422
     11.06812     16.38246     16.38955        -0.612882      0.720882      0.114261
     10.94121      8.29102      8.24271        -0.664288     -2.443246     -0.629191
     10.82049     10.99153     10.96228         1.562762     -1.737706      0.446531
     10.90041     13.63768     13.60250         0.475688      0.613435      0.462168
     13.62663      5.58593      8.32238         1.056906     -1.865492     -0.742467
     13.62852      8.18144     10.94024         1.683691     -0.157255      0.655234
     13.68534     11.00921     13.68483        -0.103375     -0.226670      0.089526
     13.60548     13.49334     16.38834         0.209350      1.509079      0.106970
     19.09738     19.19440     21.76291         1.248969     -1.412982      0.369868
      8.16447     10.77782      2.62015         1.311429      0.868710      1.333500
     19.15566     13.78407     16.40920        -0.559886     -2.108293     -0.623982
      8.33593     16.30523      8.28264        -2.450788      0.833866     -1.076178
     10.93940      8.30185      2.67014         0.049427      0.110848      0.349543
     11.04144     11.09218      5.49723        -0.012609     -2.220620     -0.196999
     10.76069     13.85218      8.29108         1.846270     -1.941675     -0.126238
     10.90480     16.18986     10.87279         0.037839      2.828288      0.968714
     13.75592      8.35356      5.44254        -0.412906     -2.027714      0.000705
     13.51728     10.89915      8.10391         2.109592     -1.205288      1.841234
     13.65071     13.72140     10.87549         0.334181     -0.544860      1.080154
     13.64392     16.37047     13.72424         0.197093      0.561338     -1.196389
     16.37216     18.97428     19.09829         0.887793      1.142200      0.460657
     16.46159     10.90061     10.91022        -0.458217      1.369212     -0.355818
     16.39688     13.69094     13.63802        -0.226878     -0.924901      0.879324
     16.32246     16.43415     16.33458        -0.411122     -0.265427      0.595390
      1.38029      1.55983      1.38138         0.315462     -2.365184     -0.402892
      1.41289      4.05625      4.23266        -0.190047      0.098967     -1.775790
      1.42667      6.94381      6.80773        -1.141150     -0.955165     -0.205295
      1.42726      9.54781      9.64527        -0.713089      0.536097     -2.258482
      4.10606      1.46278      3.90927        -1.333144     -2.510814      2.349613
      4.18055      4.13405      6.83355        -1.323729     -0.758995      1.204349
      4.16436      6.90744      9.49625         0.753659     -1.114690      1.082298
      4.02521      9.66702     12.41565         1.468391     -2.218426     -2.525770
      6.90514      1.34197      6.84282        -2.057126     -0.336031      0.120616
      6.68573      4.05005      9.42677         2.041904      0.881069      1.925710
      6.76907      6.88169     12.35185         0.301078     -0.138334     -0.991298
      6.92928      9.56828     14.93670        -0.701038     -0.812220      1.845545
      9.50284      1.30716      9.58424         0.347450      0.834097     -0.345042
      9.50659      4.21737     12.32758         1.105208     -0.834312     -0.312011
      9.52292      6.76409     15.12855         0.305130      0.363867     -1.273470
      9.67625      9.61212     17.73659        -1.421574     -0.586229      0.451869
      4.22592      4.25551      1.41779        -0.710060     -1.363815      0.132663
      4.06270      6.75091      4.09705         0.660987     -0.083225     -1.266916
      4.09514      9.48741      6.92437         0.054780      1.116837     -1.627456
      4.06393     12.32214      9.75229         0.258467     -0.100245     -1.476249
      6.77101      4.06508      4.16726         0.249652      0.133475     -1.009698
      6.66835      6.74865      6.84083         1.616232      0.841698     -0.321747
      6.84297      9.57177      9.52314         0.142708      0.104595      0.347628
      6.82757     12.25209     12.21884        -0.165337     -0.146236      0.865842
      9.59961      4.12742      6.63032        -0.517883     -0.957938      1.325508
      9.44480      6.73497      9.53538         0.111613      0.708018     -0.111324
      9.48474      9.47201     12.31567         1.257316      1.280215      1.364678
      9.54309     12.46827     15.07793         0.119573     -1.631571      0.379934
     12.29782      4.05891      9.55025         0.558522      0.806877      0.117327
     12.25481      6.86293     12.27476        -0.500722     -0.350931      0.293306
     12.33717      9.58980     15.04831         1.317600      0.026378      0.616940
     12.30719     12.25758     17.83862         0.185235      0.207064     -0.567490
      6.80260      6.80222      1.27729         2.484182      2.112516      1.588425
      6.94258      9.55600      4.16491        -0.870108     -0.843354     -0.746099
      6.79575     12.29693      6.85505         1.145475      0.013721     -0.122943
      6.73007     15.21990      9.51180         1.365126     -1.501277      0.773437
      9.85212      6.87654      4.07739        -2.365426     -0.728916     -0.064343
      9.67099      9.59683      6.87500        -0.866059      0.529624     -0.696292
      9.60517     12.31887      9.61882        -0.876355      0.616042     -0.408079
      9.58524     14.92892     12.21885        -1.570897     -0.088379      0.264012
     12.34909      6.77337      6.83301         0.064980      1.846836      0.178478
     12.35200      9.38303      9.56575        -0.749783      2.673448      0.301056
     12.33155     12.33823     12.26962        -0.331640     -0.435751      0.043562
     12.23350     15.07307     15.00790         0.932505     -1.866074     -0.260214
     15.13604      6.80624      9.60650        -1.090070      0.078274      0.882530
     14.99904      9.71018     12.26620         0.077978     -1.287895     -0.121614
     15.06684     12.22827     15.15058        -0.420211      1.109774     -1.889865
     15.10801     14.81955     17.77038        -1.096682      1.633055     -0.062545
      9.62457      9.56224      1.26820        -0.482235      0.134882     -0.448958
      9.68505     12.20573      4.10025        -1.522245      1.239387     -1.040129
      9.46781     15.00927      6.88939         1.378909      1.019474     -1.748857
      9.59142     17.67466      9.43857         0.953636      1.398333      1.703946
     12.38366      9.50631      4.02162        -1.565432      0.839032      1.595227
     12.29596     12.28695      6.94844        -0.798306      2.567445     -1.024996
     12.30067     14.97910      9.63055         0.205687      1.179621     -1.655132
     12.32338     17.94106     12.39194         0.427282     -2.163028     -1.797745
     15.11620      9.49908      6.88563        -0.720113      1.020015      0.220349
     14.91372     12.44577      9.48877         1.034409     -2.174686     -0.215283
     15.05193     15.00349     12.24655        -0.487103      0.473755      0.515710
     14.99316     17.84686     14.89800        -0.267884     -0.743196      1.852635
     17.79521      9.54802      9.48634        -1.283530     -0.097628     -0.417535
     17.84351     12.29221     12.40737        -0.759327      0.390104     -1.341160
     17.66536     15.02868     15.09195         1.081925      0.845829     -1.109596
     17.74581     17.68791     17.77145         0.467811     -0.953557      0.244100
 -----------------------------------------------------------------------------------
    total drift:                                0.000004      0.000004      0.000006


--------------------------------------------------------------------------------------------------------



  FREE ENERGIE OF THE ION-ELECTRON SYSTEM (eV)
  ---------------------------------------------------
  free  energy   TOTEN  =      -679.46209823 eV

  energy  without entropy=     -679.46209823  energy(sigma->0) =     -679.46209823
 


--------------------------------------------------------------------------------------------------------


    POTLOK:  cpu time    1.0029: real time    1.0031


--------------------------------------------------------------------------------------------------------


     LOOP+:  cpu time 1652.4020: real time 1652.8174
    4ORBIT:  cpu time    0.0000: real time    0.0000

 total amount of memory used by VASP MPI-rank0   221701. kBytes
=======================================================================

   base      :      30000. kBytes
   nonl-proj :      10690. kBytes
   fftplans  :      66746. kBytes
   grid      :      26864. kBytes
   one-center:         24. kBytes
   wavefun   :      87377. kBytes
 
  
  
 General timing and accounting informations for this job:
 ========================================================
  
                  Total CPU time used (sec):     1676.389
                            User time (sec):     1675.041
                          System time (sec):        1.348
                         Elapsed time (sec):     1677.840
  
                   Maximum memory used (kb):      337876.
                   Average memory used (kb):           0.
  
                          Minor page faults:       150193
                          Major page faults:            0
                 Voluntary context switches:         1331
