<?xml version="1.0" encoding="ISO-8859-1"?>
<modeling>
 <generator>
  <i name="program" type="string">vasp </i>
  <i name="version" type="string">5.4.4.18Apr17-6-g9f103f2a35  </i>
  <i name="subversion" type="string">(build Nov 08 2017 09:05:29) complex            parallel </i>
  <i name="platform" type="string">Intel_17.33 </i>
  <i name="date" type="string">2020 07 18 </i>
  <i name="time" type="string">23:32:40 </i>
 </generator>
 <incar>
  <i type="string" name="SYSTEM">potpaw_PBE@./ARUN.APL1ZEROSTATE</i>
  <i type="string" name="PREC">accurate</i>
  <i type="string" name="ALGO">Normal</i>
  <i type="int" name="NSIM">     4</i>
  <i type="logical" name="ADDGRID"> T  </i>
  <i type="int" name="NELM">   120</i>
  <i type="int" name="NELMIN">     4</i>
  <i name="EDIFF">      0.00000001</i>
  <i type="int" name="NSW">     0</i>
  <i type="int" name="ISYM">     2</i>
  <i name="ENMAX">    500.00000000</i>
  <i type="logical" name="LREAL"> F  </i>
  <i type="logical" name="LPLANE"> T  </i>
  <i type="int" name="ISMEAR">     0</i>
  <i name="SIGMA">      0.01000000</i>
  <i type="logical" name="LWAVE"> F  </i>
  <i type="logical" name="LCHARG"> F  </i>
  <i type="logical" name="LELF"> F  </i>
  <i type="logical" name="LAECHG"> F  </i>
  <v type="int" name="KPOINT_BSE">    -1     0     0     0</v>
  <i type="int" name="NELM">   120</i>
 </incar>
 <structure name="primitive_cell" >
  <crystal>
   <varray name="basis" >
    <v>       0.00000000      10.93733369      10.93733369 </v>
    <v>      10.93733369       0.00000000      10.93733369 </v>
    <v>      10.93733369      10.93733369       0.00000000 </v>
   </varray>
   <i name="volume">   2616.76295363 </i>
   <varray name="rec_basis" >
    <v>      -0.04571498       0.04571498       0.04571498 </v>
    <v>       0.04571498      -0.04571498       0.04571498 </v>
    <v>       0.04571498       0.04571498      -0.04571498 </v>
   </varray>
  </crystal>
  <varray name="positions" >
   <v>      -0.00871176       0.00322874       0.00628363 </v>
   <v>      -0.18783615       0.06970288       0.06079179 </v>
   <v>       0.05512664       0.06082527      -0.18085148 </v>
   <v>       0.06347793      -0.18719086       0.05603555 </v>
   <v>       0.07135732       0.05494227       0.07125759 </v>
   <v>       0.00148940       0.24264099      -0.24245202 </v>
   <v>      -0.00373406       0.25331052      -0.00851210 </v>
   <v>      -0.25442453      -0.00403622       0.25193464 </v>
   <v>      -0.26147697       0.24199915       0.00775426 </v>
   <v>      -0.25118163      -0.00202927       0.00371790 </v>
   <v>      -0.00762662      -0.24764493       0.25969020 </v>
   <v>       0.00988145      -0.00348011       0.25218619 </v>
   <v>      -0.00067391      -0.00954451      -0.24438298 </v>
   <v>       0.23924935       0.00031121      -0.25383397 </v>
   <v>       0.24779512       0.00236593       0.00541454 </v>
   <v>       0.00139806      -0.26026760      -0.00117432 </v>
   <v>       0.26165444      -0.25870082       0.00122501 </v>
   <v>      -0.17665021       0.06830190       0.30326310 </v>
   <v>      -0.17669070       0.30968564      -0.18295905 </v>
   <v>      -0.18677567      -0.18223998       0.30748604 </v>
   <v>      -0.17450362       0.30966558       0.05835886 </v>
   <v>       0.05994796      -0.18676864       0.31115828 </v>
   <v>      -0.19210399      -0.18623985       0.07093932 </v>
   <v>       0.05231020       0.31538657      -0.18314865 </v>
   <v>       0.30267602       0.07220989      -0.18670651 </v>
   <v>       0.05664790      -0.18931183      -0.18367306 </v>
   <v>       0.31342493      -0.17901972      -0.18954867 </v>
   <v>      -0.19899050       0.06195874      -0.18501603 </v>
   <v>       0.32175836      -0.19464808       0.06383564 </v>
   <v>      -0.25387596      -0.23937804       0.25167644 </v>
   <v>      -0.25435767       0.25462590       0.24716536 </v>
   <v>       0.24343535      -0.25050768       0.25064453 </v>
   <v>       0.24454015      -0.24701917      -0.24789800 </v>
   <v>       0.25362523       0.24898661      -0.23946805 </v>
   <v>      -0.26134447       0.25544323      -0.25841737 </v>
   <v>      -0.43694475       0.07003993       0.30437833 </v>
   <v>       0.05787462       0.29955004       0.07586708 </v>
   <v>      -0.43656884       0.05899930       0.07144138 </v>
   <v>      -0.44047965       0.30872150       0.07202620 </v>
   <v>       0.05036951       0.32242635      -0.42164735 </v>
   <v>       0.05849930      -0.43286053       0.06419677 </v>
   <v>       0.30987070       0.07092664      -0.43616639 </v>
   <v>       0.05837415       0.05840865      -0.43644735 </v>
   <v>       0.31433719       0.07265482       0.05652586 </v>
   <v>       0.05294395      -0.44673367       0.32442579 </v>
   <v>       0.06616726       0.06346141       0.32291407 </v>
   <v>       0.31045469      -0.44856567       0.05984143 </v>
   <v>      -0.48436629       0.24262386       0.00166746 </v>
   <v>      -0.25593387      -0.24568127       0.48962936 </v>
   <v>      -0.49958222       0.24670006       0.25386351 </v>
   <v>       0.24975828      -0.00688172       0.24552209 </v>
   <v>      -0.25053348       0.49949304      -0.00318632 </v>
   <v>      -0.25629361      -0.23200435      -0.01069007 </v>
   <v>      -0.00536913       0.25622507       0.24670764 </v>
   <v>       0.24242177      -0.49123243       0.00130631 </v>
   <v>       0.00183729       0.49577424      -0.23807138 </v>
   <v>      -0.25171924       0.00901817      -0.49843231 </v>
   <v>       0.49070287       0.01172435       0.25009184 </v>
   <v>       0.01287689      -0.25196162       0.49784418 </v>
   <v>      -0.25704320       0.01432481      -0.25217064 </v>
   <v>      -0.24795280      -0.49724058      -0.25529614 </v>
   <v>       0.24526482       0.25097652       0.00437642 </v>
   <v>       0.24121103      -0.00656497      -0.49205134 </v>
   <v>       0.00951663       0.49590621       0.23607231 </v>
   <v>       0.24218785       0.49485307       0.24354448 </v>
   <v>      -0.00496267       0.24733410       0.49838875 </v>
   <v>       0.24320424       0.25858121       0.49725217 </v>
   <v>       0.49975980      -0.25283647      -0.24799779 </v>
   <v>      -0.49541599      -0.00429135      -0.24430700 </v>
   <v>      -0.49847692      -0.26031378       0.01131144 </v>
   <v>      -0.00796618      -0.24587830      -0.25721602 </v>
   <v>      -0.18848108      -0.44939491      -0.17978111 </v>
   <v>      -0.20081437      -0.17444041      -0.44423509 </v>
   <v>      -0.19343455       0.31060258       0.31364226 </v>
   <v>      -0.43990287       0.31060298       0.31504959 </v>
   <v>      -0.43766269      -0.18647054       0.31445734 </v>
   <v>      -0.17698805      -0.44443764       0.31696192 </v>
   <v>       0.31202985      -0.44021005       0.30374818 </v>
   <v>      -0.43729514       0.31781558      -0.19316590 </v>
   <v>       0.31465053      -0.19236997       0.31282724 </v>
   <v>      -0.19022505      -0.18493152      -0.19256981 </v>
   <v>       0.31090063       0.31768066      -0.43346261 </v>
   <v>      -0.19712926       0.31429825      -0.43792026 </v>
   <v>       0.31896881      -0.19747082      -0.43116786 </v>
   <v>       0.31723592       0.31805997      -0.19384074 </v>
   <v>      -0.43060752      -0.18953595      -0.19532086 </v>
   <v>       0.32095643      -0.45339858      -0.18304043 </v>
   <v>       0.49859315      -0.00207092      -0.49926422 </v>
   <v>       0.00191131       0.00628975      -0.49458158 </v>
   <v>       0.49188647      -0.48766793      -0.00153562 </v>
   <v>       0.00359784      -0.49297640      -0.00623839 </v>
   <v>       0.49179803      -0.00587194       0.00985546 </v>
   <v>      -0.00780657      -0.49369731      -0.49434531 </v>
   <v>      -0.43715699      -0.17762616      -0.44481307 </v>
   <v>      -0.43018708      -0.44048392       0.05937985 </v>
   <v>      -0.43513510       0.06189218      -0.44055668 </v>
   <v>      -0.43451895      -0.18227850       0.05295910 </v>
   <v>       0.05747726      -0.43273510      -0.43818825 </v>
   <v>      -0.17705620       0.04671943      -0.43138923 </v>
   <v>      -0.18410339      -0.44372475      -0.43776637 </v>
   <v>      -0.44236342      -0.43793487      -0.18586788 </v>
   <v>      -0.19652741      -0.43781110       0.07135462 </v>
   <v>       0.05798986      -0.42843690      -0.18948944 </v>
   <v>       0.05836417      -0.18004239      -0.43606979 </v>
   <v>      -0.43172377       0.06162025      -0.19597917 </v>
   <v>      -0.49418282      -0.23512718       0.24142188 </v>
   <v>      -0.47964604       0.23769925      -0.25384991 </v>
   <v>      -0.25151109       0.24629058       0.49355427 </v>
   <v>      -0.48914357       0.49546311       0.24533676 </v>
   <v>       0.25078207       0.49015813      -0.25427334 </v>
   <v>      -0.49959557       0.49394082      -0.24585729 </v>
   <v>      -0.49673729      -0.25205917      -0.49669102 </v>
   <v>      -0.49704246       0.25589495       0.49985198 </v>
   <v>      -0.24473561       0.49719054       0.25208543 </v>
   <v>       0.25111966      -0.25085358       0.49690864 </v>
   <v>      -0.25302781       0.49670391       0.49991998 </v>
   <v>       0.25566194       0.49796844      -0.49761407 </v>
   <v>       0.31639931       0.30905749       0.30062904 </v>
   <v>       0.31018831       0.06440496       0.30704744 </v>
   <v>       0.31027010       0.31452125       0.06770597 </v>
   <v>       0.06680481       0.31420766       0.30486509 </v>
   <v>      -0.24815874      -0.25837079      -0.24926764 </v>
   <v>       0.24944213       0.25361232       0.24412254 </v>
   <v>       0.30157163      -0.42697522      -0.44368159 </v>
   <v>      -0.43757149      -0.43640733       0.30359680 </v>
   <v>      -0.43621904       0.31566693      -0.43746677 </v>
   <v>      -0.43878941      -0.43939997      -0.43312650 </v>
   <v>      -0.49104029       0.49332147       0.49599577 </v>
  </varray>
 </structure>
 <varray name="primitive_index" >
  <v type="int" >        1 </v>
  <v type="int" >       68 </v>
  <v type="int" >      113 </v>
  <v type="int" >       77 </v>
  <v type="int" >       65 </v>
  <v type="int" >       53 </v>
  <v type="int" >        5 </v>
  <v type="int" >       20 </v>
  <v type="int" >        8 </v>
  <v type="int" >        4 </v>
  <v type="int" >       29 </v>
  <v type="int" >       17 </v>
  <v type="int" >       49 </v>
  <v type="int" >       50 </v>
  <v type="int" >        2 </v>
  <v type="int" >       13 </v>
  <v type="int" >       14 </v>
  <v type="int" >       84 </v>
  <v type="int" >      120 </v>
  <v type="int" >       96 </v>
  <v type="int" >       72 </v>
  <v type="int" >       93 </v>
  <v type="int" >       80 </v>
  <v type="int" >      117 </v>
  <v type="int" >      114 </v>
  <v type="int" >      125 </v>
  <v type="int" >      126 </v>
  <v type="int" >      116 </v>
  <v type="int" >       78 </v>
  <v type="int" >       32 </v>
  <v type="int" >       24 </v>
  <v type="int" >       30 </v>
  <v type="int" >       62 </v>
  <v type="int" >       54 </v>
  <v type="int" >       56 </v>
  <v type="int" >       83 </v>
  <v type="int" >       69 </v>
  <v type="int" >       67 </v>
  <v type="int" >       71 </v>
  <v type="int" >      101 </v>
  <v type="int" >       73 </v>
  <v type="int" >       98 </v>
  <v type="int" >       97 </v>
  <v type="int" >       66 </v>
  <v type="int" >       89 </v>
  <v type="int" >       81 </v>
  <v type="int" >       74 </v>
  <v type="int" >        7 </v>
  <v type="int" >       48 </v>
  <v type="int" >       23 </v>
  <v type="int" >       18 </v>
  <v type="int" >       12 </v>
  <v type="int" >       16 </v>
  <v type="int" >       21 </v>
  <v type="int" >       10 </v>
  <v type="int" >       57 </v>
  <v type="int" >       36 </v>
  <v type="int" >       19 </v>
  <v type="int" >       45 </v>
  <v type="int" >       52 </v>
  <v type="int" >       60 </v>
  <v type="int" >        6 </v>
  <v type="int" >       34 </v>
  <v type="int" >       25 </v>
  <v type="int" >       26 </v>
  <v type="int" >       37 </v>
  <v type="int" >       38 </v>
  <v type="int" >       63 </v>
  <v type="int" >       51 </v>
  <v type="int" >       15 </v>
  <v type="int" >       61 </v>
  <v type="int" >      124 </v>
  <v type="int" >      112 </v>
  <v type="int" >       88 </v>
  <v type="int" >       87 </v>
  <v type="int" >       95 </v>
  <v type="int" >       92 </v>
  <v type="int" >       90 </v>
  <v type="int" >      119 </v>
  <v type="int" >       94 </v>
  <v type="int" >      128 </v>
  <v type="int" >      102 </v>
  <v type="int" >      104 </v>
  <v type="int" >      110 </v>
  <v type="int" >      118 </v>
  <v type="int" >      127 </v>
  <v type="int" >      122 </v>
  <v type="int" >       35 </v>
  <v type="int" >       33 </v>
  <v type="int" >       11 </v>
  <v type="int" >        9 </v>
  <v type="int" >        3 </v>
  <v type="int" >       41 </v>
  <v type="int" >      111 </v>
  <v type="int" >       75 </v>
  <v type="int" >       99 </v>
  <v type="int" >       79 </v>
  <v type="int" >      105 </v>
  <v type="int" >      100 </v>
  <v type="int" >      108 </v>
  <v type="int" >      123 </v>
  <v type="int" >       76 </v>
  <v type="int" >      121 </v>
  <v type="int" >      109 </v>
  <v type="int" >      115 </v>
  <v type="int" >       31 </v>
  <v type="int" >       55 </v>
  <v type="int" >       40 </v>
  <v type="int" >       27 </v>
  <v type="int" >       58 </v>
  <v type="int" >       59 </v>
  <v type="int" >       47 </v>
  <v type="int" >       39 </v>
  <v type="int" >       28 </v>
  <v type="int" >       46 </v>
  <v type="int" >       44 </v>
  <v type="int" >       42 </v>
  <v type="int" >       86 </v>
  <v type="int" >       82 </v>
  <v type="int" >       70 </v>
  <v type="int" >       85 </v>
  <v type="int" >       64 </v>
  <v type="int" >       22 </v>
  <v type="int" >      106 </v>
  <v type="int" >       91 </v>
  <v type="int" >      103 </v>
  <v type="int" >      107 </v>
  <v type="int" >       43 </v>
 </varray>
 <kpoints>
  <generation param="Gamma">
   <v type="int" name="divisions">       2        2        2 </v>
   <v name="usershift">      0.00000000       0.00000000       0.00000000 </v>
   <v name="genvec1">      0.50000000       0.00000000       0.00000000 </v>
   <v name="genvec2">      0.00000000       0.50000000       0.00000000 </v>
   <v name="genvec3">      0.00000000       0.00000000       0.50000000 </v>
   <v name="shift">      0.00000000       0.00000000       0.00000000 </v>
  </generation>
  <varray name="kpointlist" >
   <v>       0.00000000       0.00000000       0.00000000 </v>
   <v>       0.50000000       0.00000000       0.00000000 </v>
   <v>       0.00000000       0.50000000       0.00000000 </v>
   <v>       0.50000000       0.50000000       0.00000000 </v>
   <v>       0.00000000       0.00000000       0.50000000 </v>
   <v>       0.50000000       0.00000000       0.50000000 </v>
   <v>       0.00000000       0.50000000       0.50000000 </v>
   <v>       0.50000000       0.50000000       0.50000000 </v>
  </varray>
  <varray name="weights" >
   <v>       0.12500000 </v>
   <v>       0.12500000 </v>
   <v>       0.12500000 </v>
   <v>       0.12500000 </v>
   <v>       0.12500000 </v>
   <v>       0.12500000 </v>
   <v>       0.12500000 </v>
   <v>       0.12500000 </v>
  </varray>
 </kpoints>
 <parameters>
  <separator name="general" >
   <i type="string" name="SYSTEM">potpaw_PBE@./ARUN.APL1ZEROSTATE</i>
   <i type="logical" name="LCOMPAT"> F  </i>
  </separator>
  <separator name="electronic" >
   <i type="string" name="PREC">accura</i>
   <i name="ENMAX">    500.00000000</i>
   <i name="ENAUG">    322.06900000</i>
   <i name="EDIFF">      0.00000001</i>
   <i type="int" name="IALGO">    38</i>
   <i type="int" name="IWAVPR">    10</i>
   <i type="int" name="NBANDS">   322</i>
   <i name="NELECT">    512.00000000</i>
   <i type="int" name="TURBO">     0</i>
   <i type="int" name="IRESTART">     0</i>
   <i type="int" name="NREBOOT">     0</i>
   <i type="int" name="NMIN">     0</i>
   <i name="EREF">      0.00000000</i>
   <separator name="electronic smearing" >
    <i type="int" name="ISMEAR">     0</i>
    <i name="SIGMA">      0.01000000</i>
    <i name="KSPACING">      0.50000000</i>
    <i type="logical" name="KGAMMA"> T  </i>
   </separator>
   <separator name="electronic projectors" >
    <i type="logical" name="LREAL"> F  </i>
    <v name="ROPT">      0.00000000</v>
    <i type="int" name="LMAXPAW">  -100</i>
    <i type="int" name="LMAXMIX">     2</i>
    <i type="logical" name="NLSPLINE"> F  </i>
   </separator>
   <separator name="electronic startup" >
    <i type="int" name="ISTART">     0</i>
    <i type="int" name="ICHARG">     2</i>
    <i type="int" name="INIWAV">     1</i>
   </separator>
   <separator name="electronic spin" >
    <i type="int" name="ISPIN">     1</i>
    <i type="logical" name="LNONCOLLINEAR"> F  </i>
    <v name="MAGMOM">      1.00000000      1.00000000      1.00000000      1.00000000      1.00000000      1.00000000      1.00000000      1.00000000      1.00000000      1.00000000      1.00000000      1.00000000      1.00000000      1.00000000      1.00000000      1.00000000      1.00000000      1.00000000      1.00000000      1.00000000
      1.00000000      1.00000000      1.00000000      1.00000000      1.00000000      1.00000000      1.00000000      1.00000000      1.00000000      1.00000000      1.00000000      1.00000000      1.00000000      1.00000000      1.00000000      1.00000000      1.00000000      1.00000000      1.00000000      1.00000000
      1.00000000      1.00000000      1.00000000      1.00000000      1.00000000      1.00000000      1.00000000      1.00000000      1.00000000      1.00000000      1.00000000      1.00000000      1.00000000      1.00000000      1.00000000      1.00000000      1.00000000      1.00000000      1.00000000      1.00000000
      1.00000000      1.00000000      1.00000000      1.00000000      1.00000000      1.00000000      1.00000000      1.00000000      1.00000000      1.00000000      1.00000000      1.00000000      1.00000000      1.00000000      1.00000000      1.00000000      1.00000000      1.00000000      1.00000000      1.00000000
      1.00000000      1.00000000      1.00000000      1.00000000      1.00000000      1.00000000      1.00000000      1.00000000      1.00000000      1.00000000      1.00000000      1.00000000      1.00000000      1.00000000      1.00000000      1.00000000      1.00000000      1.00000000      1.00000000      1.00000000
      1.00000000      1.00000000      1.00000000      1.00000000      1.00000000      1.00000000      1.00000000      1.00000000      1.00000000      1.00000000      1.00000000      1.00000000      1.00000000      1.00000000      1.00000000      1.00000000      1.00000000      1.00000000      1.00000000      1.00000000
      1.00000000      1.00000000      1.00000000      1.00000000      1.00000000      1.00000000      1.00000000      1.00000000</v>
    <i name="NUPDOWN">     -1.00000000</i>
    <i type="logical" name="LSORBIT"> F  </i>
    <v name="SAXIS">      0.00000000      0.00000000      1.00000000</v>
    <i type="logical" name="LSPIRAL"> F  </i>
    <v name="QSPIRAL">      0.00000000      0.00000000      0.00000000</v>
    <i type="logical" name="LZEROZ"> F  </i>
   </separator>
   <separator name="electronic exchange-correlation" >
    <i type="logical" name="LASPH"> F  </i>
    <i type="logical" name="LMETAGGA"> F  </i>
   </separator>
   <separator name="electronic convergence" >
    <i type="int" name="NELM">   120</i>
    <i type="int" name="NELMDL">    -5</i>
    <i type="int" name="NELMIN">     4</i>
    <i name="ENINI">    500.00000000</i>
    <separator name="electronic convergence detail" >
     <i type="logical" name="LDIAG"> T  </i>
     <i type="logical" name="LSUBROT"> F  </i>
     <i name="WEIMIN">      0.00000000</i>
     <i name="EBREAK">      0.00000000</i>
     <i name="DEPER">      0.30000000</i>
     <i type="int" name="NRMM">     4</i>
     <i name="TIME">      0.40000000</i>
    </separator>
   </separator>
   <separator name="electronic mixer" >
    <i name="AMIX">      0.40000000</i>
    <i name="BMIX">      1.00000000</i>
    <i name="AMIN">      0.10000000</i>
    <i name="AMIX_MAG">      1.60000000</i>
    <i name="BMIX_MAG">      1.00000000</i>
    <separator name="electronic mixer details" >
     <i type="int" name="IMIX">     4</i>
     <i type="logical" name="MIXFIRST"> F  </i>
     <i type="int" name="MAXMIX">   -45</i>
     <i name="WC">    100.00000000</i>
     <i type="int" name="INIMIX">     1</i>
     <i type="int" name="MIXPRE">     1</i>
     <i type="int" name="MREMOVE">     5</i>
    </separator>
   </separator>
   <separator name="electronic dipolcorrection" >
    <i type="logical" name="LDIPOL"> F  </i>
    <i type="logical" name="LMONO"> F  </i>
    <i type="int" name="IDIPOL">     0</i>
    <i name="EPSILON">      1.00000000</i>
    <v name="DIPOL">   -100.00000000   -100.00000000   -100.00000000</v>
    <i name="EFIELD">      0.00000000</i>
   </separator>
  </separator>
  <separator name="grids" >
   <i type="int" name="NGX">   120</i>
   <i type="int" name="NGY">   120</i>
   <i type="int" name="NGZ">   120</i>
   <i type="int" name="NGXF">   240</i>
   <i type="int" name="NGYF">   240</i>
   <i type="int" name="NGZF">   240</i>
   <i type="logical" name="ADDGRID"> T  </i>
  </separator>
  <separator name="ionic" >
   <i type="int" name="NSW">     0</i>
   <i type="int" name="IBRION">    -1</i>
   <i type="int" name="MDALGO">     0</i>
   <i type="int" name="ISIF">     2</i>
   <i name="PSTRESS">      0.00000000</i>
   <i name="EDIFFG">      0.00000010</i>
   <i type="int" name="NFREE">     0</i>
   <i name="POTIM">      0.50000000</i>
   <i name="SMASS">     -3.00000000</i>
   <i name="SCALEE">      1.00000000</i>
  </separator>
  <separator name="ionic md" >
   <i name="TEBEG">      0.00010000</i>
   <i name="TEEND">      0.00010000</i>
   <i type="int" name="NBLOCK">     1</i>
   <i type="int" name="KBLOCK">     1</i>
   <i type="int" name="NPACO">   256</i>
   <i name="APACO">     16.00000000</i>
  </separator>
  <separator name="symmetry" >
   <i type="int" name="ISYM">     2</i>
   <i name="SYMPREC">      0.00001000</i>
  </separator>
  <separator name="dos" >
   <i type="int" name="LORBIT">     0</i>
   <v name="RWIGS">     -1.00000000</v>
   <i type="int" name="NEDOS">   301</i>
   <i name="EMIN">     10.00000000</i>
   <i name="EMAX">    -10.00000000</i>
   <i name="EFERMI">      0.00000000</i>
  </separator>
  <separator name="writing" >
   <i type="int" name="NWRITE">     2</i>
   <i type="logical" name="LWAVE"> F  </i>
   <i type="logical" name="LDOWNSAMPLE"> F  </i>
   <i type="logical" name="LCHARG"> F  </i>
   <i type="logical" name="LPARD"> F  </i>
   <i type="logical" name="LVTOT"> F  </i>
   <i type="logical" name="LVHAR"> F  </i>
   <i type="logical" name="LELF"> F  </i>
   <i type="logical" name="LOPTICS"> F  </i>
   <v name="STM">      0.00000000      0.00000000      0.00000000      0.00000000      0.00000000      0.00000000      0.00000000</v>
  </separator>
  <separator name="performance" >
   <i type="int" name="NPAR">     2</i>
   <i type="int" name="NSIM">     4</i>
   <i type="int" name="NBLK">    -1</i>
   <i type="logical" name="LPLANE"> T  </i>
   <i type="logical" name="LSCALAPACK"> T  </i>
   <i type="logical" name="LSCAAWARE"> F  </i>
   <i type="logical" name="LSCALU"> F  </i>
   <i type="logical" name="LASYNC"> F  </i>
   <i type="logical" name="LORBITALREAL"> F  </i>
  </separator>
  <separator name="miscellaneous" >
   <i type="int" name="IDIOT">     3</i>
   <i type="int" name="ISPECIAL">     0</i>
   <i type="logical" name="LMUSIC"> F  </i>
   <v name="POMASS">     28.08500000</v>
   <v name="DARWINR">      0.00000000</v>
   <v name="DARWINV">      1.00000000</v>
   <i type="logical" name="LCORR"> T  </i>
  </separator>
  <i type="logical" name="GGA_COMPAT"> T  </i>
  <i type="logical" name="LBERRY"> F  </i>
  <i type="int" name="ICORELEVEL">     0</i>
  <i type="logical" name="LDAU"> F  </i>
  <i type="int" name="I_CONSTRAINED_M">     0</i>
  <separator name="electronic exchange-correlation" >
   <i type="string" name="GGA">--</i>
   <i type="int" name="VOSKOWN">     0</i>
   <i type="logical" name="LHFCALC"> F  </i>
   <i type="string" name="PRECFOCK"></i>
   <i type="logical" name="LSYMGRAD"> F  </i>
   <i type="logical" name="LHFONE"> F  </i>
   <i type="logical" name="LRHFCALC"> F  </i>
   <i type="logical" name="LTHOMAS"> F  </i>
   <i type="logical" name="LMODELHF"> F  </i>
   <i name="ENCUT4O">     -1.00000000</i>
   <i type="int" name="EXXOEP">     0</i>
   <i type="int" name="FOURORBIT">     0</i>
   <i name="AEXX">      0.00000000</i>
   <i name="HFALPHA">      0.00000000</i>
   <i name="MCALPHA">      0.00000000</i>
   <i name="ALDAX">      1.00000000</i>
   <i name="AGGAX">      1.00000000</i>
   <i name="ALDAC">      1.00000000</i>
   <i name="AGGAC">      1.00000000</i>
   <i type="int" name="NKREDX">     1</i>
   <i type="int" name="NKREDY">     1</i>
   <i type="int" name="NKREDZ">     1</i>
   <i type="logical" name="SHIFTRED"> F  </i>
   <i type="logical" name="ODDONLY"> F  </i>
   <i type="logical" name="EVENONLY"> F  </i>
   <i type="int" name="LMAXFOCK">     0</i>
   <i type="int" name="NMAXFOCKAE">     0</i>
   <i type="logical" name="LFOCKAEDFT"> F  </i>
   <i name="HFSCREEN">      0.00000000</i>
   <i name="HFSCREENC">      0.00000000</i>
   <i type="int" name="NBANDSGWLOW">     0</i>
  </separator>
  <separator name="vdW DFT" >
   <i type="logical" name="LUSE_VDW"> F  </i>
   <i name="Zab_VDW">     -0.84910000</i>
   <i name="PARAM1">      0.12340000</i>
   <i name="PARAM2">      1.00000000</i>
   <i name="PARAM3">      0.00000000</i>
  </separator>
  <separator name="model GW" >
   <i type="int" name="MODEL_GW">     0</i>
   <i name="MODEL_EPS0">     12.26607635</i>
   <i name="MODEL_ALPHA">      1.00000000</i>
  </separator>
  <separator name="linear response parameters" >
   <i type="logical" name="LEPSILON"> F  </i>
   <i type="logical" name="LRPA"> F  </i>
   <i type="logical" name="LNABLA"> F  </i>
   <i type="logical" name="LVEL"> F  </i>
   <i type="int" name="KINTER">     0</i>
   <i name="CSHIFT">      0.10000000</i>
   <i name="OMEGAMAX">     -1.00000000</i>
   <i name="DEG_THRESHOLD">      0.00200000</i>
   <i name="RTIME">     -0.10000000</i>
   <i name="WPLASMAI">      0.00000000</i>
   <v name="DFIELD">      0.00000000      0.00000000      0.00000000</v>
   <v name="WPLASMA">      0.00000000      0.00000000      0.00000000      0.00000000      0.00000000      0.00000000      0.00000000      0.00000000      0.00000000</v>
  </separator>
  <separator name="orbital magnetization" >
   <i type="logical" name="NUCIND"> F  </i>
   <v name="MAGPOS">      0.00000000      0.00000000      0.00000000</v>
   <i type="logical" name="LNICSALL"> T  </i>
   <i type="logical" name="ORBITALMAG"> F  </i>
   <i type="logical" name="LMAGBLOCH"> F  </i>
   <i type="logical" name="LCHIMAG"> F  </i>
   <i type="logical" name="LGAUGE"> T  </i>
   <i type="int" name="MAGATOM">     0</i>
   <v name="MAGDIPOL">      0.00000000      0.00000000      0.00000000</v>
   <v name="AVECCONST">      0.00000000      0.00000000      0.00000000</v>
  </separator>
  <separator name="response functions" >
   <i type="logical" name="LADDER"> F  </i>
   <i type="logical" name="LRPAFORCE"> F  </i>
   <i type="logical" name="LFXC"> F  </i>
   <i type="logical" name="LHARTREE"> T  </i>
   <i type="int" name="IBSE">     0</i>
   <v type="int" name="KPOINT">    -1     0     0     0</v>
   <i type="logical" name="LTCTE"> F  </i>
   <i type="logical" name="LTETE"> F  </i>
   <i type="logical" name="LTRIPLET"> F  </i>
   <i type="logical" name="LFXCEPS"> F  </i>
   <i type="logical" name="LFXHEG"> F  </i>
   <i type="int" name="NATURALO">     2</i>
   <i type="logical" name="L2ORDER"> F  </i>
   <i type="logical" name="LMP2LT"> F  </i>
   <i type="logical" name="LUSEW"> F  </i>
   <i name="ENCUTGW">     -2.00000000</i>
   <i name="ENCUTGWSOFT">     -2.00000000</i>
   <i name="ENCUTLF">     -1.00000000</i>
   <i type="int" name="LMAXMP2">    -1</i>
   <i name="SCISSOR">      0.00000000</i>
   <i type="int" name="NOMEGA">     0</i>
   <i type="int" name="NOMEGAR">     0</i>
   <i type="int" name="NBANDSGW">    -1</i>
   <i type="int" name="NBANDSO">    -1</i>
   <i type="int" name="NBANDSV">    -1</i>
   <i type="int" name="NELM">   120</i>
   <i type="int" name="NELMHF">     1</i>
   <i type="int" name="DIM">     3</i>
   <i type="int" name="ANTIRES">     0</i>
   <i name="OMEGAMAX">    -30.00000000</i>
   <i name="OMEGAMIN">    -30.00000000</i>
   <i name="OMEGATL">   -200.00000000</i>
   <i type="int" name="OMEGAGRID">   140</i>
   <i name="CSHIFT">     -0.10000000</i>
   <i type="logical" name="SELFENERGY"> F  </i>
   <i type="logical" name="LSPECTRAL"> F  </i>
   <i type="logical" name="LSPECTRALGW"> F  </i>
   <i type="logical" name="LSINGLES"> F  </i>
   <i type="logical" name="LFERMIGW"> F  </i>
   <i type="logical" name="ODDONLYGW"> F  </i>
   <i type="logical" name="EVENONLYGW"> F  </i>
   <i type="int" name="NKREDLFX">     1</i>
   <i type="int" name="NKREDLFY">     1</i>
   <i type="int" name="NKREDLFZ">     1</i>
   <i type="int" name="MAXMEM">  2800</i>
   <i type="int" name="TELESCOPE">     0</i>
   <i type="int" name="TAUPAR">     1</i>
   <i type="int" name="OMEGAPAR">    -1</i>
   <i name="LAMBDA">      1.00000000</i>
  </separator>
  <separator name="External order field" >
   <i name="OFIELD_KAPPA">      0.00000000</i>
   <v name="OFIELD_K">      0.00000000      0.00000000      0.00000000</v>
   <i name="OFIELD_Q6_NEAR">      0.00000000</i>
   <i name="OFIELD_Q6_FAR">      0.00000000</i>
   <i name="OFIELD_A">      0.00000000</i>
  </separator>
 </parameters>
 <atominfo>
  <atoms>     128 </atoms>
  <types>       1 </types>
  <array name="atoms" >
   <dimension dim="1">ion</dimension>
   <field type="string">element</field>
   <field type="int">atomtype</field>
   <set>
    <rc><c>Si</c><c>   1</c></rc>
    <rc><c>Si</c><c>   1</c></rc>
    <rc><c>Si</c><c>   1</c></rc>
    <rc><c>Si</c><c>   1</c></rc>
    <rc><c>Si</c><c>   1</c></rc>
    <rc><c>Si</c><c>   1</c></rc>
    <rc><c>Si</c><c>   1</c></rc>
    <rc><c>Si</c><c>   1</c></rc>
    <rc><c>Si</c><c>   1</c></rc>
    <rc><c>Si</c><c>   1</c></rc>
    <rc><c>Si</c><c>   1</c></rc>
    <rc><c>Si</c><c>   1</c></rc>
    <rc><c>Si</c><c>   1</c></rc>
    <rc><c>Si</c><c>   1</c></rc>
    <rc><c>Si</c><c>   1</c></rc>
    <rc><c>Si</c><c>   1</c></rc>
    <rc><c>Si</c><c>   1</c></rc>
    <rc><c>Si</c><c>   1</c></rc>
    <rc><c>Si</c><c>   1</c></rc>
    <rc><c>Si</c><c>   1</c></rc>
    <rc><c>Si</c><c>   1</c></rc>
    <rc><c>Si</c><c>   1</c></rc>
    <rc><c>Si</c><c>   1</c></rc>
    <rc><c>Si</c><c>   1</c></rc>
    <rc><c>Si</c><c>   1</c></rc>
    <rc><c>Si</c><c>   1</c></rc>
    <rc><c>Si</c><c>   1</c></rc>
    <rc><c>Si</c><c>   1</c></rc>
    <rc><c>Si</c><c>   1</c></rc>
    <rc><c>Si</c><c>   1</c></rc>
    <rc><c>Si</c><c>   1</c></rc>
    <rc><c>Si</c><c>   1</c></rc>
    <rc><c>Si</c><c>   1</c></rc>
    <rc><c>Si</c><c>   1</c></rc>
    <rc><c>Si</c><c>   1</c></rc>
    <rc><c>Si</c><c>   1</c></rc>
    <rc><c>Si</c><c>   1</c></rc>
    <rc><c>Si</c><c>   1</c></rc>
    <rc><c>Si</c><c>   1</c></rc>
    <rc><c>Si</c><c>   1</c></rc>
    <rc><c>Si</c><c>   1</c></rc>
    <rc><c>Si</c><c>   1</c></rc>
    <rc><c>Si</c><c>   1</c></rc>
    <rc><c>Si</c><c>   1</c></rc>
    <rc><c>Si</c><c>   1</c></rc>
    <rc><c>Si</c><c>   1</c></rc>
    <rc><c>Si</c><c>   1</c></rc>
    <rc><c>Si</c><c>   1</c></rc>
    <rc><c>Si</c><c>   1</c></rc>
    <rc><c>Si</c><c>   1</c></rc>
    <rc><c>Si</c><c>   1</c></rc>
    <rc><c>Si</c><c>   1</c></rc>
    <rc><c>Si</c><c>   1</c></rc>
    <rc><c>Si</c><c>   1</c></rc>
    <rc><c>Si</c><c>   1</c></rc>
    <rc><c>Si</c><c>   1</c></rc>
    <rc><c>Si</c><c>   1</c></rc>
    <rc><c>Si</c><c>   1</c></rc>
    <rc><c>Si</c><c>   1</c></rc>
    <rc><c>Si</c><c>   1</c></rc>
    <rc><c>Si</c><c>   1</c></rc>
    <rc><c>Si</c><c>   1</c></rc>
    <rc><c>Si</c><c>   1</c></rc>
    <rc><c>Si</c><c>   1</c></rc>
    <rc><c>Si</c><c>   1</c></rc>
    <rc><c>Si</c><c>   1</c></rc>
    <rc><c>Si</c><c>   1</c></rc>
    <rc><c>Si</c><c>   1</c></rc>
    <rc><c>Si</c><c>   1</c></rc>
    <rc><c>Si</c><c>   1</c></rc>
    <rc><c>Si</c><c>   1</c></rc>
    <rc><c>Si</c><c>   1</c></rc>
    <rc><c>Si</c><c>   1</c></rc>
    <rc><c>Si</c><c>   1</c></rc>
    <rc><c>Si</c><c>   1</c></rc>
    <rc><c>Si</c><c>   1</c></rc>
    <rc><c>Si</c><c>   1</c></rc>
    <rc><c>Si</c><c>   1</c></rc>
    <rc><c>Si</c><c>   1</c></rc>
    <rc><c>Si</c><c>   1</c></rc>
    <rc><c>Si</c><c>   1</c></rc>
    <rc><c>Si</c><c>   1</c></rc>
    <rc><c>Si</c><c>   1</c></rc>
    <rc><c>Si</c><c>   1</c></rc>
    <rc><c>Si</c><c>   1</c></rc>
    <rc><c>Si</c><c>   1</c></rc>
    <rc><c>Si</c><c>   1</c></rc>
    <rc><c>Si</c><c>   1</c></rc>
    <rc><c>Si</c><c>   1</c></rc>
    <rc><c>Si</c><c>   1</c></rc>
    <rc><c>Si</c><c>   1</c></rc>
    <rc><c>Si</c><c>   1</c></rc>
    <rc><c>Si</c><c>   1</c></rc>
    <rc><c>Si</c><c>   1</c></rc>
    <rc><c>Si</c><c>   1</c></rc>
    <rc><c>Si</c><c>   1</c></rc>
    <rc><c>Si</c><c>   1</c></rc>
    <rc><c>Si</c><c>   1</c></rc>
    <rc><c>Si</c><c>   1</c></rc>
    <rc><c>Si</c><c>   1</c></rc>
    <rc><c>Si</c><c>   1</c></rc>
    <rc><c>Si</c><c>   1</c></rc>
    <rc><c>Si</c><c>   1</c></rc>
    <rc><c>Si</c><c>   1</c></rc>
    <rc><c>Si</c><c>   1</c></rc>
    <rc><c>Si</c><c>   1</c></rc>
    <rc><c>Si</c><c>   1</c></rc>
    <rc><c>Si</c><c>   1</c></rc>
    <rc><c>Si</c><c>   1</c></rc>
    <rc><c>Si</c><c>   1</c></rc>
    <rc><c>Si</c><c>   1</c></rc>
    <rc><c>Si</c><c>   1</c></rc>
    <rc><c>Si</c><c>   1</c></rc>
    <rc><c>Si</c><c>   1</c></rc>
    <rc><c>Si</c><c>   1</c></rc>
    <rc><c>Si</c><c>   1</c></rc>
    <rc><c>Si</c><c>   1</c></rc>
    <rc><c>Si</c><c>   1</c></rc>
    <rc><c>Si</c><c>   1</c></rc>
    <rc><c>Si</c><c>   1</c></rc>
    <rc><c>Si</c><c>   1</c></rc>
    <rc><c>Si</c><c>   1</c></rc>
    <rc><c>Si</c><c>   1</c></rc>
    <rc><c>Si</c><c>   1</c></rc>
    <rc><c>Si</c><c>   1</c></rc>
    <rc><c>Si</c><c>   1</c></rc>
    <rc><c>Si</c><c>   1</c></rc>
    <rc><c>Si</c><c>   1</c></rc>
   </set>
  </array>
  <array name="atomtypes" >
   <dimension dim="1">type</dimension>
   <field type="int">atomspertype</field>
   <field type="string">element</field>
   <field>mass</field>
   <field>valence</field>
   <field type="string">pseudopotential</field>
   <set>
    <rc><c> 128</c><c>Si</c><c>     28.08500000</c><c>      4.00000000</c><c> PAW_PBE Si 05Jan2001                   </c></rc>
   </set>
  </array>
 </atominfo>
 <structure name="initialpos" >
  <crystal>
   <varray name="basis" >
    <v>       0.00000000      10.93733369      10.93733369 </v>
    <v>      10.93733369       0.00000000      10.93733369 </v>
    <v>      10.93733369      10.93733369       0.00000000 </v>
   </varray>
   <i name="volume">   2616.76295363 </i>
   <varray name="rec_basis" >
    <v>      -0.04571498       0.04571498       0.04571498 </v>
    <v>       0.04571498      -0.04571498       0.04571498 </v>
    <v>       0.04571498       0.04571498      -0.04571498 </v>
   </varray>
  </crystal>
  <varray name="positions" >
   <v>       0.99128824       0.00322874       0.00628363 </v>
   <v>       0.24779512       0.00236593       0.00541454 </v>
   <v>       0.49179803       0.99412806       0.00985546 </v>
   <v>       0.74881837       0.99797073       0.00371790 </v>
   <v>       0.99626594       0.25331052       0.99148790 </v>
   <v>       0.24526482       0.25097652       0.00437642 </v>
   <v>       0.51563371       0.24262386       0.00166746 </v>
   <v>       0.73852303       0.24199915       0.00775426 </v>
   <v>       0.00359784       0.50702360       0.99376161 </v>
   <v>       0.24242177       0.50876757       0.00130631 </v>
   <v>       0.49188647       0.51233207       0.99846438 </v>
   <v>       0.74946652       0.49949304       0.99681368 </v>
   <v>       0.00139806       0.73973240       0.99882568 </v>
   <v>       0.26165444       0.74129918       0.00122501 </v>
   <v>       0.50152308       0.73968622       0.01131144 </v>
   <v>       0.74370639       0.76799565       0.98930993 </v>
   <v>       0.00988145       0.99651989       0.25218619 </v>
   <v>       0.24975828       0.99311828       0.24552209 </v>
   <v>       0.49070287       0.01172435       0.25009184 </v>
   <v>       0.74557547       0.99596378       0.25193464 </v>
   <v>       0.99463087       0.25622507       0.24670764 </v>
   <v>       0.24944213       0.25361232       0.24412254 </v>
   <v>       0.50041778       0.24670006       0.25386351 </v>
   <v>       0.74564233       0.25462590       0.24716536 </v>
   <v>       0.00951663       0.49590621       0.23607231 </v>
   <v>       0.24218785       0.49485307       0.24354448 </v>
   <v>       0.51085643       0.49546311       0.24533676 </v>
   <v>       0.75526439       0.49719054       0.25208543 </v>
   <v>       0.99237338       0.75235507       0.25969020 </v>
   <v>       0.24343535       0.74949232       0.25064453 </v>
   <v>       0.50581718       0.76487282       0.24142188 </v>
   <v>       0.74612404       0.76062196       0.25167644 </v>
   <v>       0.00191131       0.00628975       0.50541842 </v>
   <v>       0.24121103       0.99343503       0.50794866 </v>
   <v>       0.49859315       0.99792908       0.50073578 </v>
   <v>       0.74828076       0.00901817       0.50156769 </v>
   <v>       0.99503733       0.24733410       0.49838875 </v>
   <v>       0.24320424       0.25858121       0.49725217 </v>
   <v>       0.50295754       0.25589495       0.49985198 </v>
   <v>       0.74848891       0.24629058       0.49355427 </v>
   <v>       0.99219343       0.50630269       0.50565469 </v>
   <v>       0.25566194       0.49796844       0.50238593 </v>
   <v>       0.50895971       0.49332147       0.49599577 </v>
   <v>       0.74697219       0.49670391       0.49991998 </v>
   <v>       0.01287689       0.74803838       0.49784418 </v>
   <v>       0.25111966       0.74914642       0.49690864 </v>
   <v>       0.50326271       0.74794083       0.50330898 </v>
   <v>       0.74406613       0.75431873       0.48962936 </v>
   <v>       0.99932609       0.99045549       0.75561702 </v>
   <v>       0.23924935       0.00031121       0.74616603 </v>
   <v>       0.50458401       0.99570865       0.75569300 </v>
   <v>       0.74295680       0.01432481       0.74782936 </v>
   <v>       0.00148940       0.24264099       0.75754798 </v>
   <v>       0.25362523       0.24898661       0.76053195 </v>
   <v>       0.52035396       0.23769925       0.74615009 </v>
   <v>       0.73865553       0.25544323       0.74158263 </v>
   <v>       0.00183729       0.49577424       0.76192862 </v>
   <v>       0.25078207       0.49015813       0.74572666 </v>
   <v>       0.50040443       0.49394082       0.75414271 </v>
   <v>       0.75204720       0.50275942       0.74470386 </v>
   <v>       0.99203382       0.75412170       0.74278398 </v>
   <v>       0.24454015       0.75298083       0.75210200 </v>
   <v>       0.49975980       0.74716353       0.75200221 </v>
   <v>       0.75184126       0.74162921       0.75073236 </v>
   <v>       0.07135732       0.05494227       0.07125759 </v>
   <v>       0.31433719       0.07265482       0.05652586 </v>
   <v>       0.56343116       0.05899930       0.07144138 </v>
   <v>       0.81216385       0.06970288       0.06079179 </v>
   <v>       0.05787462       0.29955004       0.07586708 </v>
   <v>       0.31027010       0.31452125       0.06770597 </v>
   <v>       0.55952035       0.30872150       0.07202620 </v>
   <v>       0.82549638       0.30966558       0.05835886 </v>
   <v>       0.05849930       0.56713947       0.06419677 </v>
   <v>       0.31045469       0.55143433       0.05984143 </v>
   <v>       0.56981292       0.55951608       0.05937985 </v>
   <v>       0.80347259       0.56218890       0.07135462 </v>
   <v>       0.06347793       0.81280914       0.05603555 </v>
   <v>       0.32175836       0.80535192       0.06383564 </v>
   <v>       0.56548105       0.81772150       0.05295910 </v>
   <v>       0.80789601       0.81376015       0.07093932 </v>
   <v>       0.06616726       0.06346141       0.32291407 </v>
   <v>       0.31018831       0.06440496       0.30704744 </v>
   <v>       0.56305525       0.07003993       0.30437833 </v>
   <v>       0.82334979       0.06830190       0.30326310 </v>
   <v>       0.06680481       0.31420766       0.30486509 </v>
   <v>       0.31639931       0.30905749       0.30062904 </v>
   <v>       0.56009713       0.31060298       0.31504959 </v>
   <v>       0.80656545       0.31060258       0.31364226 </v>
   <v>       0.05294395       0.55326633       0.32442579 </v>
   <v>       0.31202985       0.55978995       0.30374818 </v>
   <v>       0.56242851       0.56359267       0.30359680 </v>
   <v>       0.82301195       0.55556236       0.31696192 </v>
   <v>       0.05994796       0.81323136       0.31115828 </v>
   <v>       0.31465053       0.80763003       0.31282724 </v>
   <v>       0.56233731       0.81352946       0.31445734 </v>
   <v>       0.81322433       0.81776002       0.30748604 </v>
   <v>       0.05837415       0.05840865       0.56355265 </v>
   <v>       0.30987070       0.07092664       0.56383361 </v>
   <v>       0.56486490       0.06189218       0.55944332 </v>
   <v>       0.82294380       0.04671943       0.56861077 </v>
   <v>       0.05036951       0.32242635       0.57835265 </v>
   <v>       0.31090063       0.31768066       0.56653739 </v>
   <v>       0.56378096       0.31566693       0.56253323 </v>
   <v>       0.80287074       0.31429825       0.56207974 </v>
   <v>       0.05747726       0.56726490       0.56181175 </v>
   <v>       0.30157163       0.57302478       0.55631841 </v>
   <v>       0.56121059       0.56060003       0.56687350 </v>
   <v>       0.81589661       0.55627525       0.56223363 </v>
   <v>       0.05836417       0.81995761       0.56393021 </v>
   <v>       0.31896881       0.80252918       0.56883214 </v>
   <v>       0.56284301       0.82237384       0.55518693 </v>
   <v>       0.79918563       0.82555959       0.55576491 </v>
   <v>       0.05512664       0.06082527       0.81914852 </v>
   <v>       0.30267602       0.07220989       0.81329349 </v>
   <v>       0.56827623       0.06162025       0.80402083 </v>
   <v>       0.80100950       0.06195874       0.81498397 </v>
   <v>       0.05231020       0.31538657       0.81685135 </v>
   <v>       0.31723592       0.31805997       0.80615926 </v>
   <v>       0.56270486       0.31781558       0.80683410 </v>
   <v>       0.82330930       0.30968564       0.81704095 </v>
   <v>       0.05798986       0.57156310       0.81051056 </v>
   <v>       0.32095643       0.54660142       0.81695957 </v>
   <v>       0.55763658       0.56206513       0.81413212 </v>
   <v>       0.81151892       0.55060509       0.82021889 </v>
   <v>       0.05664790       0.81068817       0.81632694 </v>
   <v>       0.31342493       0.82098028       0.81045133 </v>
   <v>       0.56939248       0.81046405       0.80467914 </v>
   <v>       0.80977495       0.81506848       0.80743019 </v>
  </varray>
 </structure>
 <calculation>
  <scstep>
   <time name="dav">   70.36   70.37</time>
   <time name="total">   71.37   71.39</time>
   <energy>
    <i name="alphaZ">    210.77028614 </i>
    <i name="ewald"> -14467.76087225 </i>
    <i name="hartreedc">   -759.23312830 </i>
    <i name="XCdc">  -1195.26808208 </i>
    <i name="pawpsdc">   4221.13331941 </i>
    <i name="pawaedc">  -1969.18571412 </i>
    <i name="eentropy">     -0.00179077 </i>
    <i name="bandstr">   2150.88592872 </i>
    <i name="atom">  13192.48085998 </i>
    <i name="e_fr_energy">   1383.82080673 </i>
    <i name="e_wo_entrp">   1383.82259751 </i>
    <i name="e_0_energy">   1383.82170212 </i>
   </energy>
  </scstep>
  <scstep>
   <time name="dav">   80.34   80.36</time>
   <time name="total">   80.34   80.36</time>
   <energy>
    <i name="e_fr_energy">   -537.43093683 </i>
    <i name="e_wo_entrp">   -537.43092590 </i>
    <i name="e_0_energy">   -537.43093137 </i>
   </energy>
  </scstep>
  <scstep>
   <time name="dav">   82.10   82.12</time>
   <time name="total">   82.11   82.12</time>
   <energy>
    <i name="e_fr_energy">   -687.06505114 </i>
    <i name="e_wo_entrp">   -687.06505114 </i>
    <i name="e_0_energy">   -687.06505114 </i>
   </energy>
  </scstep>
  <scstep>
   <time name="dav">   81.00   81.05</time>
   <time name="total">   81.00   81.05</time>
   <energy>
    <i name="e_fr_energy">   -691.25841579 </i>
    <i name="e_wo_entrp">   -691.25841579 </i>
    <i name="e_0_energy">   -691.25841579 </i>
   </energy>
  </scstep>
  <scstep>
   <time name="dav">   82.36   82.40</time>
   <time name="total">   85.59   85.63</time>
   <energy>
    <i name="e_fr_energy">   -691.40455077 </i>
    <i name="e_wo_entrp">   -691.40455077 </i>
    <i name="e_0_energy">   -691.40455077 </i>
   </energy>
  </scstep>
  <scstep>
   <time name="dav">   78.21   78.23</time>
   <time name="total">   82.42   82.45</time>
   <energy>
    <i name="e_fr_energy">   -682.90165395 </i>
    <i name="e_wo_entrp">   -682.90165395 </i>
    <i name="e_0_energy">   -682.90165395 </i>
   </energy>
  </scstep>
  <scstep>
   <time name="dav">   77.11   77.14</time>
   <time name="total">   81.34   81.37</time>
   <energy>
    <i name="e_fr_energy">   -679.38288366 </i>
    <i name="e_wo_entrp">   -679.38288366 </i>
    <i name="e_0_energy">   -679.38288366 </i>
   </energy>
  </scstep>
  <scstep>
   <time name="dav">   77.14   77.16</time>
   <time name="total">   81.32   81.35</time>
   <energy>
    <i name="e_fr_energy">   -679.43327781 </i>
    <i name="e_wo_entrp">   -679.43327781 </i>
    <i name="e_0_energy">   -679.43327781 </i>
   </energy>
  </scstep>
  <scstep>
   <time name="dav">   79.82   79.83</time>
   <time name="total">   84.01   84.02</time>
   <energy>
    <i name="e_fr_energy">   -679.45790880 </i>
    <i name="e_wo_entrp">   -679.45790880 </i>
    <i name="e_0_energy">   -679.45790880 </i>
   </energy>
  </scstep>
  <scstep>
   <time name="dav">   79.91   79.92</time>
   <time name="total">   84.10   84.11</time>
   <energy>
    <i name="e_fr_energy">   -679.46026740 </i>
    <i name="e_wo_entrp">   -679.46026740 </i>
    <i name="e_0_energy">   -679.46026740 </i>
   </energy>
  </scstep>
  <scstep>
   <time name="dav">   76.15   76.16</time>
   <time name="total">   80.35   80.37</time>
   <energy>
    <i name="e_fr_energy">   -679.46197400 </i>
    <i name="e_wo_entrp">   -679.46197400 </i>
    <i name="e_0_energy">   -679.46197400 </i>
   </energy>
  </scstep>
  <scstep>
   <time name="dav">   80.69   80.70</time>
   <time name="total">   84.88   84.90</time>
   <energy>
    <i name="e_fr_energy">   -679.46205777 </i>
    <i name="e_wo_entrp">   -679.46205777 </i>
    <i name="e_0_energy">   -679.46205777 </i>
   </energy>
  </scstep>
  <scstep>
   <time name="dav">   76.32   76.33</time>
   <time name="total">   80.49   80.51</time>
   <energy>
    <i name="e_fr_energy">   -679.46209052 </i>
    <i name="e_wo_entrp">   -679.46209052 </i>
    <i name="e_0_energy">   -679.46209052 </i>
   </energy>
  </scstep>
  <scstep>
   <time name="dav">   80.16   80.18</time>
   <time name="total">   84.33   84.35</time>
   <energy>
    <i name="e_fr_energy">   -679.46209494 </i>
    <i name="e_wo_entrp">   -679.46209494 </i>
    <i name="e_0_energy">   -679.46209494 </i>
   </energy>
  </scstep>
  <scstep>
   <time name="dav">   80.01   80.02</time>
   <time name="total">   84.19   84.20</time>
   <energy>
    <i name="e_fr_energy">   -679.46209883 </i>
    <i name="e_wo_entrp">   -679.46209883 </i>
    <i name="e_0_energy">   -679.46209883 </i>
   </energy>
  </scstep>
  <scstep>
   <time name="dav">   79.30   79.31</time>
   <time name="total">   83.38   83.40</time>
   <energy>
    <i name="e_fr_energy">   -679.46209813 </i>
    <i name="e_wo_entrp">   -679.46209813 </i>
    <i name="e_0_energy">   -679.46209813 </i>
   </energy>
  </scstep>
  <scstep>
   <time name="dav">   56.08   56.09</time>
   <time name="total">   60.19   60.20</time>
   <energy>
    <i name="e_fr_energy">   -679.46209821 </i>
    <i name="e_wo_entrp">   -679.46209821 </i>
    <i name="e_0_energy">   -679.46209821 </i>
   </energy>
  </scstep>
  <scstep>
   <time name="dav">   52.09   52.10</time>
   <time name="total">   56.18   56.19</time>
   <energy>
    <i name="e_fr_energy">   -679.46209828 </i>
    <i name="e_wo_entrp">   -679.46209828 </i>
    <i name="e_0_energy">   -679.46209828 </i>
   </energy>
  </scstep>
  <scstep>
   <time name="dav">   51.14   51.16</time>
   <time name="total">   55.23   55.26</time>
   <energy>
    <i name="e_fr_energy">   -679.46209824 </i>
    <i name="e_wo_entrp">   -679.46209824 </i>
    <i name="e_0_energy">   -679.46209824 </i>
   </energy>
  </scstep>
  <scstep>
   <time name="dav">   50.79   50.80</time>
   <time name="total">   51.79   51.81</time>
   <energy>
    <i name="alphaZ">    210.77028614 </i>
    <i name="ewald"> -14467.76087225 </i>
    <i name="hartreedc">  -1005.04709027 </i>
    <i name="XCdc">  -1155.72068019 </i>
    <i name="pawpsdc">   4731.80760773 </i>
    <i name="pawaedc">  -2493.55790055 </i>
    <i name="eentropy">     -0.00000000 </i>
    <i name="bandstr">    307.56569118 </i>
    <i name="atom">  13192.48085998 </i>
    <i name="e_fr_energy">   -679.46209823 </i>
    <i name="e_wo_entrp">   -679.46209823 </i>
    <i name="e_0_energy">   -679.46209823 </i>
   </energy>
  </scstep>
  <structure>
   <crystal>
    <varray name="basis" >
     <v>       0.00000000      10.93733369      10.93733369 </v>
     <v>      10.93733369       0.00000000      10.93733369 </v>
     <v>      10.93733369      10.93733369       0.00000000 </v>
    </varray>
    <i name="volume">   2616.76295363 </i>
    <varray name="rec_basis" >
     <v>      -0.04571498       0.04571498       0.04571498 </v>
     <v>       0.04571498      -0.04571498       0.04571498 </v>
     <v>       0.04571498       0.04571498      -0.04571498 </v>
    </varray>
   </crystal>
   <varray name="positions" >
    <v>       0.99128824       0.00322874       0.00628363 </v>
    <v>       0.24779512       0.00236593       0.00541454 </v>
    <v>       0.49179803       0.99412806       0.00985546 </v>
    <v>       0.74881837       0.99797073       0.00371790 </v>
    <v>       0.99626594       0.25331052       0.99148790 </v>
    <v>       0.24526482       0.25097652       0.00437642 </v>
    <v>       0.51563371       0.24262386       0.00166746 </v>
    <v>       0.73852303       0.24199915       0.00775426 </v>
    <v>       0.00359784       0.50702360       0.99376161 </v>
    <v>       0.24242177       0.50876757       0.00130631 </v>
    <v>       0.49188647       0.51233207       0.99846438 </v>
    <v>       0.74946652       0.49949304       0.99681368 </v>
    <v>       0.00139806       0.73973240       0.99882568 </v>
    <v>       0.26165444       0.74129918       0.00122501 </v>
    <v>       0.50152308       0.73968622       0.01131144 </v>
    <v>       0.74370639       0.76799565       0.98930993 </v>
    <v>       0.00988145       0.99651989       0.25218619 </v>
    <v>       0.24975828       0.99311828       0.24552209 </v>
    <v>       0.49070287       0.01172435       0.25009184 </v>
    <v>       0.74557547       0.99596378       0.25193464 </v>
    <v>       0.99463087       0.25622507       0.24670764 </v>
    <v>       0.24944213       0.25361232       0.24412254 </v>
    <v>       0.50041778       0.24670006       0.25386351 </v>
    <v>       0.74564233       0.25462590       0.24716536 </v>
    <v>       0.00951663       0.49590621       0.23607231 </v>
    <v>       0.24218785       0.49485307       0.24354448 </v>
    <v>       0.51085643       0.49546311       0.24533676 </v>
    <v>       0.75526439       0.49719054       0.25208543 </v>
    <v>       0.99237338       0.75235507       0.25969020 </v>
    <v>       0.24343535       0.74949232       0.25064453 </v>
    <v>       0.50581718       0.76487282       0.24142188 </v>
    <v>       0.74612404       0.76062196       0.25167644 </v>
    <v>       0.00191131       0.00628975       0.50541842 </v>
    <v>       0.24121103       0.99343503       0.50794866 </v>
    <v>       0.49859315       0.99792908       0.50073578 </v>
    <v>       0.74828076       0.00901817       0.50156769 </v>
    <v>       0.99503733       0.24733410       0.49838875 </v>
    <v>       0.24320424       0.25858121       0.49725217 </v>
    <v>       0.50295754       0.25589495       0.49985198 </v>
    <v>       0.74848891       0.24629058       0.49355427 </v>
    <v>       0.99219343       0.50630269       0.50565469 </v>
    <v>       0.25566194       0.49796844       0.50238593 </v>
    <v>       0.50895971       0.49332147       0.49599577 </v>
    <v>       0.74697219       0.49670391       0.49991998 </v>
    <v>       0.01287689       0.74803838       0.49784418 </v>
    <v>       0.25111966       0.74914642       0.49690864 </v>
    <v>       0.50326271       0.74794083       0.50330898 </v>
    <v>       0.74406613       0.75431873       0.48962936 </v>
    <v>       0.99932609       0.99045549       0.75561702 </v>
    <v>       0.23924935       0.00031121       0.74616603 </v>
    <v>       0.50458401       0.99570865       0.75569300 </v>
    <v>       0.74295680       0.01432481       0.74782936 </v>
    <v>       0.00148940       0.24264099       0.75754798 </v>
    <v>       0.25362523       0.24898661       0.76053195 </v>
    <v>       0.52035396       0.23769925       0.74615009 </v>
    <v>       0.73865553       0.25544323       0.74158263 </v>
    <v>       0.00183729       0.49577424       0.76192862 </v>
    <v>       0.25078207       0.49015813       0.74572666 </v>
    <v>       0.50040443       0.49394082       0.75414271 </v>
    <v>       0.75204720       0.50275942       0.74470386 </v>
    <v>       0.99203382       0.75412170       0.74278398 </v>
    <v>       0.24454015       0.75298083       0.75210200 </v>
    <v>       0.49975980       0.74716353       0.75200221 </v>
    <v>       0.75184126       0.74162921       0.75073236 </v>
    <v>       0.07135732       0.05494227       0.07125759 </v>
    <v>       0.31433719       0.07265482       0.05652586 </v>
    <v>       0.56343116       0.05899930       0.07144138 </v>
    <v>       0.81216385       0.06970288       0.06079179 </v>
    <v>       0.05787462       0.29955004       0.07586708 </v>
    <v>       0.31027010       0.31452125       0.06770597 </v>
    <v>       0.55952035       0.30872150       0.07202620 </v>
    <v>       0.82549638       0.30966558       0.05835886 </v>
    <v>       0.05849930       0.56713947       0.06419677 </v>
    <v>       0.31045469       0.55143433       0.05984143 </v>
    <v>       0.56981292       0.55951608       0.05937985 </v>
    <v>       0.80347259       0.56218890       0.07135462 </v>
    <v>       0.06347793       0.81280914       0.05603555 </v>
    <v>       0.32175836       0.80535192       0.06383564 </v>
    <v>       0.56548105       0.81772150       0.05295910 </v>
    <v>       0.80789601       0.81376015       0.07093932 </v>
    <v>       0.06616726       0.06346141       0.32291407 </v>
    <v>       0.31018831       0.06440496       0.30704744 </v>
    <v>       0.56305525       0.07003993       0.30437833 </v>
    <v>       0.82334979       0.06830190       0.30326310 </v>
    <v>       0.06680481       0.31420766       0.30486509 </v>
    <v>       0.31639931       0.30905749       0.30062904 </v>
    <v>       0.56009713       0.31060298       0.31504959 </v>
    <v>       0.80656545       0.31060258       0.31364226 </v>
    <v>       0.05294395       0.55326633       0.32442579 </v>
    <v>       0.31202985       0.55978995       0.30374818 </v>
    <v>       0.56242851       0.56359267       0.30359680 </v>
    <v>       0.82301195       0.55556236       0.31696192 </v>
    <v>       0.05994796       0.81323136       0.31115828 </v>
    <v>       0.31465053       0.80763003       0.31282724 </v>
    <v>       0.56233731       0.81352946       0.31445734 </v>
    <v>       0.81322433       0.81776002       0.30748604 </v>
    <v>       0.05837415       0.05840865       0.56355265 </v>
    <v>       0.30987070       0.07092664       0.56383361 </v>
    <v>       0.56486490       0.06189218       0.55944332 </v>
    <v>       0.82294380       0.04671943       0.56861077 </v>
    <v>       0.05036951       0.32242635       0.57835265 </v>
    <v>       0.31090063       0.31768066       0.56653739 </v>
    <v>       0.56378096       0.31566693       0.56253323 </v>
    <v>       0.80287074       0.31429825       0.56207974 </v>
    <v>       0.05747726       0.56726490       0.56181175 </v>
    <v>       0.30157163       0.57302478       0.55631841 </v>
    <v>       0.56121059       0.56060003       0.56687350 </v>
    <v>       0.81589661       0.55627525       0.56223363 </v>
    <v>       0.05836417       0.81995761       0.56393021 </v>
    <v>       0.31896881       0.80252918       0.56883214 </v>
    <v>       0.56284301       0.82237384       0.55518693 </v>
    <v>       0.79918563       0.82555959       0.55576491 </v>
    <v>       0.05512664       0.06082527       0.81914852 </v>
    <v>       0.30267602       0.07220989       0.81329349 </v>
    <v>       0.56827623       0.06162025       0.80402083 </v>
    <v>       0.80100950       0.06195874       0.81498397 </v>
    <v>       0.05231020       0.31538657       0.81685135 </v>
    <v>       0.31723592       0.31805997       0.80615926 </v>
    <v>       0.56270486       0.31781558       0.80683410 </v>
    <v>       0.82330930       0.30968564       0.81704095 </v>
    <v>       0.05798986       0.57156310       0.81051056 </v>
    <v>       0.32095643       0.54660142       0.81695957 </v>
    <v>       0.55763658       0.56206513       0.81413212 </v>
    <v>       0.81151892       0.55060509       0.82021889 </v>
    <v>       0.05664790       0.81068817       0.81632694 </v>
    <v>       0.31342493       0.82098028       0.81045133 </v>
    <v>       0.56939248       0.81046405       0.80467914 </v>
    <v>       0.80977495       0.81506848       0.80743019 </v>
   </varray>
  </structure>
  <varray name="forces" >
   <v>      -0.73552563       1.40775239       0.83285951 </v>
   <v>      -1.71181407       0.57711105       0.96503960 </v>
   <v>      -0.08711808      -0.33498157       2.63905433 </v>
   <v>       0.19009824       0.06855455       0.58520567 </v>
   <v>      -0.24907158       3.50102015       0.03561485 </v>
   <v>       0.48623443      -0.58604698       1.31735056 </v>
   <v>       0.32924534      -1.95037040      -0.76764157 </v>
   <v>       0.84126147       0.04398855       3.15248684 </v>
   <v>       0.23086170       0.31768097      -1.97466354 </v>
   <v>      -2.41542582      -0.71768876      -1.48621753 </v>
   <v>      -1.09557210       1.26732208      -0.74492869 </v>
   <v>       0.18219634       1.60779397      -0.19917730 </v>
   <v>       2.48418269      -0.93467058       1.03727625 </v>
   <v>       0.38999708      -1.15026029      -0.33893084 </v>
   <v>      -0.73462553      -0.90031593       1.62238146 </v>
   <v>      -0.58347205       2.19767140      -0.51371025 </v>
   <v>       1.16662202       0.12544411      -0.10384001 </v>
   <v>       0.75017804       0.42007228       0.96005113 </v>
   <v>      -0.47777527       1.36307543      -0.58325020 </v>
   <v>       0.75220881       0.00259161       2.11797240 </v>
   <v>       0.99613843       1.82304625      -1.56755040 </v>
   <v>      -0.41445798       0.74721309      -1.32420793 </v>
   <v>       0.73569270      -0.48396761       0.42380671 </v>
   <v>      -0.82157891       0.16305524       0.29120963 </v>
   <v>       2.46434483       1.35071593      -1.21784981 </v>
   <v>       0.97687288       0.92959665       0.41142730 </v>
   <v>       0.03484576      -1.46014679      -1.20795754 </v>
   <v>       0.80606339      -0.14978559      -0.61832156 </v>
   <v>      -2.34314481      -0.24941021       0.19560472 </v>
   <v>      -0.70446336       0.70836673       0.46706340 </v>
   <v>      -1.33067765      -0.32029679      -1.84152027 </v>
   <v>      -1.25417953       0.81106883      -1.25316338 </v>
   <v>      -2.27090857      -1.35621129      -1.93906742 </v>
   <v>      -0.62179652       0.45015503       1.78559664 </v>
   <v>       0.80005566      -1.24966407       1.47162626 </v>
   <v>      -1.38756393      -0.67060984       0.14931086 </v>
   <v>       1.13811178       0.29045675       0.75570068 </v>
   <v>       0.33321019       0.17219140       0.39766427 </v>
   <v>      -0.21091195      -0.20982228      -1.35837461 </v>
   <v>       0.37105696       1.39025635      -0.32542156 </v>
   <v>      -0.61288208       0.72088154       0.11426121 </v>
   <v>      -0.66428787      -2.44324596      -0.62919120 </v>
   <v>       1.56276226      -1.73770565       0.44653142 </v>
   <v>       0.47568806       0.61343504       0.46216769 </v>
   <v>       1.05690602      -1.86549195      -0.74246715 </v>
   <v>       1.68369079      -0.15725521       0.65523398 </v>
   <v>      -0.10337534      -0.22667047       0.08952625 </v>
   <v>       0.20934969       1.50907912       0.10696989 </v>
   <v>       1.24896945      -1.41298207       0.36986840 </v>
   <v>       1.31142929       0.86871038       1.33349962 </v>
   <v>      -0.55988648      -2.10829266      -0.62398180 </v>
   <v>      -2.45078835       0.83386568      -1.07617818 </v>
   <v>       0.04942662       0.11084797       0.34954334 </v>
   <v>      -0.01260892      -2.22061952      -0.19699936 </v>
   <v>       1.84626983      -1.94167518      -0.12623810 </v>
   <v>       0.03783905       2.82828787       0.96871388 </v>
   <v>      -0.41290645      -2.02771402       0.00070471 </v>
   <v>       2.10959164      -1.20528810       1.84123366 </v>
   <v>       0.33418109      -0.54485987       1.08015386 </v>
   <v>       0.19709272       0.56133841      -1.19638920 </v>
   <v>       0.88779313       1.14219975       0.46065735 </v>
   <v>      -0.45821676       1.36921189      -0.35581849 </v>
   <v>      -0.22687763      -0.92490140       0.87932393 </v>
   <v>      -0.41112160      -0.26542695       0.59538986 </v>
   <v>       0.31546167      -2.36518431      -0.40289223 </v>
   <v>      -0.19004745       0.09896716      -1.77579000 </v>
   <v>      -1.14115007      -0.95516525      -0.20529527 </v>
   <v>      -0.71308936       0.53609728      -2.25848161 </v>
   <v>      -1.33314439      -2.51081384       2.34961308 </v>
   <v>      -1.32372886      -0.75899453       1.20434856 </v>
   <v>       0.75365902      -1.11468993       1.08229759 </v>
   <v>       1.46839145      -2.21842599      -2.52576951 </v>
   <v>      -2.05712648      -0.33603121       0.12061602 </v>
   <v>       2.04190421       0.88106938       1.92571026 </v>
   <v>       0.30107848      -0.13833385      -0.99129782 </v>
   <v>      -0.70103786      -0.81222000       1.84554453 </v>
   <v>       0.34744991       0.83409715      -0.34504214 </v>
   <v>       1.10520780      -0.83431226      -0.31201140 </v>
   <v>       0.30513024       0.36386665      -1.27346983 </v>
   <v>      -1.42157422      -0.58622929       0.45186909 </v>
   <v>      -0.71005964      -1.36381506       0.13266268 </v>
   <v>       0.66098671      -0.08322505      -1.26691619 </v>
   <v>       0.05478036       1.11683685      -1.62745635 </v>
   <v>       0.25846742      -0.10024531      -1.47624946 </v>
   <v>       0.24965228       0.13347470      -1.00969816 </v>
   <v>       1.61623227       0.84169821      -0.32174734 </v>
   <v>       0.14270797       0.10459506       0.34762783 </v>
   <v>      -0.16533678      -0.14623647       0.86584155 </v>
   <v>      -0.51788332      -0.95793774       1.32550833 </v>
   <v>       0.11161347       0.70801797      -0.11132418 </v>
   <v>       1.25731646       1.28021530       1.36467784 </v>
   <v>       0.11957268      -1.63157080       0.37993386 </v>
   <v>       0.55852177       0.80687723       0.11732651 </v>
   <v>      -0.50072246      -0.35093144       0.29330606 </v>
   <v>       1.31760022       0.02637829       0.61693996 </v>
   <v>       0.18523521       0.20706400      -0.56749047 </v>
   <v>       2.48418237       2.11251612       1.58842517 </v>
   <v>      -0.87010824      -0.84335369      -0.74609869 </v>
   <v>       1.14547494       0.01372145      -0.12294289 </v>
   <v>       1.36512575      -1.50127731       0.77343705 </v>
   <v>      -2.36542635      -0.72891602      -0.06434299 </v>
   <v>      -0.86605894       0.52962447      -0.69629204 </v>
   <v>      -0.87635525       0.61604188      -0.40807851 </v>
   <v>      -1.57089743      -0.08837851       0.26401192 </v>
   <v>       0.06498046       1.84683573       0.17847792 </v>
   <v>      -0.74978332       2.67344823       0.30105590 </v>
   <v>      -0.33164013      -0.43575058       0.04356243 </v>
   <v>       0.93250506      -1.86607405      -0.26021428 </v>
   <v>      -1.09006985       0.07827442       0.88253019 </v>
   <v>       0.07797757      -1.28789457      -0.12161425 </v>
   <v>      -0.42021125       1.10977369      -1.88986528 </v>
   <v>      -1.09668157       1.63305459      -0.06254473 </v>
   <v>      -0.48223530       0.13488195      -0.44895782 </v>
   <v>      -1.52224524       1.23938739      -1.04012852 </v>
   <v>       1.37890934       1.01947367      -1.74885713 </v>
   <v>       0.95363607       1.39833307       1.70394600 </v>
   <v>      -1.56543233       0.83903170       1.59522712 </v>
   <v>      -0.79830648       2.56744479      -1.02499567 </v>
   <v>       0.20568724       1.17962131      -1.65513215 </v>
   <v>       0.42728241      -2.16302835      -1.79774529 </v>
   <v>      -0.72011252       1.02001545       0.22034892 </v>
   <v>       1.03440914      -2.17468604      -0.21528278 </v>
   <v>      -0.48710264       0.47375461       0.51571024 </v>
   <v>      -0.26788436      -0.74319614       1.85263530 </v>
   <v>      -1.28352999      -0.09762808      -0.41753488 </v>
   <v>      -0.75932693       0.39010388      -1.34115989 </v>
   <v>       1.08192469       0.84582909      -1.10959645 </v>
   <v>       0.46781080      -0.95355748       0.24410008 </v>
  </varray>
  <varray name="stress" >
   <v>      13.64336838      -3.18213716      -0.33479337 </v>
   <v>      -3.18213715      11.90609294      -1.09061864 </v>
   <v>      -0.33479338      -1.09061863      13.11475756 </v>
  </varray>
  <energy>
   <i name="e_fr_energy">   -679.46209823 </i>
   <i name="e_wo_entrp">   -679.46209823 </i>
   <i name="e_0_energy">     -0.00000000 </i>
  </energy>
  <time name="totalsc"> 1652.40 1652.82</time>
  <eigenvalues>
   <array>
    <dimension dim="1">band</dimension>
    <dimension dim="2">kpoint</dimension>
    <dimension dim="3">spin</dimension>
    <field>eigene</field>
    <field>occ</field>
    <set>
     <set comment="spin 1">
      <set comment="kpoint 1">
       <r>   -6.3024    1.0000 </r>
       <r>   -5.7269    1.0000 </r>
       <r>   -5.6526    1.0000 </r>
       <r>   -5.5930    1.0000 </r>
       <r>   -5.5867    1.0000 </r>
       <r>   -5.5222    1.0000 </r>
       <r>   -5.4786    1.0000 </r>
       <r>   -5.4495    1.0000 </r>
       <r>   -5.3921    1.0000 </r>
       <r>   -5.3324    1.0000 </r>
       <r>   -5.2459    1.0000 </r>
       <r>   -5.2128    1.0000 </r>
       <r>   -5.1963    1.0000 </r>
       <r>   -5.1617    1.0000 </r>
       <r>   -5.1014    1.0000 </r>
       <r>   -4.5574    1.0000 </r>
       <r>   -4.4992    1.0000 </r>
       <r>   -4.4262    1.0000 </r>
       <r>   -4.4022    1.0000 </r>
       <r>   -4.3544    1.0000 </r>
       <r>   -4.3180    1.0000 </r>
       <r>   -4.3062    1.0000 </r>
       <r>   -4.2667    1.0000 </r>
       <r>   -4.2460    1.0000 </r>
       <r>   -4.1778    1.0000 </r>
       <r>   -4.1377    1.0000 </r>
       <r>   -4.1016    1.0000 </r>
       <r>   -4.0674    1.0000 </r>
       <r>   -4.0083    1.0000 </r>
       <r>   -3.9739    1.0000 </r>
       <r>   -3.9555    1.0000 </r>
       <r>   -3.8441    1.0000 </r>
       <r>   -3.8039    1.0000 </r>
       <r>   -3.7775    1.0000 </r>
       <r>   -3.7600    1.0000 </r>
       <r>   -3.7258    1.0000 </r>
       <r>   -3.6934    1.0000 </r>
       <r>   -3.6762    1.0000 </r>
       <r>   -3.6695    1.0000 </r>
       <r>   -3.6416    1.0000 </r>
       <r>   -3.6404    1.0000 </r>
       <r>   -3.6162    1.0000 </r>
       <r>   -3.5838    1.0000 </r>
       <r>   -3.5689    1.0000 </r>
       <r>   -3.5373    1.0000 </r>
       <r>   -3.5190    1.0000 </r>
       <r>   -3.4750    1.0000 </r>
       <r>   -3.4527    1.0000 </r>
       <r>   -3.4238    1.0000 </r>
       <r>   -3.3669    1.0000 </r>
       <r>   -3.3414    1.0000 </r>
       <r>   -3.2800    1.0000 </r>
       <r>   -3.2654    1.0000 </r>
       <r>   -3.2534    1.0000 </r>
       <r>   -3.2018    1.0000 </r>
       <r>   -2.3482    1.0000 </r>
       <r>   -2.3141    1.0000 </r>
       <r>   -2.2571    1.0000 </r>
       <r>   -2.2415    1.0000 </r>
       <r>   -2.2269    1.0000 </r>
       <r>   -2.1741    1.0000 </r>
       <r>   -2.1462    1.0000 </r>
       <r>   -2.0962    1.0000 </r>
       <r>   -2.0632    1.0000 </r>
       <r>   -2.0254    1.0000 </r>
       <r>   -1.9870    1.0000 </r>
       <r>   -1.9649    1.0000 </r>
       <r>   -1.9306    1.0000 </r>
       <r>   -1.9157    1.0000 </r>
       <r>   -1.9113    1.0000 </r>
       <r>   -1.8696    1.0000 </r>
       <r>   -1.8494    1.0000 </r>
       <r>   -1.8162    1.0000 </r>
       <r>   -1.4257    1.0000 </r>
       <r>   -1.3090    1.0000 </r>
       <r>   -1.2647    1.0000 </r>
       <r>   -1.2191    1.0000 </r>
       <r>   -1.0371    1.0000 </r>
       <r>   -0.9607    1.0000 </r>
       <r>   -0.9242    1.0000 </r>
       <r>   -0.9121    1.0000 </r>
       <r>   -0.9002    1.0000 </r>
       <r>   -0.8654    1.0000 </r>
       <r>   -0.8498    1.0000 </r>
       <r>   -0.8190    1.0000 </r>
       <r>   -0.8165    1.0000 </r>
       <r>   -0.7781    1.0000 </r>
       <r>   -0.7459    1.0000 </r>
       <r>   -0.7115    1.0000 </r>
       <r>   -0.7050    1.0000 </r>
       <r>   -0.6913    1.0000 </r>
       <r>   -0.6688    1.0000 </r>
       <r>   -0.6441    1.0000 </r>
       <r>   -0.6137    1.0000 </r>
       <r>   -0.5943    1.0000 </r>
       <r>   -0.5752    1.0000 </r>
       <r>   -0.5559    1.0000 </r>
       <r>   -0.5276    1.0000 </r>
       <r>   -0.5002    1.0000 </r>
       <r>   -0.4287    1.0000 </r>
       <r>   -0.3940    1.0000 </r>
       <r>   -0.0028    1.0000 </r>
       <r>    0.0470    1.0000 </r>
       <r>    0.0884    1.0000 </r>
       <r>    0.1138    1.0000 </r>
       <r>    0.1417    1.0000 </r>
       <r>    0.1558    1.0000 </r>
       <r>    0.1635    1.0000 </r>
       <r>    0.2234    1.0000 </r>
       <r>    0.2511    1.0000 </r>
       <r>    0.2622    1.0000 </r>
       <r>    0.3498    1.0000 </r>
       <r>    0.3549    1.0000 </r>
       <r>    1.4385    1.0000 </r>
       <r>    1.4761    1.0000 </r>
       <r>    1.4956    1.0000 </r>
       <r>    1.5228    1.0000 </r>
       <r>    1.5394    1.0000 </r>
       <r>    1.5631    1.0000 </r>
       <r>    1.5662    1.0000 </r>
       <r>    1.6114    1.0000 </r>
       <r>    1.6229    1.0000 </r>
       <r>    1.6577    1.0000 </r>
       <r>    1.6609    1.0000 </r>
       <r>    1.6767    1.0000 </r>
       <r>    1.7066    1.0000 </r>
       <r>    1.7258    1.0000 </r>
       <r>    1.7367    1.0000 </r>
       <r>    1.7631    1.0000 </r>
       <r>    1.7854    1.0000 </r>
       <r>    1.7977    1.0000 </r>
       <r>    1.8084    1.0000 </r>
       <r>    1.8362    1.0000 </r>
       <r>    1.8400    1.0000 </r>
       <r>    1.8516    1.0000 </r>
       <r>    1.8628    1.0000 </r>
       <r>    1.8697    1.0000 </r>
       <r>    1.8887    1.0000 </r>
       <r>    1.8990    1.0000 </r>
       <r>    1.9064    1.0000 </r>
       <r>    1.9178    1.0000 </r>
       <r>    1.9320    1.0000 </r>
       <r>    1.9605    1.0000 </r>
       <r>    1.9712    1.0000 </r>
       <r>    1.9829    1.0000 </r>
       <r>    1.9862    1.0000 </r>
       <r>    2.0051    1.0000 </r>
       <r>    2.0276    1.0000 </r>
       <r>    2.0373    1.0000 </r>
       <r>    2.0636    1.0000 </r>
       <r>    2.0785    1.0000 </r>
       <r>    2.0842    1.0000 </r>
       <r>    2.0917    1.0000 </r>
       <r>    2.1187    1.0000 </r>
       <r>    2.1258    1.0000 </r>
       <r>    2.1393    1.0000 </r>
       <r>    2.1561    1.0000 </r>
       <r>    2.1809    1.0000 </r>
       <r>    2.1958    1.0000 </r>
       <r>    2.2004    1.0000 </r>
       <r>    2.2116    1.0000 </r>
       <r>    2.2167    1.0000 </r>
       <r>    2.2258    1.0000 </r>
       <r>    2.2412    1.0000 </r>
       <r>    2.2525    1.0000 </r>
       <r>    2.2771    1.0000 </r>
       <r>    2.2974    1.0000 </r>
       <r>    2.3183    1.0000 </r>
       <r>    2.3370    1.0000 </r>
       <r>    2.3377    1.0000 </r>
       <r>    2.3591    1.0000 </r>
       <r>    2.3754    1.0000 </r>
       <r>    2.4247    1.0000 </r>
       <r>    2.4410    1.0000 </r>
       <r>    2.4573    1.0000 </r>
       <r>    2.7771    1.0000 </r>
       <r>    2.8102    1.0000 </r>
       <r>    2.8306    1.0000 </r>
       <r>    2.8371    1.0000 </r>
       <r>    2.8584    1.0000 </r>
       <r>    2.8765    1.0000 </r>
       <r>    3.1772    1.0000 </r>
       <r>    3.2208    1.0000 </r>
       <r>    3.2603    1.0000 </r>
       <r>    3.2839    1.0000 </r>
       <r>    3.2957    1.0000 </r>
       <r>    3.3123    1.0000 </r>
       <r>    3.3251    1.0000 </r>
       <r>    3.3520    1.0000 </r>
       <r>    3.3721    1.0000 </r>
       <r>    3.3819    1.0000 </r>
       <r>    3.4013    1.0000 </r>
       <r>    3.4132    1.0000 </r>
       <r>    3.4279    1.0000 </r>
       <r>    3.4480    1.0000 </r>
       <r>    3.4564    1.0000 </r>
       <r>    3.4827    1.0000 </r>
       <r>    3.5032    1.0000 </r>
       <r>    3.5196    1.0000 </r>
       <r>    3.5409    1.0000 </r>
       <r>    3.5460    1.0000 </r>
       <r>    3.5589    1.0000 </r>
       <r>    3.5867    1.0000 </r>
       <r>    3.6168    1.0000 </r>
       <r>    3.6317    1.0000 </r>
       <r>    3.6813    1.0000 </r>
       <r>    3.7129    1.0000 </r>
       <r>    3.7246    1.0000 </r>
       <r>    3.7592    1.0000 </r>
       <r>    3.7732    1.0000 </r>
       <r>    3.7952    1.0000 </r>
       <r>    3.8180    1.0000 </r>
       <r>    3.8465    1.0000 </r>
       <r>    3.8794    1.0000 </r>
       <r>    3.8983    1.0000 </r>
       <r>    3.9296    1.0000 </r>
       <r>    3.9627    1.0000 </r>
       <r>    4.1440    1.0000 </r>
       <r>    4.1612    1.0000 </r>
       <r>    4.1939    1.0000 </r>
       <r>    4.2337    1.0000 </r>
       <r>    4.2505    1.0000 </r>
       <r>    4.3019    1.0000 </r>
       <r>    4.3231    1.0000 </r>
       <r>    4.3498    1.0000 </r>
       <r>    4.4093    1.0000 </r>
       <r>    4.4162    1.0000 </r>
       <r>    4.4240    1.0000 </r>
       <r>    4.4361    1.0000 </r>
       <r>    4.4509    1.0000 </r>
       <r>    4.4601    1.0000 </r>
       <r>    4.5083    1.0000 </r>
       <r>    4.5337    1.0000 </r>
       <r>    4.5454    1.0000 </r>
       <r>    4.5630    1.0000 </r>
       <r>    4.6066    1.0000 </r>
       <r>    4.6475    1.0000 </r>
       <r>    4.7490    1.0000 </r>
       <r>    4.7765    1.0000 </r>
       <r>    4.8420    1.0000 </r>
       <r>    4.8493    1.0000 </r>
       <r>    4.8774    1.0000 </r>
       <r>    4.9137    1.0000 </r>
       <r>    4.9540    1.0000 </r>
       <r>    4.9621    1.0000 </r>
       <r>    4.9665    1.0000 </r>
       <r>    5.0258    1.0000 </r>
       <r>    5.0430    1.0000 </r>
       <r>    5.0677    1.0000 </r>
       <r>    5.1209    1.0000 </r>
       <r>    5.1381    1.0000 </r>
       <r>    5.1467    1.0000 </r>
       <r>    5.2729    1.0000 </r>
       <r>    5.7197    1.0000 </r>
       <r>    5.7680    1.0000 </r>
       <r>    5.8011    1.0000 </r>
       <r>    6.0978    0.0000 </r>
       <r>    6.1958    0.0000 </r>
       <r>    6.2262    0.0000 </r>
       <r>    6.2532    0.0000 </r>
       <r>    6.3321    0.0000 </r>
       <r>    6.3576    0.0000 </r>
       <r>    6.5082    0.0000 </r>
       <r>    6.5644    0.0000 </r>
       <r>    6.6076    0.0000 </r>
       <r>    6.6607    0.0000 </r>
       <r>    6.6809    0.0000 </r>
       <r>    6.7176    0.0000 </r>
       <r>    6.7793    0.0000 </r>
       <r>    6.8154    0.0000 </r>
       <r>    6.8513    0.0000 </r>
       <r>    6.8719    0.0000 </r>
       <r>    6.9101    0.0000 </r>
       <r>    6.9195    0.0000 </r>
       <r>    6.9300    0.0000 </r>
       <r>    6.9482    0.0000 </r>
       <r>    6.9944    0.0000 </r>
       <r>    7.0012    0.0000 </r>
       <r>    7.0213    0.0000 </r>
       <r>    7.0348    0.0000 </r>
       <r>    7.0423    0.0000 </r>
       <r>    7.0702    0.0000 </r>
       <r>    7.0830    0.0000 </r>
       <r>    7.0989    0.0000 </r>
       <r>    7.1201    0.0000 </r>
       <r>    7.1399    0.0000 </r>
       <r>    7.1488    0.0000 </r>
       <r>    7.1697    0.0000 </r>
       <r>    7.1809    0.0000 </r>
       <r>    7.1940    0.0000 </r>
       <r>    7.2221    0.0000 </r>
       <r>    7.2355    0.0000 </r>
       <r>    7.2670    0.0000 </r>
       <r>    7.3126    0.0000 </r>
       <r>    7.3210    0.0000 </r>
       <r>    7.3585    0.0000 </r>
       <r>    7.4023    0.0000 </r>
       <r>    7.4743    0.0000 </r>
       <r>    7.4921    0.0000 </r>
       <r>    7.5216    0.0000 </r>
       <r>    7.5482    0.0000 </r>
       <r>    7.5762    0.0000 </r>
       <r>    7.6008    0.0000 </r>
       <r>    7.6432    0.0000 </r>
       <r>    7.8214    0.0000 </r>
       <r>    7.8424    0.0000 </r>
       <r>    7.8945    0.0000 </r>
       <r>    7.9288    0.0000 </r>
       <r>    7.9303    0.0000 </r>
       <r>    7.9657    0.0000 </r>
       <r>    8.0132    0.0000 </r>
       <r>    8.0239    0.0000 </r>
       <r>    8.0368    0.0000 </r>
       <r>    8.0613    0.0000 </r>
       <r>    8.0989    0.0000 </r>
       <r>    8.1371    0.0000 </r>
       <r>    8.1550    0.0000 </r>
       <r>    8.1839    0.0000 </r>
       <r>    8.1969    0.0000 </r>
       <r>    8.5198    0.0000 </r>
       <r>    8.5856    0.0000 </r>
       <r>    8.6042    0.0000 </r>
      </set>
      <set comment="kpoint 2">
       <r>   -6.1356    1.0000 </r>
       <r>   -6.0879    1.0000 </r>
       <r>   -5.7116    1.0000 </r>
       <r>   -5.6955    1.0000 </r>
       <r>   -5.6094    1.0000 </r>
       <r>   -5.5467    1.0000 </r>
       <r>   -5.5275    1.0000 </r>
       <r>   -5.4641    1.0000 </r>
       <r>   -5.2009    1.0000 </r>
       <r>   -5.1570    1.0000 </r>
       <r>   -5.1057    1.0000 </r>
       <r>   -5.0577    1.0000 </r>
       <r>   -5.0170    1.0000 </r>
       <r>   -5.0082    1.0000 </r>
       <r>   -4.7569    1.0000 </r>
[...]
       <r>    -3.1124    47.7796   100.8372 </r>
       <r>    -3.0577    41.3172   103.0955 </r>
       <r>    -3.0031    36.2392   105.0763 </r>
       <r>    -2.9484    42.4305   107.3954 </r>
       <r>    -2.8938    44.2129   109.8120 </r>
       <r>    -2.8391    34.4431   111.6946 </r>
       <r>    -2.7844    32.7712   113.4858 </r>
       <r>    -2.7298    21.9824   114.6874 </r>
       <r>    -2.6751    31.5889   116.4139 </r>
       <r>    -2.6205    41.9598   118.7074 </r>
       <r>    -2.5658    31.3449   120.4206 </r>
       <r>    -2.5112    31.7304   122.1550 </r>
       <r>    -2.4565     7.5642   122.5684 </r>
       <r>    -2.4018     3.3224   122.7500 </r>
       <r>    -2.3472     2.5555   122.8897 </r>
       <r>    -2.2925     6.5873   123.2497 </r>
       <r>    -2.2379    12.9065   123.9552 </r>
       <r>    -2.1832    20.0722   125.0523 </r>
       <r>    -2.1285    26.8878   126.5219 </r>
       <r>    -2.0739    27.0867   128.0024 </r>
       <r>    -2.0192    29.2854   129.6031 </r>
       <r>    -1.9646    25.2750   130.9846 </r>
       <r>    -1.9099    24.8287   132.3417 </r>
       <r>    -1.8553     8.2960   132.7951 </r>
       <r>    -1.8006     8.2609   133.2466 </r>
       <r>    -1.7459     0.0618   133.2500 </r>
       <r>    -1.6913     0.0152   133.2508 </r>
       <r>    -1.6366    17.2515   134.1938 </r>
       <r>    -1.5820    20.6320   135.3215 </r>
       <r>    -1.5273    38.9294   137.4493 </r>
       <r>    -1.4727    28.7876   139.0228 </r>
       <r>    -1.4180    54.3474   141.9933 </r>
       <r>    -1.3633    33.5816   143.8288 </r>
       <r>    -1.3087    48.5207   146.4809 </r>
       <r>    -1.2540    77.4299   150.7130 </r>
       <r>    -1.1994    57.6998   153.8668 </r>
       <r>    -1.1447    63.7581   157.3517 </r>
       <r>    -1.0901    58.1990   160.5327 </r>
       <r>    -1.0354    67.7482   164.2357 </r>
       <r>    -0.9807    60.3942   167.5367 </r>
       <r>    -0.9261    71.6403   171.4524 </r>
       <r>    -0.8714    69.2162   175.2357 </r>
       <r>    -0.8168    53.9427   178.1841 </r>
       <r>    -0.7621    55.4921   181.2171 </r>
       <r>    -0.7074    30.6262   182.8911 </r>
       <r>    -0.6528    56.0165   185.9528 </r>
       <r>    -0.5981    27.5355   187.4579 </r>
       <r>    -0.5435    41.2935   189.7149 </r>
       <r>    -0.4888    18.6918   190.7365 </r>
       <r>    -0.4342    10.3908   191.3045 </r>
       <r>    -0.3795    42.6985   193.6383 </r>
       <r>    -0.3248    30.5798   195.3097 </r>
       <r>    -0.2702    67.9474   199.0236 </r>
       <r>    -0.2155    47.5074   201.6202 </r>
       <r>    -0.1609    58.9866   204.8443 </r>
       <r>    -0.1062    40.2588   207.0448 </r>
       <r>    -0.0516    45.0287   209.5059 </r>
       <r>     0.0031    36.2671   211.4882 </r>
       <r>     0.0578    28.7603   213.0602 </r>
       <r>     0.1124     9.9850   213.6060 </r>
       <r>     0.1671    14.7057   214.4097 </r>
       <r>     0.2217     3.5194   214.6022 </r>
       <r>     0.2764    19.0873   215.6454 </r>
       <r>     0.3311    20.1434   216.7464 </r>
       <r>     0.3857    38.4364   218.8473 </r>
       <r>     0.4404    27.7971   220.3666 </r>
       <r>     0.4950    14.2438   221.1451 </r>
       <r>     0.5497    31.8367   222.8853 </r>
       <r>     0.6043    12.4808   223.5674 </r>
       <r>     0.6590    23.7938   224.8679 </r>
       <r>     0.7137    18.8382   225.8976 </r>
       <r>     0.7683    19.3470   226.9551 </r>
       <r>     0.8230    14.5431   227.7500 </r>
       <r>     0.8776     4.5540   227.9989 </r>
       <r>     0.9323    21.0908   229.1517 </r>
       <r>     0.9869    12.9810   229.8612 </r>
       <r>     1.0416    34.5737   231.7509 </r>
       <r>     1.0963    18.0563   232.7379 </r>
       <r>     1.1509    36.5324   234.7346 </r>
       <r>     1.2056    30.7064   236.4130 </r>
       <r>     1.2602    22.3049   237.6321 </r>
       <r>     1.3149    27.8024   239.1517 </r>
       <r>     1.3695    29.5769   240.7683 </r>
       <r>     1.4242    43.6205   243.1525 </r>
       <r>     1.4789    61.1298   246.4938 </r>
       <r>     1.5335    80.0645   250.8699 </r>
       <r>     1.5882    89.6012   255.7674 </r>
       <r>     1.6428    88.5609   260.6079 </r>
       <r>     1.6975    68.4850   264.3512 </r>
       <r>     1.7522    61.5906   267.7176 </r>
       <r>     1.8068    41.1265   269.9656 </r>
       <r>     1.8615    38.7484   272.0835 </r>
       <r>     1.9161    27.4153   273.5819 </r>
       <r>     1.9708    14.3274   274.3650 </r>
       <r>     2.0254    26.8695   275.8337 </r>
       <r>     2.0801    64.8541   279.3785 </r>
       <r>     2.1348   110.5462   285.4207 </r>
       <r>     2.1894    98.6284   290.8115 </r>
       <r>     2.2441   132.6243   298.0606 </r>
       <r>     2.2987   116.5075   304.4286 </r>
       <r>     2.3534   115.3234   310.7320 </r>
       <r>     2.4080   100.7936   316.2412 </r>
       <r>     2.4627    81.6784   320.7055 </r>
       <r>     2.5174    36.1288   322.6803 </r>
       <r>     2.5720    31.4351   324.3985 </r>
       <r>     2.6267    42.0119   326.6948 </r>
       <r>     2.6813    44.3313   329.1178 </r>
       <r>     2.7360    94.0772   334.2599 </r>
       <r>     2.7906   102.1556   339.8435 </r>
       <r>     2.8453    95.4581   345.0611 </r>
       <r>     2.9000    82.2858   349.5587 </r>
       <r>     2.9546    95.4109   354.7736 </r>
       <r>     3.0093   101.5018   360.3216 </r>
       <r>     3.0639   105.0403   366.0628 </r>
       <r>     3.1186    87.5599   370.8487 </r>
       <r>     3.1733    55.8734   373.9026 </r>
       <r>     3.2279    82.6456   378.4199 </r>
       <r>     3.2826    74.2423   382.4778 </r>
       <r>     3.3372   110.0957   388.4954 </r>
       <r>     3.3919   102.1653   394.0795 </r>
       <r>     3.4465    95.7349   399.3122 </r>
       <r>     3.5012    86.7881   404.0558 </r>
       <r>     3.5559    95.2099   409.2598 </r>
       <r>     3.6105    59.3410   412.5033 </r>
       <r>     3.6652    79.1171   416.8276 </r>
       <r>     3.7198    54.4763   419.8052 </r>
       <r>     3.7745    86.9122   424.5557 </r>
       <r>     3.8291    94.5538   429.7238 </r>
       <r>     3.8838    74.0891   433.7733 </r>
       <r>     3.9385    84.6620   438.4008 </r>
       <r>     3.9931    62.0352   441.7915 </r>
       <r>     4.0478    62.8224   445.2252 </r>
       <r>     4.1024    69.5317   449.0257 </r>
       <r>     4.1571    85.1829   453.6816 </r>
       <r>     4.2118    66.1232   457.2958 </r>
       <r>     4.2664    68.4265   461.0358 </r>
       <r>     4.3211    58.8480   464.2523 </r>
       <r>     4.3757    76.1075   468.4122 </r>
       <r>     4.4304    74.3109   472.4740 </r>
       <r>     4.4850    79.6434   476.8271 </r>
       <r>     4.5397    63.1078   480.2765 </r>
       <r>     4.5944    74.6318   484.3557 </r>
       <r>     4.6490    49.8051   487.0779 </r>
       <r>     4.7037    39.1155   489.2159 </r>
       <r>     4.7583    24.7672   490.5696 </r>
       <r>     4.8130    26.0654   491.9943 </r>
       <r>     4.8676    26.6826   493.4527 </r>
       <r>     4.9223    53.3356   496.3680 </r>
       <r>     4.9770    37.7861   498.4333 </r>
       <r>     5.0316    41.4901   500.7011 </r>
       <r>     5.0863    34.7836   502.6023 </r>
       <r>     5.1409    18.0630   503.5896 </r>
       <r>     5.1956     7.5089   504.0000 </r>
       <r>     5.2502     0.0038   504.0002 </r>
       <r>     5.3049    13.0248   504.7121 </r>
       <r>     5.3596    21.2973   505.8762 </r>
       <r>     5.4142    14.2352   506.6542 </r>
       <r>     5.4689    18.3950   507.6597 </r>
       <r>     5.5235    22.4041   508.8842 </r>
       <r>     5.5782    24.3789   510.2167 </r>
       <r>     5.6329    12.3637   510.8925 </r>
       <r>     5.6875     6.5396   511.2500 </r>
       <r>     5.7422     4.5711   511.4998 </r>
       <r>     5.7968     5.8212   511.8180 </r>
       <r>     5.8515     3.3294   512.0000 </r>
       <r>     5.9061     0.0000   512.0000 </r>
       <r>     5.9608     0.0000   512.0000 </r>
       <r>     6.0155     0.0000   512.0000 </r>
       <r>     6.0701     0.0002   512.0000 </r>
       <r>     6.1248     4.5742   512.2500 </r>
       <r>     6.1794    16.7261   513.1643 </r>
       <r>     6.2341    19.2980   514.2190 </r>
       <r>     6.2887     9.7295   514.7508 </r>
       <r>     6.3434    18.7643   515.7764 </r>
       <r>     6.3981    29.3909   517.3829 </r>
       <r>     6.4527    14.9859   518.2020 </r>
       <r>     6.5074    34.7789   520.1029 </r>
       <r>     6.5620    11.0042   520.7044 </r>
       <r>     6.6167    22.6413   521.9420 </r>
       <r>     6.6713    14.4857   522.7337 </r>
       <r>     6.7260    31.8665   524.4755 </r>
       <r>     6.7807    34.2478   526.3474 </r>
       <r>     6.8353    34.2378   528.2187 </r>
       <r>     6.8900    28.0825   529.7537 </r>
       <r>     6.9446    37.2762   531.7911 </r>
       <r>     6.9993    40.2624   533.9917 </r>
       <r>     7.0540    46.7554   536.5473 </r>
       <r>     7.1086    32.5422   538.3260 </r>
       <r>     7.1633    31.1574   540.0290 </r>
       <r>     7.2179    27.7815   541.5475 </r>
       <r>     7.2726    56.1039   544.6140 </r>
       <r>     7.3272    68.5866   548.3629 </r>
       <r>     7.3819    60.6786   551.6794 </r>
       <r>     7.4366    82.3784   556.1820 </r>
       <r>     7.4912    81.7518   560.6504 </r>
       <r>     7.5459   104.9477   566.3867 </r>
       <r>     7.6005    78.7668   570.6920 </r>
       <r>     7.6552    82.6210   575.2079 </r>
       <r>     7.7098    92.1582   580.2451 </r>
       <r>     7.7645    88.6434   585.0902 </r>
       <r>     7.8192    94.3388   590.2466 </r>
       <r>     7.8738    96.6750   595.5306 </r>
       <r>     7.9285   106.1919   601.3349 </r>
       <r>     7.9831    93.0870   606.4228 </r>
       <r>     8.0378    93.5539   611.5363 </r>
       <r>     8.0924    74.8823   615.6293 </r>
       <r>     8.1471    61.1315   618.9706 </r>
       <r>     8.2018   101.2662   624.5055 </r>
       <r>     8.2564    74.9911   628.6044 </r>
       <r>     8.3111    85.7396   633.2908 </r>
       <r>     8.3657    75.2908   637.4061 </r>
       <r>     8.4204    67.1816   641.0781 </r>
       <r>     8.4751    37.1002   643.1059 </r>
       <r>     8.5297     6.8395   643.4798 </r>
       <r>     8.5844     2.3570   643.6086 </r>
       <r>     8.6390     7.1612   644.0000 </r>
       <r>     8.6937     0.0000   644.0000 </r>
       <r>     8.7483     0.0000   644.0000 </r>
       <r>     8.8030     0.0000   644.0000 </r>
       <r>     8.8577     0.0000   644.0000 </r>
       <r>     8.9123     0.0000   644.0000 </r>
       <r>     8.9670     0.0000   644.0000 </r>
       <r>     9.0216     0.0000   644.0000 </r>
       <r>     9.0763     0.0000   644.0000 </r>
       <r>     9.1309     0.0000   644.0000 </r>
       <r>     9.1856     0.0000   644.0000 </r>
       <r>     9.2403     0.0000   644.0000 </r>
       <r>     9.2949     0.0000   644.0000 </r>
       <r>     9.3496     0.0000   644.0000 </r>
      </set>
     </set>
    </array>
   </total>
  </dos>
 </calculation>
 <structure name="finalpos" >
  <crystal>
   <varray name="basis" >
    <v>       0.00000000      10.93733369      10.93733369 </v>
    <v>      10.93733369       0.00000000      10.93733369 </v>
    <v>      10.93733369      10.93733369       0.00000000 </v>
   </varray>
   <i name="volume">   2616.76295363 </i>
   <varray name="rec_basis" >
    <v>      -0.04571498       0.04571498       0.04571498 </v>
    <v>       0.04571498      -0.04571498       0.04571498 </v>
    <v>       0.04571498       0.04571498      -0.04571498 </v>
   </varray>
  </crystal>
  <varray name="positions" >
   <v>       0.99128824       0.00322874       0.00628363 </v>
   <v>       0.24779512       0.00236593       0.00541454 </v>
   <v>       0.49179803       0.99412806       0.00985546 </v>
   <v>       0.74881837       0.99797073       0.00371790 </v>
   <v>       0.99626594       0.25331052       0.99148790 </v>
   <v>       0.24526482       0.25097652       0.00437642 </v>
   <v>       0.51563371       0.24262386       0.00166746 </v>
   <v>       0.73852303       0.24199915       0.00775426 </v>
   <v>       0.00359784       0.50702360       0.99376161 </v>
   <v>       0.24242177       0.50876757       0.00130631 </v>
   <v>       0.49188647       0.51233207       0.99846438 </v>
   <v>       0.74946652       0.49949304       0.99681368 </v>
   <v>       0.00139806       0.73973240       0.99882568 </v>
   <v>       0.26165444       0.74129918       0.00122501 </v>
   <v>       0.50152308       0.73968622       0.01131144 </v>
   <v>       0.74370639       0.76799565       0.98930993 </v>
   <v>       0.00988145       0.99651989       0.25218619 </v>
   <v>       0.24975828       0.99311828       0.24552209 </v>
   <v>       0.49070287       0.01172435       0.25009184 </v>
   <v>       0.74557547       0.99596378       0.25193464 </v>
   <v>       0.99463087       0.25622507       0.24670764 </v>
   <v>       0.24944213       0.25361232       0.24412254 </v>
   <v>       0.50041778       0.24670006       0.25386351 </v>
   <v>       0.74564233       0.25462590       0.24716536 </v>
   <v>       0.00951663       0.49590621       0.23607231 </v>
   <v>       0.24218785       0.49485307       0.24354448 </v>
   <v>       0.51085643       0.49546311       0.24533676 </v>
   <v>       0.75526439       0.49719054       0.25208543 </v>
   <v>       0.99237338       0.75235507       0.25969020 </v>
   <v>       0.24343535       0.74949232       0.25064453 </v>
   <v>       0.50581718       0.76487282       0.24142188 </v>
   <v>       0.74612404       0.76062196       0.25167644 </v>
   <v>       0.00191131       0.00628975       0.50541842 </v>
   <v>       0.24121103       0.99343503       0.50794866 </v>
   <v>       0.49859315       0.99792908       0.50073578 </v>
   <v>       0.74828076       0.00901817       0.50156769 </v>
   <v>       0.99503733       0.24733410       0.49838875 </v>
   <v>       0.24320424       0.25858121       0.49725217 </v>
   <v>       0.50295754       0.25589495       0.49985198 </v>
   <v>       0.74848891       0.24629058       0.49355427 </v>
   <v>       0.99219343       0.50630269       0.50565469 </v>
   <v>       0.25566194       0.49796844       0.50238593 </v>
   <v>       0.50895971       0.49332147       0.49599577 </v>
   <v>       0.74697219       0.49670391       0.49991998 </v>
   <v>       0.01287689       0.74803838       0.49784418 </v>
   <v>       0.25111966       0.74914642       0.49690864 </v>
   <v>       0.50326271       0.74794083       0.50330898 </v>
   <v>       0.74406613       0.75431873       0.48962936 </v>
   <v>       0.99932609       0.99045549       0.75561702 </v>
   <v>       0.23924935       0.00031121       0.74616603 </v>
   <v>       0.50458401       0.99570865       0.75569300 </v>
   <v>       0.74295680       0.01432481       0.74782936 </v>
   <v>       0.00148940       0.24264099       0.75754798 </v>
   <v>       0.25362523       0.24898661       0.76053195 </v>
   <v>       0.52035396       0.23769925       0.74615009 </v>
   <v>       0.73865553       0.25544323       0.74158263 </v>
   <v>       0.00183729       0.49577424       0.76192862 </v>
   <v>       0.25078207       0.49015813       0.74572666 </v>
   <v>       0.50040443       0.49394082       0.75414271 </v>
   <v>       0.75204720       0.50275942       0.74470386 </v>
   <v>       0.99203382       0.75412170       0.74278398 </v>
   <v>       0.24454015       0.75298083       0.75210200 </v>
   <v>       0.49975980       0.74716353       0.75200221 </v>
   <v>       0.75184126       0.74162921       0.75073236 </v>
   <v>       0.07135732       0.05494227       0.07125759 </v>
   <v>       0.31433719       0.07265482       0.05652586 </v>
   <v>       0.56343116       0.05899930       0.07144138 </v>
   <v>       0.81216385       0.06970288       0.06079179 </v>
   <v>       0.05787462       0.29955004       0.07586708 </v>
   <v>       0.31027010       0.31452125       0.06770597 </v>
   <v>       0.55952035       0.30872150       0.07202620 </v>
   <v>       0.82549638       0.30966558       0.05835886 </v>
   <v>       0.05849930       0.56713947       0.06419677 </v>
   <v>       0.31045469       0.55143433       0.05984143 </v>
   <v>       0.56981292       0.55951608       0.05937985 </v>
   <v>       0.80347259       0.56218890       0.07135462 </v>
   <v>       0.06347793       0.81280914       0.05603555 </v>
   <v>       0.32175836       0.80535192       0.06383564 </v>
   <v>       0.56548105       0.81772150       0.05295910 </v>
   <v>       0.80789601       0.81376015       0.07093932 </v>
   <v>       0.06616726       0.06346141       0.32291407 </v>
   <v>       0.31018831       0.06440496       0.30704744 </v>
   <v>       0.56305525       0.07003993       0.30437833 </v>
   <v>       0.82334979       0.06830190       0.30326310 </v>
   <v>       0.06680481       0.31420766       0.30486509 </v>
   <v>       0.31639931       0.30905749       0.30062904 </v>
   <v>       0.56009713       0.31060298       0.31504959 </v>
   <v>       0.80656545       0.31060258       0.31364226 </v>
   <v>       0.05294395       0.55326633       0.32442579 </v>
   <v>       0.31202985       0.55978995       0.30374818 </v>
   <v>       0.56242851       0.56359267       0.30359680 </v>
   <v>       0.82301195       0.55556236       0.31696192 </v>
   <v>       0.05994796       0.81323136       0.31115828 </v>
   <v>       0.31465053       0.80763003       0.31282724 </v>
   <v>       0.56233731       0.81352946       0.31445734 </v>
   <v>       0.81322433       0.81776002       0.30748604 </v>
   <v>       0.05837415       0.05840865       0.56355265 </v>
   <v>       0.30987070       0.07092664       0.56383361 </v>
   <v>       0.56486490       0.06189218       0.55944332 </v>
   <v>       0.82294380       0.04671943       0.56861077 </v>
   <v>       0.05036951       0.32242635       0.57835265 </v>
   <v>       0.31090063       0.31768066       0.56653739 </v>
   <v>       0.56378096       0.31566693       0.56253323 </v>
   <v>       0.80287074       0.31429825       0.56207974 </v>
   <v>       0.05747726       0.56726490       0.56181175 </v>
   <v>       0.30157163       0.57302478       0.55631841 </v>
   <v>       0.56121059       0.56060003       0.56687350 </v>
   <v>       0.81589661       0.55627525       0.56223363 </v>
   <v>       0.05836417       0.81995761       0.56393021 </v>
   <v>       0.31896881       0.80252918       0.56883214 </v>
   <v>       0.56284301       0.82237384       0.55518693 </v>
   <v>       0.79918563       0.82555959       0.55576491 </v>
   <v>       0.05512664       0.06082527       0.81914852 </v>
   <v>       0.30267602       0.07220989       0.81329349 </v>
   <v>       0.56827623       0.06162025       0.80402083 </v>
   <v>       0.80100950       0.06195874       0.81498397 </v>
   <v>       0.05231020       0.31538657       0.81685135 </v>
   <v>       0.31723592       0.31805997       0.80615926 </v>
   <v>       0.56270486       0.31781558       0.80683410 </v>
   <v>       0.82330930       0.30968564       0.81704095 </v>
   <v>       0.05798986       0.57156310       0.81051056 </v>
   <v>       0.32095643       0.54660142       0.81695957 </v>
   <v>       0.55763658       0.56206513       0.81413212 </v>
   <v>       0.81151892       0.55060509       0.82021889 </v>
   <v>       0.05664790       0.81068817       0.81632694 </v>
   <v>       0.31342493       0.82098028       0.81045133 </v>
   <v>       0.56939248       0.81046405       0.80467914 </v>
   <v>       0.80977495       0.81506848       0.80743019 </v>
  </varray>
 </structure>
</modeling>
