potpaw_PBE@./ARUN.APL1ZEROSTATE         
           1
     0.000000   10.937334   10.937334
    10.937334    0.000000   10.937334
    10.937334   10.937334    0.000000
   Si
 128
Direct configuration=     1
   0.99128824  0.00322874  0.00628363
   0.24779512  0.00236593  0.00541454
   0.49179803  0.99412806  0.00985546
   0.74881837  0.99797073  0.00371790
   0.99626594  0.25331052  0.99148790
   0.24526482  0.25097652  0.00437642
   0.51563371  0.24262386  0.00166746
   0.73852303  0.24199915  0.00775426
   0.00359784  0.50702360  0.99376161
   0.24242177  0.50876757  0.00130631
   0.49188647  0.51233207  0.99846438
   0.74946652  0.49949304  0.99681368
   0.00139806  0.73973240  0.99882568
   0.26165444  0.74129918  0.00122501
   0.50152308  0.73968622  0.01131144
   0.74370639  0.76799565  0.98930993
   0.00988145  0.99651989  0.25218619
   0.24975828  0.99311828  0.24552209
   0.49070287  0.01172435  0.25009184
   0.74557547  0.99596378  0.25193464
   0.99463087  0.25622507  0.24670764
   0.24944213  0.25361232  0.24412254
   0.50041778  0.24670006  0.25386351
   0.74564233  0.25462590  0.24716536
   0.00951663  0.49590621  0.23607231
   0.24218785  0.49485307  0.24354448
   0.51085643  0.49546311  0.24533676
   0.75526439  0.49719054  0.25208543
   0.99237338  0.75235507  0.25969020
   0.24343535  0.74949232  0.25064453
   0.50581718  0.76487282  0.24142188
   0.74612404  0.76062196  0.25167644
   0.00191131  0.00628975  0.50541842
   0.24121103  0.99343503  0.50794866
   0.49859315  0.99792908  0.50073578
   0.74828076  0.00901817  0.50156769
   0.99503733  0.24733410  0.49838875
   0.24320424  0.25858121  0.49725217
   0.50295754  0.25589495  0.49985198
   0.74848891  0.24629058  0.49355427
   0.99219343  0.50630269  0.50565469
   0.25566194  0.49796844  0.50238593
   0.50895971  0.49332147  0.49599577
   0.74697219  0.49670391  0.49991998
   0.01287689  0.74803838  0.49784418
   0.25111966  0.74914642  0.49690864
   0.50326271  0.74794083  0.50330898
   0.74406613  0.75431873  0.48962936
   0.99932609  0.99045549  0.75561702
   0.23924935  0.00031121  0.74616603
   0.50458401  0.99570865  0.75569300
   0.74295680  0.01432481  0.74782936
   0.00148940  0.24264099  0.75754798
   0.25362523  0.24898661  0.76053195
   0.52035396  0.23769925  0.74615009
   0.73865553  0.25544323  0.74158263
   0.00183729  0.49577424  0.76192862
   0.25078207  0.49015813  0.74572666
   0.50040443  0.49394082  0.75414271
   0.75204720  0.50275942  0.74470386
   0.99203382  0.75412170  0.74278398
   0.24454015  0.75298083  0.75210200
   0.49975980  0.74716353  0.75200221
   0.75184126  0.74162921  0.75073236
   0.07135732  0.05494227  0.07125759
   0.31433719  0.07265482  0.05652586
   0.56343116  0.05899930  0.07144138
   0.81216385  0.06970288  0.06079179
   0.05787462  0.29955004  0.07586708
   0.31027010  0.31452125  0.06770597
   0.55952035  0.30872150  0.07202620
   0.82549638  0.30966558  0.05835886
   0.05849930  0.56713947  0.06419677
   0.31045469  0.55143433  0.05984143
   0.56981292  0.55951608  0.05937985
   0.80347259  0.56218890  0.07135462
   0.06347793  0.81280914  0.05603555
   0.32175836  0.80535192  0.06383564
   0.56548105  0.81772150  0.05295910
   0.80789601  0.81376015  0.07093932
   0.06616726  0.06346141  0.32291407
   0.31018831  0.06440496  0.30704744
   0.56305525  0.07003993  0.30437833
   0.82334979  0.06830190  0.30326310
   0.06680481  0.31420766  0.30486509
   0.31639931  0.30905749  0.30062904
   0.56009713  0.31060298  0.31504959
   0.80656545  0.31060258  0.31364226
   0.05294395  0.55326633  0.32442579
   0.31202985  0.55978995  0.30374818
   0.56242851  0.56359267  0.30359680
   0.82301195  0.55556236  0.31696192
   0.05994796  0.81323136  0.31115828
   0.31465053  0.80763003  0.31282724
   0.56233731  0.81352946  0.31445734
   0.81322433  0.81776002  0.30748604
   0.05837415  0.05840865  0.56355265
   0.30987070  0.07092664  0.56383361
   0.56486490  0.06189218  0.55944332
   0.82294380  0.04671943  0.56861077
   0.05036951  0.32242635  0.57835265
   0.31090063  0.31768066  0.56653739
   0.56378096  0.31566693  0.56253323
   0.80287074  0.31429825  0.56207974
   0.05747726  0.56726490  0.56181175
   0.30157163  0.57302478  0.55631841
   0.56121059  0.56060003  0.56687350
   0.81589661  0.55627525  0.56223363
   0.05836417  0.81995761  0.56393021
   0.31896881  0.80252918  0.56883214
   0.56284301  0.82237384  0.55518693
   0.79918563  0.82555959  0.55576491
   0.05512664  0.06082527  0.81914852
   0.30267602  0.07220989  0.81329349
   0.56827623  0.06162025  0.80402083
   0.80100950  0.06195874  0.81498397
   0.05231020  0.31538657  0.81685135
   0.31723592  0.31805997  0.80615926
   0.56270486  0.31781558  0.80683410
   0.82330930  0.30968564  0.81704095
   0.05798986  0.57156310  0.81051056
   0.32095643  0.54660142  0.81695957
   0.55763658  0.56206513  0.81413212
   0.81151892  0.55060509  0.82021889
   0.05664790  0.81068817  0.81632694
   0.31342493  0.82098028  0.81045133
   0.56939248  0.81046405  0.80467914
   0.80977495  0.81506848  0.80743019
