 128 128   0   0
  0.2044346E+02  0.1546773E-08  0.1546773E-08  0.1546773E-08  0.5000000E-15
  1.000000000000000E-004
  CAR 
 potpaw_PBE@./ARUN.APL1ZEROSTATE         
      9.34545511     -7.05407609  301      5.96305180      1.00000000
     -7.054  0.0000E+00  0.0000E+00
     -6.999  0.0000E+00  0.0000E+00
     -6.945  0.0000E+00  0.0000E+00
     -6.890  0.0000E+00  0.0000E+00
     -6.835  0.0000E+00  0.0000E+00
     -6.781  0.0000E+00  0.0000E+00
     -6.726  0.0000E+00  0.0000E+00
     -6.671  0.0000E+00  0.0000E+00
     -6.617  0.0000E+00  0.0000E+00
     -6.562  0.0000E+00  0.0000E+00
     -6.507  0.0000E+00  0.0000E+00
     -6.453  0.0000E+00  0.0000E+00
     -6.398  0.0000E+00  0.0000E+00
     -6.343  0.1983E-05  0.1084E-06
     -6.289  0.4562E+01  0.2494E+00
     -6.234  0.1129E-01  0.2500E+00
     -6.179  0.7439E-01  0.2541E+00
     -6.125  0.1721E+02  0.1195E+01
     -6.070  0.2222E+02  0.2409E+01
     -6.015  0.1998E+02  0.3502E+01
     -5.961  0.4541E+01  0.3750E+01
     -5.906  0.4807E-07  0.3750E+01
     -5.851  0.1036E+02  0.4316E+01
     -5.797  0.1482E+02  0.5126E+01
     -5.742  0.1350E+02  0.5865E+01
     -5.687  0.4427E+02  0.8285E+01
     -5.633  0.1654E+02  0.9189E+01
     -5.578  0.3027E+02  0.1084E+02
     -5.523  0.3681E+02  0.1286E+02
     -5.469  0.2326E+02  0.1413E+02
     -5.414  0.6814E+01  0.1450E+02
     -5.359  0.4313E+01  0.1474E+02
     -5.305  0.6819E+01  0.1511E+02
     -5.250  0.1181E+02  0.1575E+02
     -5.195  0.1836E+02  0.1676E+02
     -5.141  0.4663E+02  0.1931E+02
     -5.086  0.3825E+02  0.2140E+02
     -5.031  0.4116E+02  0.2365E+02
     -4.977  0.4437E+02  0.2607E+02
     -4.922  0.2927E+02  0.2767E+02
     -4.867  0.2243E+02  0.2890E+02
     -4.813  0.1573E+02  0.2976E+02
     -4.758  0.3277E+02  0.3155E+02
     -4.703  0.3624E+02  0.3353E+02
     -4.649  0.4221E+02  0.3584E+02
     -4.594  0.3086E+02  0.3753E+02
     -4.539  0.3994E+02  0.3971E+02
     -4.485  0.2500E+02  0.4108E+02
     -4.430  0.2346E+02  0.4236E+02
     -4.375  0.3112E+02  0.4406E+02
     -4.321  0.2746E+02  0.4556E+02
     -4.266  0.3791E+02  0.4763E+02
     -4.211  0.3595E+02  0.4960E+02
     -4.157  0.5484E+02  0.5260E+02
     -4.102  0.6958E+02  0.5640E+02
     -4.047  0.4892E+02  0.5907E+02
     -3.993  0.5338E+02  0.6199E+02
     -3.938  0.5369E+02  0.6493E+02
     -3.884  0.5628E+02  0.6800E+02
     -3.829  0.5464E+02  0.7099E+02
     -3.774  0.4869E+02  0.7365E+02
     -3.720  0.4267E+02  0.7598E+02
     -3.665  0.3694E+02  0.7800E+02
     -3.610  0.3644E+02  0.8000E+02
     -3.556  0.3491E+02  0.8190E+02
     -3.501  0.4659E+02  0.8445E+02
     -3.446  0.4374E+02  0.8684E+02
     -3.392  0.5873E+02  0.9005E+02
     -3.337  0.3645E+02  0.9204E+02
     -3.282  0.5368E+02  0.9498E+02
     -3.228  0.3152E+02  0.9670E+02
     -3.173  0.3614E+02  0.9868E+02
     -3.118  0.4732E+02  0.1013E+03
     -3.064  0.4058E+02  0.1035E+03
     -3.009  0.3850E+02  0.1056E+03
     -2.954  0.4896E+02  0.1083E+03
     -2.900  0.2860E+02  0.1098E+03
     -2.845  0.3334E+02  0.1116E+03
     -2.790  0.2924E+02  0.1132E+03
     -2.736  0.2498E+02  0.1146E+03
     -2.681  0.5612E+02  0.1177E+03
     -2.626  0.4123E+02  0.1199E+03
     -2.572  0.1931E+02  0.1210E+03
     -2.517  0.1667E+02  0.1219E+03
     -2.462  0.1548E+02  0.1227E+03
     -2.408  0.3297E+01  0.1229E+03
     -2.353  0.5885E+01  0.1232E+03
     -2.298  0.7189E+01  0.1236E+03
     -2.244  0.1450E+02  0.1244E+03
     -2.189  0.1632E+02  0.1253E+03
     -2.134  0.3025E+02  0.1270E+03
     -2.080  0.2661E+02  0.1284E+03
     -2.025  0.2274E+02  0.1297E+03
     -1.970  0.1537E+02  0.1305E+03
     -1.916  0.2590E+02  0.1319E+03
     -1.861  0.1029E+02  0.1325E+03
     -1.806  0.8565E+01  0.1330E+03
     -1.752  0.5195E+01  0.1332E+03
     -1.697  0.6861E+01  0.1336E+03
     -1.642  0.1840E+02  0.1346E+03
     -1.588  0.1937E+02  0.1357E+03
     -1.533  0.3660E+02  0.1377E+03
     -1.478  0.4945E+02  0.1404E+03
     -1.424  0.2883E+02  0.1420E+03
     -1.369  0.2672E+02  0.1434E+03
     -1.314  0.5261E+02  0.1463E+03
     -1.260  0.6098E+02  0.1496E+03
     -1.205  0.7473E+02  0.1537E+03
     -1.150  0.5764E+02  0.1569E+03
     -1.096  0.6023E+02  0.1602E+03
     -1.041  0.6846E+02  0.1639E+03
     -0.986  0.6793E+02  0.1676E+03
     -0.932  0.4903E+02  0.1703E+03
     -0.877  0.7179E+02  0.1742E+03
     -0.822  0.5439E+02  0.1772E+03
     -0.768  0.5120E+02  0.1800E+03
     -0.713  0.4556E+02  0.1825E+03
     -0.658  0.4582E+02  0.1850E+03
     -0.604  0.3999E+02  0.1872E+03
     -0.549  0.3068E+02  0.1889E+03
     -0.494  0.2412E+02  0.1902E+03
     -0.440  0.3155E+02  0.1919E+03
     -0.385  0.3611E+02  0.1939E+03
     -0.330  0.4279E+02  0.1962E+03
     -0.276  0.5080E+02  0.1990E+03
     -0.221  0.4982E+02  0.2017E+03
     -0.166  0.4332E+02  0.2041E+03
     -0.112  0.3552E+02  0.2060E+03
     -0.057  0.3565E+02  0.2080E+03
     -0.002  0.4482E+02  0.2104E+03
      0.052  0.3709E+02  0.2125E+03
      0.107  0.1565E+02  0.2133E+03
      0.162  0.1434E+02  0.2141E+03
      0.216  0.1208E+02  0.2148E+03
      0.271  0.1362E+02  0.2155E+03
      0.326  0.2371E+02  0.2168E+03
      0.380  0.2389E+02  0.2181E+03
      0.435  0.2037E+02  0.2192E+03
      0.490  0.3778E+02  0.2213E+03
      0.544  0.2557E+02  0.2227E+03
      0.599  0.2218E+02  0.2239E+03
      0.654  0.8461E+01  0.2244E+03
      0.708  0.1255E+02  0.2250E+03
      0.763  0.2884E+02  0.2266E+03
      0.818  0.1336E+02  0.2273E+03
      0.872  0.8215E+01  0.2278E+03
      0.927  0.1732E+02  0.2287E+03
      0.982  0.2414E+02  0.2301E+03
      1.036  0.2535E+02  0.2314E+03
      1.091  0.3459E+02  0.2333E+03
      1.146  0.2791E+02  0.2349E+03
      1.200  0.2590E+02  0.2363E+03
      1.255  0.1818E+02  0.2373E+03
      1.310  0.2670E+02  0.2387E+03
      1.364  0.2708E+02  0.2402E+03
      1.419  0.3202E+02  0.2420E+03
      1.474  0.8737E+02  0.2467E+03
      1.528  0.8466E+02  0.2514E+03
      1.583  0.7239E+02  0.2553E+03
      1.638  0.9193E+02  0.2603E+03
      1.692  0.6962E+02  0.2642E+03
      1.747  0.5667E+02  0.2673E+03
      1.802  0.4740E+02  0.2698E+03
      1.856  0.4277E+02  0.2722E+03
      1.911  0.2322E+02  0.2735E+03
      1.966  0.1811E+02  0.2744E+03
      2.020  0.2558E+02  0.2758E+03
      2.075  0.7288E+02  0.2798E+03
      2.130  0.9924E+02  0.2852E+03
      2.184  0.1165E+03  0.2916E+03
      2.239  0.1012E+03  0.2972E+03
      2.294  0.1303E+03  0.3043E+03
      2.348  0.1082E+03  0.3102E+03
      2.403  0.8769E+02  0.3150E+03
      2.458  0.8001E+02  0.3194E+03
      2.512  0.5987E+02  0.3226E+03
      2.567  0.2788E+02  0.3242E+03
      2.622  0.4365E+02  0.3265E+03
      2.676  0.6494E+02  0.3301E+03
      2.731  0.8311E+02  0.3346E+03
      2.786  0.8921E+02  0.3395E+03
      2.840  0.1023E+03  0.3451E+03
      2.895  0.9126E+02  0.3501E+03
      2.950  0.9381E+02  0.3552E+03
      3.004  0.1032E+03  0.3609E+03
      3.059  0.7172E+02  0.3648E+03
      3.114  0.7089E+02  0.3687E+03
      3.168  0.8885E+02  0.3735E+03
      3.223  0.8414E+02  0.3781E+03
      3.278  0.8621E+02  0.3828E+03
      3.332  0.1047E+03  0.3886E+03
      3.387  0.1018E+03  0.3941E+03
      3.442  0.7918E+02  0.3985E+03
      3.496  0.8105E+02  0.4029E+03
      3.551  0.9291E+02  0.4080E+03
      3.606  0.7637E+02  0.4121E+03
      3.660  0.7428E+02  0.4162E+03
      3.715  0.8331E+02  0.4207E+03
      3.770  0.7509E+02  0.4249E+03
      3.824  0.7901E+02  0.4292E+03
      3.879  0.8866E+02  0.4340E+03
      3.934  0.7118E+02  0.4379E+03
      3.988  0.7186E+02  0.4418E+03
      4.043  0.4991E+02  0.4446E+03
      4.098  0.7492E+02  0.4487E+03
      4.152  0.8195E+02  0.4531E+03
      4.207  0.6109E+02  0.4565E+03
      4.262  0.7160E+02  0.4604E+03
      4.316  0.6569E+02  0.4640E+03
      4.371  0.8391E+02  0.4686E+03
      4.426  0.6372E+02  0.4721E+03
      4.480  0.6356E+02  0.4755E+03
      4.535  0.6057E+02  0.4788E+03
      4.590  0.6594E+02  0.4824E+03
      4.644  0.6381E+02  0.4859E+03
      4.699  0.4857E+02  0.4886E+03
      4.754  0.3248E+02  0.4904E+03
      4.808  0.3967E+02  0.4925E+03
      4.863  0.2114E+02  0.4937E+03
      4.918  0.2722E+02  0.4952E+03
      4.972  0.2592E+02  0.4966E+03
      5.027  0.3940E+02  0.4987E+03
      5.082  0.4372E+02  0.5011E+03
      5.136  0.2151E+02  0.5023E+03
      5.191  0.2544E+02  0.5037E+03
      5.246  0.7213E+01  0.5041E+03
      5.300  0.7334E+01  0.5045E+03
      5.355  0.2061E+02  0.5056E+03
      5.410  0.1726E+02  0.5066E+03
      5.464  0.8085E+01  0.5070E+03
      5.519  0.2280E+02  0.5083E+03
      5.574  0.1989E+02  0.5093E+03
      5.628  0.1820E+02  0.5103E+03
      5.683  0.2004E+02  0.5114E+03
      5.738  0.1149E+01  0.5115E+03
      5.792  0.1194E+01  0.5116E+03
      5.847  0.3379E+01  0.5118E+03
      5.902  0.4572E+01  0.5120E+03
      5.956  0.1020E-02  0.5120E+03
      6.011  0.0000E+00  0.5120E+03
      6.066  0.3511E+00  0.5120E+03
      6.120  0.9890E+01  0.5126E+03
      6.175  0.8173E+01  0.5130E+03
      6.230  0.1767E+02  0.5140E+03
      6.284  0.2209E+02  0.5152E+03
      6.339  0.1570E+02  0.5160E+03
      6.394  0.2476E+02  0.5174E+03
      6.448  0.2173E+02  0.5186E+03
      6.503  0.3608E+02  0.5206E+03
      6.558  0.1739E+02  0.5215E+03
      6.612  0.9162E+01  0.5220E+03
      6.667  0.2917E+02  0.5236E+03
      6.722  0.2639E+02  0.5250E+03
      6.776  0.3703E+02  0.5271E+03
      6.831  0.3271E+02  0.5289E+03
      6.886  0.2256E+02  0.5301E+03
      6.940  0.2754E+02  0.5316E+03
      6.995  0.5405E+02  0.5345E+03
      7.050  0.4359E+02  0.5369E+03
      7.104  0.3199E+02  0.5387E+03
      7.159  0.2559E+02  0.5401E+03
      7.214  0.5033E+02  0.5428E+03
      7.268  0.5651E+02  0.5459E+03
      7.323  0.6882E+02  0.5497E+03
      7.378  0.7160E+02  0.5536E+03
      7.432  0.8668E+02  0.5583E+03
      7.487  0.8713E+02  0.5631E+03
      7.542  0.8655E+02  0.5678E+03
      7.596  0.9938E+02  0.5733E+03
      7.651  0.6970E+02  0.5771E+03
      7.706  0.8640E+02  0.5818E+03
      7.760  0.7722E+02  0.5860E+03
      7.815  0.1068E+03  0.5919E+03
      7.869  0.8195E+02  0.5963E+03
      7.924  0.9017E+02  0.6013E+03
      7.979  0.8393E+02  0.6059E+03
      8.033  0.8753E+02  0.6106E+03
      8.088  0.9307E+02  0.6157E+03
      8.143  0.7200E+02  0.6197E+03
      8.197  0.8933E+02  0.6245E+03
      8.252  0.8141E+02  0.6290E+03
      8.307  0.9426E+02  0.6341E+03
      8.361  0.7322E+02  0.6381E+03
      8.416  0.6578E+02  0.6417E+03
      8.471  0.2593E+02  0.6432E+03
      8.525  0.2086E+01  0.6433E+03
      8.580  0.5426E+01  0.6436E+03
      8.635  0.7824E+01  0.6440E+03
      8.689  0.0000E+00  0.6440E+03
      8.744  0.0000E+00  0.6440E+03
      8.799  0.0000E+00  0.6440E+03
      8.853  0.0000E+00  0.6440E+03
      8.908  0.0000E+00  0.6440E+03
      8.963  0.0000E+00  0.6440E+03
      9.017  0.0000E+00  0.6440E+03
      9.072  0.0000E+00  0.6440E+03
      9.127  0.0000E+00  0.6440E+03
      9.181  0.0000E+00  0.6440E+03
      9.236  0.0000E+00  0.6440E+03
      9.291  0.0000E+00  0.6440E+03
      9.345  0.0000E+00  0.6440E+03
