 vasp.5.4.4.18Apr17-6-g9f103f2a35 (build Nov 08 2017 09:05:29) complex          
  
 executed on          Intel_17.33 date 2020.07.18  18:24:59
 running on   32 total cores
 distrk:  each k-point on   32 cores,    1 groups
 distr:  one band on NCORES_PER_BAND=  16 cores,    2 groups


--------------------------------------------------------------------------------------------------------


 INCAR:
 POTCAR:   PAW_PBE Si 05Jan2001                   

 ----------------------------------------------------------------------------- 
|                                                                             |
|           W    W    AA    RRRRR   N    N  II  N    N   GGGG   !!!           |
|           W    W   A  A   R    R  NN   N  II  NN   N  G    G  !!!           |
|           W    W  A    A  R    R  N N  N  II  N N  N  G       !!!           |
|           W WW W  AAAAAA  RRRRR   N  N N  II  N  N N  G  GGG   !            |
|           WW  WW  A    A  R   R   N   NN  II  N   NN  G    G                |
|           W    W  A    A  R    R  N    N  II  N    N   GGGG   !!!           |
|                                                                             |
|      For optimal performance we recommend to set                            |
|        NCORE= 4 - approx SQRT( number of cores)                             |
|      NCORE specifies how many cores store one orbital (NPAR=cpu/NCORE).     |
|      This setting can  greatly improve the performance of VASP for DFT.     |
|      The default,   NCORE=1            might be grossly inefficient         |
|      on modern multi-core architectures or massively parallel machines.     |
|      Do your own testing !!!!                                               |
|      Unfortunately you need to use the default for GW and RPA calculations. |
|      (for HF NCORE is supported but not extensively tested yet)             |
|                                                                             |
 ----------------------------------------------------------------------------- 

 POTCAR:   PAW_PBE Si 05Jan2001                   
   VRHFIN =Si: s2p2                                                             
   LEXCH  = PE                                                                  
   EATOM  =   103.0669 eV,    7.5752 Ry                                         
                                                                                
   TITEL  = PAW_PBE Si 05Jan2001                                                
   LULTRA =        F    use ultrasoft PP ?                                      
   IUNSCR =        1    unscreen: 0-lin 1-nonlin 2-no                           
   RPACOR =    1.500    partial core radius                                     
   POMASS =   28.085; ZVAL   =    4.000    mass and valenz                      
   RCORE  =    1.900    outmost cutoff radius                                   
   RWIGS  =    2.480; RWIGS  =    1.312    wigner-seitz radius (au A)           
   ENMAX  =  245.345; ENMIN  =  184.009 eV                                      
   ICORE  =        2    local potential                                         
   LCOR   =        T    correct aug charges                                     
   LPAW   =        T    paw PP                                                  
   EAUG   =  322.069                                                            
   DEXC   =    -.007                                                            
   RMAX   =    2.944    core radius for proj-oper                               
   RAUG   =    1.300    factor for augmentation sphere                          
   RDEP   =    1.993    radius for radial grids                                 
   QCUT   =   -4.246; QGAM   =    8.493    optimization parameters              
                                                                                
   Description                                                                  
     l     E      TYP  RCUT    TYP  RCUT                                        
     0   .000     23  1.900                                                     
     0   .000     23  1.900                                                     
     1   .000     23  1.900                                                     
     1   .000     23  1.900                                                     
     2   .000      7  1.900                                                     
  local pseudopotential read in
  partial core-charges read in
  atomic valenz-charges read in
  non local Contribution for L=           0  read in
    real space projection operators read in
  non local Contribution for L=           0  read in
    real space projection operators read in
  non local Contribution for L=           1  read in
    real space projection operators read in
  non local Contribution for L=           1  read in
    real space projection operators read in
    PAW grid and wavefunctions read in
 
   number of l-projection  operators is LMAX  =           4
   number of lm-projection operators is LMMAX =           8
 

 ----------------------------------------------------------------------------- 
|                                                                             |
|  ADVICE TO THIS USER RUNNING 'VASP/VAMP'   (HEAR YOUR MASTER'S VOICE ...):  |
|                                                                             |
|      You have a (more or less) 'large supercell' and for larger cells       |
|      it might be more efficient to use real space projection operators      |
|      So try LREAL= Auto  in the INCAR   file.                               |
|      Mind: If you want to do a very accurate calculations keep the          |
|      reciprocal projection scheme          (i.e. LREAL=.FALSE.)             |
|                                                                             |
 ----------------------------------------------------------------------------- 

 PAW_PBE Si 05Jan2001                   :
 energy of atom  1       EATOM= -103.0669
 kinetic energy error for atom=    0.0006 (will be added to EATOM!!)
 
 
 POSCAR: kk                                      
  positions in direct lattice
  No initial velocities read in
 exchange correlation table for  LEXCH =        8
   RHO(1)=    0.500       N(1)  =     2000
   RHO(2)=  100.500       N(2)  =     4000
 


--------------------------------------------------------------------------------------------------------


 ion  position               nearest neighbor table
   1  0.994  0.999  0.002-  77 2.23  68 2.27  65 2.42 113 2.54
   2  0.245  0.997  0.998- 114 2.27  65 2.40  78 2.48  66 2.58
   3  0.502  0.009  0.984- 115 2.16  67 2.36  66 2.37  79 2.43
   4  0.751  0.993  0.001-  80 2.14  68 2.31 116 2.33  67 2.44
   5  0.995  0.264  0.988- 117 2.23  69 2.25  72 2.28  65 2.44
   6  0.245  0.254  0.008-  70 2.18  66 2.28  69 2.30 118 2.51
   7  0.503  0.258  0.989- 119 2.24  71 2.37  70 2.47  67 2.48
   8  0.749  0.252  0.004-  71 2.24  72 2.41  68 2.44 120 2.46
   9  0.005  0.493  0.001-  76 2.31  69 2.32 121 2.37  73 2.48
  10  0.259  0.487  1.000-  70 2.23  73 2.38 122 2.43  74 2.46
  11  0.504  0.503  0.000-  75 2.34  74 2.34 123 2.36  71 2.51
  12  0.745  0.511  0.999-  76 2.32  75 2.38 124 2.42  72 2.43
  13  0.993  0.757  0.998-  80 2.16  77 2.48  73 2.50 125 2.62
  14  0.256  0.749  0.997-  78 2.30  74 2.37 126 2.38  77 2.52
  15  0.504  0.749  0.008-  75 2.17  78 2.27  79 2.37 127 2.53
  16  0.730  0.754  0.012-  79 2.14  76 2.39 128 2.54  80 2.69
  17  0.995  0.001  0.255-  81 2.31  84 2.34  93 2.44  65 2.47
  18  0.243  0.000  0.243-  81 2.22  66 2.40  94 2.40  82 2.41
  19  0.499  0.000  0.254-  82 2.25  83 2.33  67 2.43  95 2.47
  20  0.752  0.994  0.256-  96 2.18  84 2.38  83 2.47  68 2.54
  21  0.005  0.255  0.235-  69 2.34  88 2.52  81 2.52  85 2.56
  22  0.244  0.252  0.259-  85 2.20  86 2.27  82 2.46  70 2.50
  23  0.501  0.245  0.255-  83 2.13  87 2.35  86 2.35  71 2.47
  24  0.757  0.238  0.257-  84 2.20  88 2.32  87 2.42  72 2.49
  25  0.994  0.499  0.253-  92 2.28  89 2.29  85 2.30  73 2.39
  26  0.244  0.502  0.244-  74 2.33  89 2.34  90 2.48  86 2.49
  27  0.510  0.496  0.252-  91 2.22  87 2.38  90 2.41  75 2.46
  28  0.740  0.517  0.246-  92 2.22  91 2.35  88 2.50  76 2.53
  29  0.989  0.769  0.246-  93 2.24  96 2.25  77 2.28  89 2.64
  30  0.246  0.747  0.259-  94 2.27  93 2.39  90 2.48  78 2.54
  31  0.510  0.753  0.243-  79 2.18  95 2.33  91 2.34  94 2.60
  32  0.750  0.749  0.252-  95 2.29  92 2.37  80 2.43  96 2.45
  33  0.994  0.000  0.507-  97 2.31 109 2.40 100 2.43  81 2.48
  34  0.255  0.003  0.492- 110 2.38  98 2.39  97 2.46  82 2.48
  35  0.500  0.999  0.503-  98 2.30  99 2.41 111 2.41  83 2.54
  36  0.747  0.996  0.501-  99 2.27 112 2.35  84 2.35 100 2.43
  37  0.996  0.246  0.497- 101 2.33 104 2.34  85 2.37  97 2.38
  38  0.268  0.244  0.497- 102 2.22  86 2.31  98 2.34 101 2.71
  39  0.495  0.262  0.498-  87 2.33 102 2.38 103 2.39  99 2.56
  40  0.747  0.253  0.502- 100 2.23 103 2.28 104 2.31  88 2.44
  41  0.995  0.511  0.490-  89 2.31 105 2.31 108 2.45 101 2.48
  42  0.247  0.500  0.501- 106 2.20 102 2.22  90 2.35 105 2.56
  43  0.499  0.504  0.508- 107 2.24 106 2.29 103 2.42  91 2.50
  44  0.752  0.489  0.505- 107 2.16 104 2.27 108 2.38  92 2.56
  45  0.002  0.751  0.499- 109 2.24  93 2.32 105 2.41 112 2.45
  46  0.256  0.752  0.497-  94 2.30 109 2.35 110 2.42 106 2.53
  47  0.508  0.753  0.490-  95 2.19 111 2.20 110 2.30 107 2.60
  48  0.754  0.757  0.492- 112 2.17  96 2.27 108 2.52 111 2.72
  49  0.016  0.997  0.741- 125 2.22  97 2.22 113 2.25 116 2.55
  50  0.250  0.013  0.740-  98 2.26 113 2.37 126 2.49 114 2.56
  51  0.506  0.999  0.743-  99 2.22 114 2.28 127 2.31 115 2.48
  52  0.765  0.994  0.760- 128 2.21 116 2.25 115 2.52 100 2.60
  53  0.009  0.259  0.743- 117 2.27 113 2.40 101 2.41 120 2.51
  54  0.240  0.265  0.752- 117 2.21 118 2.44 102 2.52 114 2.64
  55  0.502  0.249  0.764- 119 2.20 118 2.24 115 2.34 103 2.54
  56  0.744  0.252  0.754- 119 2.23 120 2.25 116 2.36 104 2.38
  57  0.005  0.500  0.740- 105 2.15 117 2.37 124 2.41 121 2.49
  58  0.253  0.489  0.757- 118 2.22 122 2.26 121 2.44 106 2.64
  59  0.488  0.508  0.750- 122 2.35 107 2.45 119 2.50 123 2.52
  60  0.748  0.497  0.750- 108 2.22 123 2.30 120 2.38 124 2.43
  61  0.995  0.750  0.747- 128 2.29 121 2.31 125 2.36 109 2.54
  62  0.245  0.753  0.740- 125 2.28 110 2.35 122 2.36 126 2.49
  63  0.506  0.758  0.748- 111 2.25 127 2.30 123 2.43 126 2.48
  64  0.749  0.754  0.746- 127 2.29 124 2.40 112 2.42 128 2.48
  65  0.055  0.071  0.060-   2 2.40   1 2.42   5 2.44  17 2.47
  66  0.315  0.074  0.054-   6 2.28   3 2.37  18 2.40   2 2.58
  67  0.558  0.062  0.061-   3 2.36  19 2.43   4 2.44   7 2.48
  68  0.814  0.060  0.054-   1 2.27   4 2.31   8 2.44  20 2.54
  69  0.065  0.311  0.050-   5 2.25   6 2.30   9 2.32  21 2.34
  70  0.308  0.310  0.062-   6 2.18  10 2.23   7 2.47  22 2.50
  71  0.572  0.305  0.059-   8 2.24   7 2.37  23 2.47  11 2.51
  72  0.815  0.319  0.061-   5 2.28   8 2.41  12 2.43  24 2.49
  73  0.071  0.560  0.065-  10 2.38  25 2.39   9 2.48  13 2.50
  74  0.318  0.561  0.061-  26 2.33  11 2.34  14 2.37  10 2.46
  75  0.557  0.578  0.058-  15 2.17  11 2.34  12 2.38  27 2.46
  76  0.823  0.569  0.047-   9 2.31  12 2.32  16 2.39  28 2.53
  77  0.056  0.823  0.066-   1 2.23  29 2.28  13 2.48  14 2.52
  78  0.325  0.801  0.058-  15 2.27  14 2.30   2 2.48  30 2.54
  79  0.561  0.818  0.070-  16 2.14  31 2.18  15 2.37   3 2.43
  80  0.823  0.825  0.061-   4 2.14  13 2.16  32 2.43  16 2.69
  81  0.068  0.056  0.311-  18 2.22  17 2.31  33 2.48  21 2.52
  82  0.322  0.059  0.296-  19 2.25  18 2.41  22 2.46  34 2.48
  83  0.557  0.077  0.302-  23 2.13  19 2.33  20 2.47  35 2.54
  84  0.810  0.064  0.316-  24 2.20  17 2.34  36 2.35  20 2.38
  85  0.070  0.317  0.310-  22 2.20  25 2.30  37 2.37  21 2.56
  86  0.315  0.305  0.315-  22 2.27  38 2.31  23 2.35  26 2.49
  87  0.566  0.308  0.314-  39 2.33  23 2.35  27 2.38  24 2.42
  88  0.806  0.320  0.309-  24 2.32  40 2.44  28 2.50  21 2.52
  89  0.060  0.560  0.308-  25 2.29  41 2.31  26 2.34  29 2.64
  90  0.320  0.551  0.315-  42 2.35  27 2.41  30 2.48  26 2.48
  91  0.554  0.569  0.311-  27 2.22  31 2.34  28 2.35  43 2.50
  92  0.814  0.562  0.303-  28 2.22  25 2.28  32 2.37  44 2.56
  93  0.057  0.809  0.315-  29 2.24  45 2.32  30 2.39  17 2.44
  94  0.305  0.811  0.316-  30 2.27  46 2.30  18 2.40  31 2.60
  95  0.569  0.805  0.316-  47 2.19  32 2.29  31 2.33  19 2.47
  96  0.811  0.822  0.312-  20 2.18  29 2.25  48 2.27  32 2.45
  97  0.060  0.058  0.566-  49 2.22  33 2.31  37 2.38  34 2.46
  98  0.318  0.059  0.562-  50 2.26  35 2.30  38 2.34  34 2.39
  99  0.567  0.059  0.567-  51 2.22  36 2.27  35 2.41  39 2.56
 100  0.802  0.077  0.557-  40 2.23  33 2.43  36 2.43  52 2.60
 101  0.054  0.315  0.555-  37 2.33  53 2.41  41 2.48  38 2.71
 102  0.306  0.324  0.553-  38 2.22  42 2.22  39 2.38  54 2.52
 103  0.567  0.313  0.563-  40 2.28  39 2.39  43 2.42  55 2.54
 104  0.811  0.309  0.565-  44 2.27  40 2.31  37 2.34  56 2.38
 105  0.045  0.561  0.571-  57 2.15  41 2.31  45 2.41  42 2.56
 106  0.321  0.553  0.548-  42 2.20  43 2.29  46 2.53  58 2.64
 107  0.581  0.547  0.559-  44 2.16  43 2.24  59 2.45  47 2.60
 108  0.802  0.558  0.574-  60 2.22  44 2.38  41 2.45  48 2.52
 109  0.070  0.812  0.546-  45 2.24  46 2.35  33 2.40  61 2.54
 110  0.326  0.815  0.556-  47 2.30  62 2.35  34 2.38  46 2.42
 111  0.539  0.809  0.573-  47 2.20  63 2.25  35 2.41  48 2.72
 112  0.808  0.810  0.556-  48 2.17  36 2.35  64 2.42  45 2.45
 113  0.062  0.069  0.801-  49 2.25  50 2.37  53 2.40   1 2.54
 114  0.327  0.058  0.820-   2 2.27  51 2.28  50 2.56  54 2.64
 115  0.566  0.065  0.813-   3 2.16  55 2.34  51 2.48  52 2.52
 116  0.814  0.066  0.817-  52 2.25   4 2.33  56 2.36  49 2.55
 117  0.065  0.313  0.812-  54 2.21   5 2.23  53 2.27  57 2.37
 118  0.325  0.314  0.810-  58 2.22  55 2.24  54 2.44   6 2.51
 119  0.568  0.310  0.812-  55 2.20  56 2.23   7 2.24  59 2.50
 120  0.811  0.308  0.809-  56 2.25  60 2.38   8 2.46  53 2.51
 121  0.060  0.568  0.814-  61 2.31   9 2.37  58 2.44  57 2.49
 122  0.302  0.566  0.809-  58 2.26  59 2.35  62 2.36  10 2.43
 123  0.566  0.565  0.814-  60 2.30  11 2.36  63 2.43  59 2.52
 124  0.814  0.564  0.808-  64 2.40  57 2.41  12 2.42  60 2.43
 125  0.065  0.823  0.791-  49 2.22  62 2.28  61 2.36  13 2.62
 126  0.310  0.816  0.809-  14 2.38  63 2.48  62 2.49  50 2.49
 127  0.568  0.817  0.808-  64 2.29  63 2.30  51 2.31  15 2.53
 128  0.814  0.820  0.812-  52 2.21  61 2.29  64 2.48  16 2.54
 
  LATTYP: Found a face centered cubic cell.
 ALAT       =    21.8746673814
  
  Lattice vectors:
  
 A1 = (   0.0000000000,  10.9373336907,  10.9373336907)
 A2 = (  10.9373336907,   0.0000000000,  10.9373336907)
 A3 = (  10.9373336907,  10.9373336907,   0.0000000000)


Analysis of symmetry for initial positions (statically):
=====================================================================
 Subroutine PRICEL returns:
 Original cell was already a primitive cell.
 

 Routine SETGRP: Setting up the symmetry group for a 
 face centered cubic supercell.


 Subroutine GETGRP returns: Found  1 space group operations
 (whereof  1 operations were pure point group operations)
 out of a pool of 48 trial point group operations.


The static configuration has the point symmetry C_1 .


Analysis of symmetry for dynamics (positions and initial velocities):
=====================================================================
 Subroutine PRICEL returns:
 Original cell was already a primitive cell.
 

 Routine SETGRP: Setting up the symmetry group for a 
 face centered cubic supercell.


 Subroutine GETGRP returns: Found  1 space group operations
 (whereof  1 operations were pure point group operations)
 out of a pool of 48 trial point group operations.


The dynamic configuration has the point symmetry C_1 .


 Subroutine INISYM returns: Found  1 space group operations
 (whereof  1 operations are pure point group operations),
 and found     1 'primitive' translations

 
 
 KPOINTS: KPOINTS File, automatically generated by

Automatic generation of k-mesh.
Space group operators:
 irot       det(A)        alpha          n_x          n_y          n_z        tau_x        tau_y        tau_z
    1     1.000000     0.000001     1.000000     0.000000     0.000000     0.000000     0.000000     0.000000
 
 Subroutine IBZKPT returns following result:
 ===========================================
 
 Found      8 irreducible k-points:
 
 Following reciprocal coordinates:
            Coordinates               Weight
  0.000000  0.000000  0.000000      1.000000
  0.500000  0.000000  0.000000      1.000000
  0.000000  0.500000  0.000000      1.000000
  0.500000  0.500000  0.000000      1.000000
  0.000000  0.000000  0.500000      1.000000
  0.500000  0.000000  0.500000      1.000000
  0.000000  0.500000  0.500000      1.000000
  0.500000  0.500000  0.500000      1.000000
 
 Following cartesian coordinates:
            Coordinates               Weight
  0.000000  0.000000  0.000000      1.000000
 -0.022857  0.022857  0.022857      1.000000
  0.022857 -0.022857  0.022857      1.000000
  0.000000  0.000000  0.045715      1.000000
  0.022857  0.022857 -0.022857      1.000000
  0.000000  0.045715  0.000000      1.000000
  0.045715  0.000000  0.000000      1.000000
  0.022857  0.022857  0.022857      1.000000
 


--------------------------------------------------------------------------------------------------------




 Dimension of arrays:
   k-points           NKPTS =      8   k-points in BZ     NKDIM =      8   number of bands    NBANDS=    322
   number of dos      NEDOS =    301   number of ions     NIONS =    128
   non local maximal  LDIM  =      4   non local SUM 2l+1 LMDIM =      8
   total plane-waves  NPLWV = ******
   max r-space proj   IRMAX =      1   max aug-charges    IRDMAX= 176811
   dimension x,y,z NGX =   120 NGY =  120 NGZ =  120
   dimension x,y,z NGXF=   240 NGYF=  240 NGZF=  240
   support grid    NGXF=   480 NGYF=  480 NGZF=  480
   ions per type =             128
   NGX,Y,Z   is equivalent  to a cutoff of  12.90, 12.90, 12.90 a.u.
   NGXF,Y,Z  is equivalent  to a cutoff of  25.80, 25.80, 25.80 a.u.

 SYSTEM =  potpaw_PBE@./ARUN.APL1ZEROSTATE         
 POSCAR =  kk                                      

 Startparameter for this run:
   NWRITE =      2    write-flag & timer
   PREC   = accura    normal or accurate (medium, high low for compatibility)
   ISTART =      0    job   : 0-new  1-cont  2-samecut
   ICHARG =      2    charge: 1-file 2-atom 10-const
   ISPIN  =      1    spin polarized calculation?
   LNONCOLLINEAR =      F non collinear calculations
   LSORBIT =      F    spin-orbit coupling
   INIWAV =      1    electr: 0-lowe 1-rand  2-diag
   LASPH  =      F    aspherical Exc in radial PAW
   METAGGA=      F    non-selfconsistent MetaGGA calc.

 Electronic Relaxation 1
   ENCUT  =  500.0 eV  36.75 Ry    6.06 a.u.  28.20 28.20 28.20*2*pi/ulx,y,z
   ENINI  =  500.0     initial cutoff
   ENAUG  =  322.1 eV  augmentation charge cutoff
   NELM   =    120;   NELMIN=  4; NELMDL= -5     # of ELM steps 
   EDIFF  = 0.1E-07   stopping-criterion for ELM
   LREAL  =      F    real-space projection
   NLSPLINE    = F    spline interpolate recip. space projectors
   LCOMPAT=      F    compatible to vasp.4.4
   GGA_COMPAT  = T    GGA compatible to vasp.4.4-vasp.4.6
   LMAXPAW     = -100 max onsite density
   LMAXMIX     =    2 max onsite mixed and CHGCAR
   VOSKOWN=      0    Vosko Wilk Nusair interpolation
   ROPT   =    0.00000
 Ionic relaxation
   EDIFFG = 0.1E-06   stopping-criterion for IOM
   NSW    =      0    number of steps for IOM
   NBLOCK =      1;   KBLOCK =      1    inner block; outer block 
   IBRION =     -1    ionic relax: 0-MD 1-quasi-New 2-CG
   NFREE  =      0    steps in history (QN), initial steepest desc. (CG)
   ISIF   =      2    stress and relaxation
   IWAVPR =     10    prediction:  0-non 1-charg 2-wave 3-comb
   ISYM   =      2    0-nonsym 1-usesym 2-fastsym
   LCORR  =      T    Harris-Foulkes like correction to forces

   POTIM  = 0.5000    time-step for ionic-motion
   TEIN   =    0.0    initial temperature
   TEBEG  =    0.0;   TEEND  =   0.0 temperature during run
   SMASS  =  -3.00    Nose mass-parameter (am)
   estimated Nose-frequenzy (Omega)   =  0.10E-29 period in steps =****** mass=  -0.547E-26a.u.
   SCALEE = 1.0000    scale energy and forces
   NPACO  =    256;   APACO  = 16.0  distance and # of slots for P.C.
   PSTRESS=    0.0 pullay stress

  Mass of Ions in am
   POMASS =  28.09
  Ionic Valenz
   ZVAL   =   4.00
  Atomic Wigner-Seitz radii
   RWIGS  =  -1.00
  virtual crystal weights 
   VCA    =   1.00
   NELECT =     512.0000    total number of electrons
   NUPDOWN=      -1.0000    fix difference up-down

 DOS related values:
   EMIN   =  10.00;   EMAX   =-10.00  energy-range for DOS
   EFERMI =   0.00
   ISMEAR =     0;   SIGMA  =   0.01  broadening in eV -4-tet -1-fermi 0-gaus

 Electronic relaxation 2 (details)
   IALGO  =     38    algorithm
   LDIAG  =      T    sub-space diagonalisation (order eigenvalues)
   LSUBROT=      F    optimize rotation matrix (better conditioning)
   TURBO    =      0    0=normal 1=particle mesh
   IRESTART =      0    0=no restart 2=restart with 2 vectors
   NREBOOT  =      0    no. of reboots
   NMIN     =      0    reboot dimension
   EREF     =   0.00    reference energy to select bands
   IMIX   =      4    mixing-type and parameters
     AMIX     =   0.40;   BMIX     =  1.00
     AMIX_MAG =   1.60;   BMIX_MAG =  1.00
     AMIN     =   0.10
     WC   =   100.;   INIMIX=   1;  MIXPRE=   1;  MAXMIX= -45

 Intra band minimization:
   WEIMIN = 0.0000     energy-eigenvalue tresh-hold
   EBREAK =  0.78E-11  absolut break condition
   DEPER  =   0.30     relativ break condition  

   TIME   =   0.40     timestep for ELM

  volume/ion in A,a.u.               =      20.44       137.96
  Fermi-wavevector in a.u.,A,eV,Ry     =   0.950408  1.796010 12.289804  0.903275
  Thomas-Fermi vector in A             =   2.078782
 
 Write flags
   LWAVE        =      F    write WAVECAR
   LDOWNSAMPLE  =      F    k-point downsampling of WAVECAR
   LCHARG       =      F    write CHGCAR
   LVTOT        =      F    write LOCPOT, total local potential
   LVHAR        =      F    write LOCPOT, Hartree potential only
   LELF         =      F    write electronic localiz. function (ELF)
   LORBIT       =      0    0 simple, 1 ext, 2 COOP (PROOUT), +10 PAW based schemes


 Dipole corrections
   LMONO  =      F    monopole corrections only (constant potential shift)
   LDIPOL =      F    correct potential (dipole corrections)
   IDIPOL =      0    1-x, 2-y, 3-z, 4-all directions 
   EPSILON=  1.0000000 bulk dielectric constant

 Exchange correlation treatment:
   GGA     =    --    GGA type
   LEXCH   =     8    internal setting for exchange type
   VOSKOWN=      0    Vosko Wilk Nusair interpolation
   LHFCALC =     F    Hartree Fock is set to
   LHFONE  =     F    Hartree Fock one center treatment
   AEXX    =    0.0000 exact exchange contribution

 Linear response parameters
   LEPSILON=     F    determine dielectric tensor
   LRPA    =     F    only Hartree local field effects (RPA)
   LNABLA  =     F    use nabla operator in PAW spheres
   LVEL    =     F    velocity operator in full k-point grid
   LINTERFAST=   F  fast interpolation
   KINTER  =     0    interpolate to denser k-point grid
   CSHIFT  =0.1000    complex shift for real part using Kramers Kronig
   OMEGAMAX=  -1.0    maximum frequency
   DEG_THRESHOLD= 0.2000000E-02 threshold for treating states as degnerate
   RTIME   =   -0.100 relaxation time in fs
  (WPLASMAI=    0.000 imaginary part of plasma frequency in eV, 0.658/RTIME)
   DFIELD  = 0.0000000 0.0000000 0.0000000 field for delta impulse in time
 
 Orbital magnetization related:
   ORBITALMAG=     F  switch on orbital magnetization
   LCHIMAG   =     F  perturbation theory with respect to B field
   DQ        =  0.001000  dq finite difference perturbation B field
   LLRAUG    =     F  two centre corrections for induced B field



--------------------------------------------------------------------------------------------------------


 Static calculation
 charge density and potential will be updated during run
 non-spin polarized calculation
 Variant of blocked Davidson
 Davidson routine will perform the subspace rotation
 perform sub-space diagonalisation
    after iterative eigenvector-optimisation
 modified Broyden-mixing scheme, WC =      100.0
 initial mixing is a Kerker type mixing with AMIX =  0.4000 and BMIX =      1.0000
 Hartree-type preconditioning will be used
 using additional bands           66
 reciprocal scheme for non local part
 use partial core corrections
 calculate Harris-corrections to forces 
   (improved forces if not selfconsistent)
 use gradient corrections 
 use of overlap-Matrix (Vanderbilt PP)
 Gauss-broadening in eV      SIGMA  =   0.01


--------------------------------------------------------------------------------------------------------


  energy-cutoff  :      500.00
  volume of cell :     2616.76
      direct lattice vectors                 reciprocal lattice vectors
     0.000000000 10.937333691 10.937333691    -0.045714981  0.045714981  0.045714981
    10.937333691  0.000000000 10.937333691     0.045714981 -0.045714981  0.045714981
    10.937333691 10.937333691  0.000000000     0.045714981  0.045714981 -0.045714981

  length of vectors
    15.467725642 15.467725642 15.467725642     0.079180669  0.079180669  0.079180669


 
 k-points in units of 2pi/SCALE and weight: KPOINTS File, automatically generated by
   0.00000000  0.00000000  0.00000000       0.125
  -0.02285749  0.02285749  0.02285749       0.125
   0.02285749 -0.02285749  0.02285749       0.125
   0.00000000  0.00000000  0.04571498       0.125
   0.02285749  0.02285749 -0.02285749       0.125
   0.00000000  0.04571498  0.00000000       0.125
   0.04571498  0.00000000  0.00000000       0.125
   0.02285749  0.02285749  0.02285749       0.125
 
 k-points in reciprocal lattice and weights: KPOINTS File, automatically generated by
   0.00000000  0.00000000  0.00000000       0.125
   0.50000000  0.00000000  0.00000000       0.125
   0.00000000  0.50000000  0.00000000       0.125
   0.50000000  0.50000000  0.00000000       0.125
   0.00000000  0.00000000  0.50000000       0.125
   0.50000000  0.00000000  0.50000000       0.125
   0.00000000  0.50000000  0.50000000       0.125
   0.50000000  0.50000000  0.50000000       0.125
 
 position of ions in fractional coordinates (direct lattice) 
   0.99368214  0.99859947  0.00225366
   0.24488490  0.99656064  0.99769788
   0.50190735  0.00870241  0.98417126
   0.75096756  0.99315280  0.00064088
   0.99538089  0.26388738  0.98835709
   0.24492950  0.25441037  0.00817270
   0.50261969  0.25763902  0.98904513
   0.74866312  0.25234267  0.00380141
   0.00514314  0.49347937  0.00065554
   0.25894679  0.48697234  0.99992363
   0.50382582  0.50349823  0.00028577
   0.74508436  0.51140276  0.99908826
   0.99343073  0.75731182  0.99756982
   0.25574236  0.74907077  0.99742149
   0.50373773  0.74915568  0.00831838
   0.73029602  0.75442963  0.01247881
   0.99511511  0.00133673  0.25533623
   0.24326264  0.00040498  0.24270498
   0.49874001  0.00007097  0.25370219
   0.75151950  0.99407167  0.25576257
   0.00496471  0.25494404  0.23502818
   0.24393039  0.25163655  0.25941228
   0.50079596  0.24534376  0.25507126
   0.75677267  0.23791532  0.25738046
   0.99394645  0.49853273  0.25324632
   0.24444644  0.50171158  0.24428184
   0.50997550  0.49630712  0.25174468
   0.73984765  0.51708032  0.24622894
   0.98874272  0.76917754  0.24630254
   0.24574526  0.74689035  0.25887912
   0.50994348  0.75309745  0.24280224
   0.74971480  0.74929190  0.25192079
   0.99358821  0.00044103  0.50735510
   0.25472895  0.00281892  0.49215310
   0.50044920  0.99860754  0.50291387
   0.74675128  0.99575488  0.50135810
   0.99604654  0.24591911  0.49713043
   0.26764316  0.24433571  0.49742977
   0.49483601  0.26171415  0.49751649
   0.74736985  0.25288975  0.50213072
   0.99469397  0.51081641  0.48984326
   0.24742798  0.50027759  0.50139005
   0.49949826  0.50374788  0.50826323
   0.75198214  0.48880260  0.50535370
   0.00205010  0.75056127  0.49900895
   0.25593176  0.75216042  0.49673507
   0.50753195  0.75273529  0.48973588
   0.75372650  0.75652985  0.49216349
   0.01635625  0.99730292  0.74143818
   0.24959231  0.01339077  0.73997097
   0.50582575  0.99913533  0.74253875
   0.76501578  0.99431903  0.75999293
   0.00866811  0.25856305  0.74347746
   0.23971980  0.26549046  0.75227034
   0.50205029  0.24927945  0.76431131
   0.74436862  0.25240532  0.75362870
   0.00540226  0.49983363  0.73992179
   0.25271664  0.48910960  0.75698758
   0.48819368  0.50757350  0.75005907
   0.74767071  0.49663387  0.75019293
   0.99499919  0.75045704  0.74682525
   0.24519841  0.75261048  0.74046191
   0.50563161  0.75757075  0.74750524
   0.74920561  0.75422241  0.74644998
   0.05507375  0.07080708  0.05979061
   0.31486460  0.07431452  0.05397851
   0.55818492  0.06173477  0.06106415
   0.81377181  0.05966693  0.05438974
   0.06455071  0.31067347  0.04977358
   0.30750517  0.31049948  0.06209305
   0.57174800  0.30484734  0.05932293
   0.81530915  0.31915834  0.06108564
   0.07098581  0.55968711  0.06505213
   0.31830489  0.56135578  0.06051529
   0.55705004  0.57776804  0.05772526
   0.82272619  0.56853385  0.04711430
   0.05638015  0.82254774  0.06562415
   0.32462043  0.80095178  0.05814525
   0.56071947  0.81760470  0.07029626
   0.82324947  0.82498033  0.06052013
   0.06753140  0.05563380  0.31126642
   0.32182941  0.05873940  0.29631187
   0.55722666  0.07701337  0.30209599
   0.80975572  0.06420843  0.31562762
   0.06959812  0.31715721  0.31044239
   0.31479493  0.30480798  0.31503892
   0.56550301  0.30796486  0.31366002
   0.80575917  0.31951701  0.30913164
   0.05954405  0.56020917  0.30750712
   0.31965048  0.55096828  0.31548854
   0.55406210  0.56865429  0.31052766
   0.81352382  0.56181269  0.30258217
   0.05672964  0.80861443  0.31532958
   0.30454748  0.81067798  0.31564110
   0.56875262  0.80484461  0.31622764
   0.81103723  0.82161905  0.31210958
   0.06036589  0.05785938  0.56631041
   0.31798873  0.05910226  0.56179475
   0.56687402  0.05909980  0.56686554
   0.80192046  0.07668768  0.55693249
   0.05405472  0.31471167  0.55471110
   0.30637573  0.32449178  0.55262182
   0.56698390  0.31264767  0.56294734
   0.81073572  0.30946174  0.56537777
   0.04510821  0.56123769  0.57066133
   0.32108700  0.55302417  0.54805406
   0.58134721  0.54662908  0.55877995
   0.80180965  0.55811352  0.57441218
   0.07039676  0.81227963  0.54610999
   0.32571827  0.81495581  0.55588536
   0.53913671  0.80945048  0.57309901
   0.80833974  0.81028859  0.55558281
   0.06236215  0.06936210  0.80091506
   0.32676799  0.05781779  0.81994809
   0.56633259  0.06471094  0.81296430
   0.81445094  0.06595719  0.81654426
   0.06495812  0.31260730  0.81245131
   0.32511387  0.31435574  0.80999722
   0.56795612  0.30993688  0.81195241
   0.81093515  0.30800980  0.80938166
   0.06047124  0.56761791  0.81371388
   0.30229969  0.56597400  0.80887099
   0.56605338  0.56511960  0.81355446
   0.81436971  0.56423233  0.80813935
   0.06478376  0.82275861  0.79052690
   0.30952780  0.81617163  0.80944288
   0.56781650  0.81652990  0.80814542
   0.81406073  0.82004600  0.81234401
 
 position of ions in cartesian coordinates  (Angst):
  10.94666461 10.89288216 21.79024871
  21.81187094 13.59054245 13.57810412
  10.85939072 16.25373769  5.58470937
  10.86945316  8.22059234 19.07602637
  13.69621563 21.69680427 13.77303727
   2.87195862  2.76826319  5.46144682
  13.63540047 16.31483585  8.31520316
   2.80153330  8.22995573 10.94833440
   5.40451838  0.06342215  5.45360074
  16.26267743 13.76868584  8.15836638
   5.51005369  5.51363665 11.01743920
  16.52074431 19.07659801 13.74261890
  19.19372600 21.77623731 19.14845541
  19.10196867 13.70627126 10.98997658
   8.28474664  5.60052858 13.70331333
   8.38793352  8.12397620 16.23893995
   2.80731785 13.67660350 10.89852627
   2.65897471  5.31518994  2.66507405
   2.77560174  8.22971142  5.45566214
  13.66985419 11.01698016 19.09211310
   5.35898961  2.62488233  2.84270872
   5.58951157  5.50522674  5.42018101
   5.47320613  8.26717208  8.16077917
   5.41721530 11.09213127 10.87923457
   8.22245837 13.64096352 16.32374283
   8.15917899  5.34538433  8.16097927
   8.18169218  8.33118781 11.00604887
   8.34856808 10.78504874 13.74744067
  11.10664452 13.50810215 19.22696057
  11.00043634  5.51924527 10.85678698
  10.89248724  8.23303116 13.81430015
  10.95059726 10.95522261 16.39513644
   5.55393568 16.41631787 10.87202948
   5.41367422  8.16889829  2.81688705
  16.42264074 10.97411675 16.39568386
  16.37442428 13.65098873 19.05837135
   8.12698080 16.33137484 13.58379273
   8.11293663  8.36785793  5.59968373
   8.30395876 10.85369037  8.27464149
   8.25791078 13.66620460 10.94017297
  10.94454880 16.23687914 16.46626947
  10.95557320  8.19007266  8.17790535
  11.06870327 11.02222377 10.97283785
  10.87341925 13.75190172 13.57087679
  13.66696649  5.48025009  8.23156169
  13.65958674  8.23216825 11.02584062
  13.58932181 10.90745110 13.78396341
  13.65737571 13.62671452 16.51817764
  19.01719166  8.28825050 11.08672860
   8.23976868 10.82318379  2.87633373
  19.04927065 13.65377918 16.46026159
  19.18749530 16.67952924 19.24243188
  10.95965137  8.22646707  2.92279634
  11.13158952 10.84972721  5.52565320
  11.08598031 13.85061936  8.21754406
  11.00332976 16.38409649 10.90204918
  13.55961866  8.15185783  5.52593355
  13.62898071 11.04347207  8.11360116
  13.75514706 13.54318352 10.89103785
  13.63696076 16.38263441 13.60937436
  16.37627608 19.05091516 19.09063723
  16.33023094 10.78049581 10.91336877
  16.46151840 13.70597592 13.81606575
  16.41335467 16.35848423 16.44349397
   1.42839051  1.25630982  1.37680066
   1.40318370  4.03416026  4.25658190
   1.34309268  6.77293369  6.78026847
   1.24747587  9.49537258  9.55309088
   3.94232976  1.25040299  4.10395215
   4.07516888  4.04241908  6.75932313
   3.98305182  6.90223337  9.58761577
   4.15885533  9.58542229 12.40804957
   6.83298153  1.48789227  6.89788017
   6.80161133  4.14328271  9.62114230
   6.95060222  6.72400257 12.41188396
   6.73354930  9.51373572 15.21667533
   9.71423232  1.33440178  9.61312765
   9.39623084  4.18643598 12.31075884
   9.71126906  6.90162955 15.07519133
   9.68501402  9.66608306 18.02723932
   4.01291012  4.14303812  1.34709892
   3.88331421  6.76081749  4.16240805
   4.14644558  9.39869855  6.93689480
   4.15439365 12.30869315  9.55883755
   6.86426622  4.15662989  4.23007213
   6.77947238  6.88870298  6.77680370
   6.79891873  9.61569946  9.55340961
   6.87574006 12.19393278 12.30752107
   9.49050257  4.01456113  6.77844778
   9.47672734  6.94672736  9.52224789
   9.61590635  9.45630667 12.27952372
   9.45417510 12.20722367 15.04251435
  12.29295064  4.06933583  9.46455685
  12.31892757  6.78320936 12.19759295
  12.26154138  9.67932451 15.02349135
  12.39996835 12.28423147 17.85690647
   6.82675334  6.85416781  1.29306926
   6.79095786  9.62248547  4.12436999
   6.84639174 12.40008791  6.84648457
   6.93011518 14.86222809  9.60963032
   9.50916696  6.65827485  4.03332108
   9.59328410  9.39514286  6.90000848
   9.57667480 12.35843504  9.62082400
   9.56841164 15.05101245 12.25197350
  12.37995730  6.73487695  6.63180746
  12.04286000  9.50608575  9.56044558
  12.09022738 12.46995122 12.33705309
  12.38681148 15.05219732 14.87393347
  14.85716049  6.74294007  9.65412622
  14.99334730  9.64239306 12.47593300
  15.12140514 12.16489320 14.74994817
  14.93899130 14.91767606 17.70347808
   9.51851163  9.44195093  1.44071206
   9.60041834 12.54201642  4.20634295
   9.59942704 15.08583036  6.90193365
   9.65221280 17.83873874  9.62931751
  12.30514142  9.59651975  4.12955893
  12.29742347 12.41508876  6.99409255
  12.27047750 15.09252003  9.60180864
  12.22128323 17.72194563 12.23827422
  15.10808669  9.56125442  6.86962061
  15.03713843 12.15324452  9.49659912
  15.07901829 15.08923134 12.37201633
  15.01008697 17.74592303 15.07823051
  17.64504199  9.35481816  9.70734708
  17.77988842 12.23855570 12.31215032
  17.76961605 15.04935463 15.14105848
  17.85399421 17.78853140 17.87277059
 


--------------------------------------------------------------------------------------------------------


 k-point  1 :   0.0000 0.0000 0.0000  plane waves:   66299
 k-point  2 :   0.5000 0.0000 0.0000  plane waves:   66394
 k-point  3 :   0.0000 0.5000 0.0000  plane waves:   66394
 k-point  4 :   0.5000 0.5000 0.0000  plane waves:   66552
 k-point  5 :   0.0000 0.0000 0.5000  plane waves:   66394
 k-point  6 :   0.5000 0.0000 0.5000  plane waves:   66552
 k-point  7 :   0.0000 0.5000 0.5000  plane waves:   66552
 k-point  8 :   0.5000 0.5000 0.5000  plane waves:   66394

 maximum and minimum number of plane-waves per node :      4207     4110

 maximum number of plane-waves:     66552
 maximum index in each direction: 
   IXMAX=   28   IYMAX=   28   IZMAX=   28
   IXMIN=  -28   IYMIN=  -28   IZMIN=  -28


 parallel 3D FFT for wavefunctions:
    minimum data exchange during FFTs selected (reduces bandwidth)
 parallel 3D FFT for charge:
    minimum data exchange during FFTs selected (reduces bandwidth)


 total amount of memory used by VASP MPI-rank0   221701. kBytes
=======================================================================

   base      :      30000. kBytes
   nonl-proj :      10690. kBytes
   fftplans  :      66746. kBytes
   grid      :      26864. kBytes
   one-center:         24. kBytes
   wavefun   :      87377. kBytes
 
     INWAV:  cpu time    0.0000: real time    0.0002
 Broyden mixing: mesh for mixing (old mesh)
   NGX = 57   NGY = 57   NGZ = 57
  (NGX  =240   NGY  =240   NGZ  =240)
  gives a total of 185193 points

 initial charge density was supplied:
 charge density of overlapping atoms calculated
 number of electron     512.0000000 magnetization 
 keeping initial charge density in first step


--------------------------------------------------------------------------------------------------------


 Maximum index for augmentation-charges         5604 (set IRDMAX)


--------------------------------------------------------------------------------------------------------


 First call to EWALD:  gamma=   0.129
 Maximum number of real-space cells 3x 3x 3
 Maximum number of reciprocal cells 3x 3x 3

    FEWALD:  cpu time    0.0059: real time    0.0059


--------------------------------------- Iteration      1(   1)  ---------------------------------------


    POTLOK:  cpu time    0.4914: real time    0.4994
    SETDIJ:  cpu time    0.5160: real time    0.5161
     EDDAV:  cpu time   69.9407: real time   69.9664
       DOS:  cpu time    0.0028: real time    0.0028
    --------------------------------------------
      LOOP:  cpu time   70.9510: real time   70.9846

 eigenvalue-minimisations  :  5152
 total energy-change (2. order) : 0.1387029E+04  (-0.1908478E+05)
 number of electron     512.0000000 magnetization 
 augmentation part      512.0000000 magnetization 

 Free energy of the ion-electron system (eV)
  ---------------------------------------------------
  alpha Z        PSCENC =       210.77028614
  Ewald energy   TEWEN  =    -14463.87024751
  -Hartree energ DENC   =      -758.87263388
  -exchange      EXHF   =         0.00000000
  -V(xc)+E(xc)   XCENC  =     -1195.21448807
  PAW double counting   =      4221.13331941    -1969.18571412
  entropy T*S    EENTRO =        -0.00099024
  eigenvalues    EBANDS =      2149.78849236
  atomic energy  EATOM  =     13192.48085998
  Solvation  Ediel_sol  =         0.00000000
  ---------------------------------------------------
  free energy    TOTEN  =      1387.02888409 eV

  energy without entropy =     1387.02987433  energy(sigma->0) =     1387.02937921


--------------------------------------------------------------------------------------------------------




--------------------------------------- Iteration      1(   2)  ---------------------------------------


     EDDAV:  cpu time   79.8102: real time   79.8397
       DOS:  cpu time    0.0025: real time    0.0025
    --------------------------------------------
      LOOP:  cpu time   79.8127: real time   79.8422

 eigenvalue-minimisations  :  6120
 total energy-change (2. order) :-0.1921929E+04  (-0.1827829E+04)
 number of electron     512.0000000 magnetization 
 augmentation part      512.0000000 magnetization 

 Free energy of the ion-electron system (eV)
  ---------------------------------------------------
  alpha Z        PSCENC =       210.77028614
  Ewald energy   TEWEN  =    -14463.87024751
  -Hartree energ DENC   =      -758.87263388
  -exchange      EXHF   =         0.00000000
  -V(xc)+E(xc)   XCENC  =     -1195.21448807
  PAW double counting   =      4221.13331941    -1969.18571412
  entropy T*S    EENTRO =        -0.00000738
  eigenvalues    EBANDS =       227.85869105
  atomic energy  EATOM  =     13192.48085998
  Solvation  Ediel_sol  =         0.00000000
  ---------------------------------------------------
  free energy    TOTEN  =      -534.89993437 eV

  energy without entropy =     -534.89992699  energy(sigma->0) =     -534.89993068


--------------------------------------------------------------------------------------------------------




--------------------------------------- Iteration      1(   3)  ---------------------------------------


     EDDAV:  cpu time   81.5996: real time   81.6307
       DOS:  cpu time    0.0009: real time    0.0009
    --------------------------------------------
      LOOP:  cpu time   81.6005: real time   81.6316

 eigenvalue-minimisations  :  6288
 total energy-change (2. order) :-0.1495218E+03  (-0.1463413E+03)
 number of electron     512.0000000 magnetization 
 augmentation part      512.0000000 magnetization 

 Free energy of the ion-electron system (eV)
  ---------------------------------------------------
  alpha Z        PSCENC =       210.77028614
  Ewald energy   TEWEN  =    -14463.87024751
  -Hartree energ DENC   =      -758.87263388
  -exchange      EXHF   =         0.00000000
  -V(xc)+E(xc)   XCENC  =     -1195.21448807
  PAW double counting   =      4221.13331941    -1969.18571412
  entropy T*S    EENTRO =        -0.00000000
  eigenvalues    EBANDS =        78.33687611
  atomic energy  EATOM  =     13192.48085998
  Solvation  Ediel_sol  =         0.00000000
  ---------------------------------------------------
  free energy    TOTEN  =      -684.42174192 eV

  energy without entropy =     -684.42174192  energy(sigma->0) =     -684.42174192


--------------------------------------------------------------------------------------------------------




--------------------------------------- Iteration      1(   4)  ---------------------------------------


     EDDAV:  cpu time   80.6751: real time   80.7036
       DOS:  cpu time    0.0010: real time    0.0010
    --------------------------------------------
      LOOP:  cpu time   80.6760: real time   80.7046

 eigenvalue-minimisations  :  6184
 total energy-change (2. order) :-0.4218603E+01  (-0.4182809E+01)
 number of electron     512.0000000 magnetization 
 augmentation part      512.0000000 magnetization 

 Free energy of the ion-electron system (eV)
  ---------------------------------------------------
  alpha Z        PSCENC =       210.77028614
  Ewald energy   TEWEN  =    -14463.87024751
  -Hartree energ DENC   =      -758.87263388
  -exchange      EXHF   =         0.00000000
  -V(xc)+E(xc)   XCENC  =     -1195.21448807
  PAW double counting   =      4221.13331941    -1969.18571412
  entropy T*S    EENTRO =        -0.00000000
  eigenvalues    EBANDS =        74.11827290
  atomic energy  EATOM  =     13192.48085998
  Solvation  Ediel_sol  =         0.00000000
  ---------------------------------------------------
  free energy    TOTEN  =      -688.64034513 eV

  energy without entropy =     -688.64034513  energy(sigma->0) =     -688.64034513


--------------------------------------------------------------------------------------------------------




--------------------------------------- Iteration      1(   5)  ---------------------------------------


     EDDAV:  cpu time   81.6459: real time   81.6681
       DOS:  cpu time    0.0010: real time    0.0010
    CHARGE:  cpu time    3.2317: real time    3.2321
    MIXING:  cpu time    0.0441: real time    0.0441
    --------------------------------------------
      LOOP:  cpu time   84.9227: real time   84.9454

 eigenvalue-minimisations  :  6296
 total energy-change (2. order) :-0.1481019E+00  (-0.1477018E+00)
 number of electron     511.9999998 magnetization 
 augmentation part      -30.2075170 magnetization 

 Broyden mixing:
  rms(total) = 0.24057E+01    rms(broyden)= 0.24057E+01
  rms(prec ) = 0.29172E+01
  weight for this iteration     100.00

 Free energy of the ion-electron system (eV)
  ---------------------------------------------------
  alpha Z        PSCENC =       210.77028614
  Ewald energy   TEWEN  =    -14463.87024751
  -Hartree energ DENC   =      -758.87263388
  -exchange      EXHF   =         0.00000000
  -V(xc)+E(xc)   XCENC  =     -1195.21448807
  PAW double counting   =      4221.13331941    -1969.18571412
  entropy T*S    EENTRO =        -0.00000000
  eigenvalues    EBANDS =        73.97017097
  atomic energy  EATOM  =     13192.48085998
  Solvation  Ediel_sol  =         0.00000000
  ---------------------------------------------------
  free energy    TOTEN  =      -688.78844707 eV

  energy without entropy =     -688.78844707  energy(sigma->0) =     -688.78844707


--------------------------------------------------------------------------------------------------------




--------------------------------------- Iteration      1(   6)  ---------------------------------------


    POTLOK:  cpu time    0.4945: real time    0.4968
    SETDIJ:  cpu time    0.5196: real time    0.5197
     EDDAV:  cpu time   77.7582: real time   77.7965
       DOS:  cpu time    0.0012: real time    0.0012
    CHARGE:  cpu time    3.2487: real time    3.2527
    MIXING:  cpu time    0.0358: real time    0.0358
    --------------------------------------------
      LOOP:  cpu time   82.0580: real time   82.1027

 eigenvalue-minimisations  :  5904
 total energy-change (2. order) : 0.8685229E+01  (-0.6255633E+00)
 number of electron     511.9999998 magnetization 
 augmentation part      -29.8642318 magnetization 

 Broyden mixing:
  rms(total) = 0.14280E+01    rms(broyden)= 0.14280E+01
  rms(prec ) = 0.17208E+01
  weight for this iteration     100.00

 eigenvalues of (default mixing * dielectric matrix)
  average eigenvalue GAMMA=   2.4243
  2.4243

 Free energy of the ion-electron system (eV)
  ---------------------------------------------------
  alpha Z        PSCENC =       210.77028614
  Ewald energy   TEWEN  =    -14463.87024751
  -Hartree energ DENC   =      -854.68973951
  -exchange      EXHF   =         0.00000000
  -V(xc)+E(xc)   XCENC  =     -1180.54875879
  PAW double counting   =      4467.96306497    -2222.84898030
  entropy T*S    EENTRO =        -0.00000000
  eigenvalues    EBANDS =       170.64029657
  atomic energy  EATOM  =     13192.48085998
  Solvation  Ediel_sol  =         0.00000000
  ---------------------------------------------------
  free energy    TOTEN  =      -680.10321844 eV

  energy without entropy =     -680.10321844  energy(sigma->0) =     -680.10321844


--------------------------------------------------------------------------------------------------------




--------------------------------------- Iteration      1(   7)  ---------------------------------------


    POTLOK:  cpu time    0.4936: real time    0.4952
    SETDIJ:  cpu time    0.5123: real time    0.5123
     EDDAV:  cpu time   76.8682: real time   76.9006
       DOS:  cpu time    0.0013: real time    0.0013
    CHARGE:  cpu time    3.2194: real time    3.2214
    MIXING:  cpu time    0.0541: real time    0.0541
    --------------------------------------------
      LOOP:  cpu time   81.1488: real time   81.1848

 eigenvalue-minimisations  :  5816
 total energy-change (2. order) : 0.3551332E+01  (-0.1180024E+01)
 number of electron     511.9999998 magnetization 
 augmentation part      -29.4105183 magnetization 

 Broyden mixing:
  rms(total) = 0.16236E+00    rms(broyden)= 0.16236E+00
  rms(prec ) = 0.21258E+00
  weight for this iteration     100.00

 eigenvalues of (default mixing * dielectric matrix)
  average eigenvalue GAMMA=   2.0651
  2.0651  2.0651

 Free energy of the ion-electron system (eV)
  ---------------------------------------------------
  alpha Z        PSCENC =       210.77028614
  Ewald energy   TEWEN  =    -14463.87024751
  -Hartree energ DENC   =     -1004.73895059
  -exchange      EXHF   =         0.00000000
  -V(xc)+E(xc)   XCENC  =     -1156.75936521
  PAW double counting   =      4789.09204649    -2552.54277237
  entropy T*S    EENTRO =        -0.00000000
  eigenvalues    EBANDS =       309.01625705
  atomic energy  EATOM  =     13192.48085998
  Solvation  Ediel_sol  =         0.00000000
  ---------------------------------------------------
  free energy    TOTEN  =      -676.55188603 eV

  energy without entropy =     -676.55188603  energy(sigma->0) =     -676.55188603


--------------------------------------------------------------------------------------------------------




--------------------------------------- Iteration      1(   8)  ---------------------------------------


    POTLOK:  cpu time    0.4962: real time    0.4972
    SETDIJ:  cpu time    0.5151: real time    0.5154
     EDDAV:  cpu time   76.4254: real time   76.4421
       DOS:  cpu time    0.0011: real time    0.0011
    CHARGE:  cpu time    3.1917: real time    3.1921
    MIXING:  cpu time    0.0417: real time    0.0418
    --------------------------------------------
      LOOP:  cpu time   80.6714: real time   80.6897

 eigenvalue-minimisations  :  5776
 total energy-change (2. order) :-0.4884389E-01  (-0.1167933E+00)
 number of electron     511.9999998 magnetization 
 augmentation part      -29.4836994 magnetization 

 Broyden mixing:
  rms(total) = 0.66142E-01    rms(broyden)= 0.66142E-01
  rms(prec ) = 0.81646E-01
  weight for this iteration     100.00

 eigenvalues of (default mixing * dielectric matrix)
  average eigenvalue GAMMA=   1.9907
  2.6666  1.6527  1.6527

 Free energy of the ion-electron system (eV)
  ---------------------------------------------------
  alpha Z        PSCENC =       210.77028614
  Ewald energy   TEWEN  =    -14463.87024751
  -Hartree energ DENC   =      -998.39650937
  -exchange      EXHF   =         0.00000000
  -V(xc)+E(xc)   XCENC  =     -1156.81714694
  PAW double counting   =      4743.70485607    -2505.73938633
  entropy T*S    EENTRO =        -0.00000000
  eigenvalues    EBANDS =       301.26655804
  atomic energy  EATOM  =     13192.48085998
  Solvation  Ediel_sol  =         0.00000000
  ---------------------------------------------------
  free energy    TOTEN  =      -676.60072992 eV

  energy without entropy =     -676.60072992  energy(sigma->0) =     -676.60072992


--------------------------------------------------------------------------------------------------------




--------------------------------------- Iteration      1(   9)  ---------------------------------------


    POTLOK:  cpu time    0.4950: real time    0.4962
    SETDIJ:  cpu time    0.5143: real time    0.5143
     EDDAV:  cpu time   79.1704: real time   79.2087
       DOS:  cpu time    0.0011: real time    0.0011
    CHARGE:  cpu time    3.1849: real time    3.1884
    MIXING:  cpu time    0.0396: real time    0.0396
    --------------------------------------------
      LOOP:  cpu time   83.4054: real time   83.4484

 eigenvalue-minimisations  :  6056
 total energy-change (2. order) :-0.2399414E-01  (-0.1131876E-01)
 number of electron     511.9999998 magnetization 
 augmentation part      -29.4889542 magnetization 

 Broyden mixing:
  rms(total) = 0.29141E-01    rms(broyden)= 0.29141E-01
  rms(prec ) = 0.33947E-01
  weight for this iteration     100.00

 eigenvalues of (default mixing * dielectric matrix)
  average eigenvalue GAMMA=   1.7802
  2.5795  1.8150  1.8150  0.9112

 Free energy of the ion-electron system (eV)
  ---------------------------------------------------
  alpha Z        PSCENC =       210.77028614
  Ewald energy   TEWEN  =    -14463.87024751
  -Hartree energ DENC   =     -1005.24601808
  -exchange      EXHF   =         0.00000000
  -V(xc)+E(xc)   XCENC  =     -1155.60524246
  PAW double counting   =      4746.70570651    -2508.81664875
  entropy T*S    EENTRO =        -0.00000000
  eigenvalues    EBANDS =       306.95658011
  atomic energy  EATOM  =     13192.48085998
  Solvation  Ediel_sol  =         0.00000000
  ---------------------------------------------------
  free energy    TOTEN  =      -676.62472406 eV

  energy without entropy =     -676.62472406  energy(sigma->0) =     -676.62472406


--------------------------------------------------------------------------------------------------------




--------------------------------------- Iteration      1(  10)  ---------------------------------------


    POTLOK:  cpu time    0.4918: real time    0.4951
    SETDIJ:  cpu time    0.5156: real time    0.5159
     EDDAV:  cpu time   79.1026: real time   79.1290
       DOS:  cpu time    0.0014: real time    0.0014
    CHARGE:  cpu time    3.1935: real time    3.1944
    MIXING:  cpu time    0.0378: real time    0.0413
    --------------------------------------------
      LOOP:  cpu time   83.3427: real time   83.3771

 eigenvalue-minimisations  :  6048
 total energy-change (2. order) :-0.2524693E-02  (-0.9222147E-03)
 number of electron     511.9999998 magnetization 
 augmentation part      -29.4984700 magnetization 

 Broyden mixing:
  rms(total) = 0.11687E-01    rms(broyden)= 0.11687E-01
  rms(prec ) = 0.14045E-01
  weight for this iteration     100.00

 eigenvalues of (default mixing * dielectric matrix)
  average eigenvalue GAMMA=   1.8487
  2.6778  2.6778  1.4931  1.4931  0.9017

 Free energy of the ion-electron system (eV)
  ---------------------------------------------------
  alpha Z        PSCENC =       210.77028614
  Ewald energy   TEWEN  =    -14463.87024751
  -Hartree energ DENC   =     -1004.15316602
  -exchange      EXHF   =         0.00000000
  -V(xc)+E(xc)   XCENC  =     -1155.76992880
  PAW double counting   =      4739.66556816    -2501.60124145
  entropy T*S    EENTRO =        -0.00000000
  eigenvalues    EBANDS =       305.85062074
  atomic energy  EATOM  =     13192.48085998
  Solvation  Ediel_sol  =         0.00000000
  ---------------------------------------------------
  free energy    TOTEN  =      -676.62724876 eV

  energy without entropy =     -676.62724876  energy(sigma->0) =     -676.62724876


--------------------------------------------------------------------------------------------------------




--------------------------------------- Iteration      1(  11)  ---------------------------------------


    POTLOK:  cpu time    0.4910: real time    0.4941
    SETDIJ:  cpu time    0.5168: real time    0.5169
     EDDAV:  cpu time   75.9837: real time   76.0143
       DOS:  cpu time    0.0010: real time    0.0010
    CHARGE:  cpu time    3.1560: real time    3.1567
    MIXING:  cpu time    0.0397: real time    0.0397
    --------------------------------------------
      LOOP:  cpu time   80.1882: real time   80.2226

 eigenvalue-minimisations  :  5744
 total energy-change (2. order) :-0.1601001E-02  (-0.2567729E-03)
 number of electron     511.9999998 magnetization 
 augmentation part      -29.5011699 magnetization 

 Broyden mixing:
  rms(total) = 0.40631E-02    rms(broyden)= 0.40631E-02
  rms(prec ) = 0.56942E-02
  weight for this iteration     100.00

 eigenvalues of (default mixing * dielectric matrix)
  average eigenvalue GAMMA=   1.7679
  2.8306  2.0396  2.0396  1.5440  1.2820  0.8718

 Free energy of the ion-electron system (eV)
  ---------------------------------------------------
  alpha Z        PSCENC =       210.77028614
  Ewald energy   TEWEN  =    -14463.87024751
  -Hartree energ DENC   =     -1004.05665524
  -exchange      EXHF   =         0.00000000
  -V(xc)+E(xc)   XCENC  =     -1155.78005739
  PAW double counting   =      4735.20841067    -2497.04040271
  entropy T*S    EENTRO =        -0.00000000
  eigenvalues    EBANDS =       305.65895630
  atomic energy  EATOM  =     13192.48085998
  Solvation  Ediel_sol  =         0.00000000
  ---------------------------------------------------
  free energy    TOTEN  =      -676.62884976 eV

  energy without entropy =     -676.62884976  energy(sigma->0) =     -676.62884976


--------------------------------------------------------------------------------------------------------




--------------------------------------- Iteration      1(  12)  ---------------------------------------


    POTLOK:  cpu time    0.4904: real time    0.4937
    SETDIJ:  cpu time    0.5201: real time    0.5201
     EDDAV:  cpu time   79.5698: real time   79.5962
       DOS:  cpu time    0.0011: real time    0.0011
    CHARGE:  cpu time    3.1591: real time    3.1597
    MIXING:  cpu time    0.0565: real time    0.0565
    --------------------------------------------
      LOOP:  cpu time   83.7969: real time   83.8273

 eigenvalue-minimisations  :  6104
 total energy-change (2. order) :-0.5809738E-04  (-0.4699871E-04)
 number of electron     511.9999998 magnetization 
 augmentation part      -29.4992262 magnetization 

 Broyden mixing:
  rms(total) = 0.18773E-02    rms(broyden)= 0.18773E-02
  rms(prec ) = 0.22273E-02
  weight for this iteration     100.00

 eigenvalues of (default mixing * dielectric matrix)
  average eigenvalue GAMMA=   1.8344
  3.1798  2.6929  1.7683  1.7683  0.8973  1.2669  1.2669

 Free energy of the ion-electron system (eV)
  ---------------------------------------------------
  alpha Z        PSCENC =       210.77028614
  Ewald energy   TEWEN  =    -14463.87024751
  -Hartree energ DENC   =     -1004.70155524
  -exchange      EXHF   =         0.00000000
  -V(xc)+E(xc)   XCENC  =     -1155.70678341
  PAW double counting   =      4736.52049391    -2498.39665318
  entropy T*S    EENTRO =        -0.00000000
  eigenvalues    EBANDS =       306.27469145
  atomic energy  EATOM  =     13192.48085998
  Solvation  Ediel_sol  =         0.00000000
  ---------------------------------------------------
  free energy    TOTEN  =      -676.62890785 eV

  energy without entropy =     -676.62890785  energy(sigma->0) =     -676.62890785


--------------------------------------------------------------------------------------------------------




--------------------------------------- Iteration      1(  13)  ---------------------------------------


    POTLOK:  cpu time    0.4931: real time    0.4959
    SETDIJ:  cpu time    0.5182: real time    0.5183
     EDDAV:  cpu time   76.6617: real time   76.6907
       DOS:  cpu time    0.0010: real time    0.0010
    CHARGE:  cpu time    3.1607: real time    3.1611
    MIXING:  cpu time    0.0465: real time    0.0465
    --------------------------------------------
      LOOP:  cpu time   80.8813: real time   80.9134

 eigenvalue-minimisations  :  5808
 total energy-change (2. order) :-0.3417645E-04  (-0.1302559E-04)
 number of electron     511.9999998 magnetization 
 augmentation part      -29.4991243 magnetization 

 Broyden mixing:
  rms(total) = 0.59700E-03    rms(broyden)= 0.59698E-03
  rms(prec ) = 0.77051E-03
  weight for this iteration     100.00

 eigenvalues of (default mixing * dielectric matrix)
  average eigenvalue GAMMA=   1.7736
  3.1527  2.5674  1.9258  1.9258  1.3708  1.3708  0.9377  0.9377

 Free energy of the ion-electron system (eV)
  ---------------------------------------------------
  alpha Z        PSCENC =       210.77028614
  Ewald energy   TEWEN  =    -14463.87024751
  -Hartree energ DENC   =     -1004.70577359
  -exchange      EXHF   =         0.00000000
  -V(xc)+E(xc)   XCENC  =     -1155.71756089
  PAW double counting   =      4735.91340926    -2497.77786926
  entropy T*S    EENTRO =        -0.00000000
  eigenvalues    EBANDS =       306.27795384
  atomic energy  EATOM  =     13192.48085998
  Solvation  Ediel_sol  =         0.00000000
  ---------------------------------------------------
  free energy    TOTEN  =      -676.62894203 eV

  energy without entropy =     -676.62894203  energy(sigma->0) =     -676.62894203


--------------------------------------------------------------------------------------------------------




--------------------------------------- Iteration      1(  14)  ---------------------------------------


    POTLOK:  cpu time    0.4916: real time    0.4946
    SETDIJ:  cpu time    0.5193: real time    0.5193
     EDDAV:  cpu time   79.9791: real time   80.0049
       DOS:  cpu time    0.0010: real time    0.0010
    CHARGE:  cpu time    3.1073: real time    3.1077
    MIXING:  cpu time    0.0470: real time    0.0470
    --------------------------------------------
      LOOP:  cpu time   84.1452: real time   84.1744

 eigenvalue-minimisations  :  6136
 total energy-change (2. order) :-0.2478615E-05  (-0.8490155E-06)
 number of electron     511.9999998 magnetization 
 augmentation part      -29.4990868 magnetization 

 Broyden mixing:
  rms(total) = 0.22328E-03    rms(broyden)= 0.22323E-03
  rms(prec ) = 0.29769E-03
  weight for this iteration     100.00

 eigenvalues of (default mixing * dielectric matrix)
  average eigenvalue GAMMA=   1.7733
  3.2139  2.6066  2.2699  1.6790  1.6790  1.2900  1.2900  1.0041  0.9273

 Free energy of the ion-electron system (eV)
  ---------------------------------------------------
  alpha Z        PSCENC =       210.77028614
  Ewald energy   TEWEN  =    -14463.87024751
  -Hartree energ DENC   =     -1004.73884963
  -exchange      EXHF   =         0.00000000
  -V(xc)+E(xc)   XCENC  =     -1155.71176900
  PAW double counting   =      4736.03591235    -2497.90244435
  entropy T*S    EENTRO =        -0.00000000
  eigenvalues    EBANDS =       306.30730751
  atomic energy  EATOM  =     13192.48085998
  Solvation  Ediel_sol  =         0.00000000
  ---------------------------------------------------
  free energy    TOTEN  =      -676.62894451 eV

  energy without entropy =     -676.62894451  energy(sigma->0) =     -676.62894451


--------------------------------------------------------------------------------------------------------




--------------------------------------- Iteration      1(  15)  ---------------------------------------


    POTLOK:  cpu time    0.4888: real time    0.4926
    SETDIJ:  cpu time    0.5169: real time    0.5169
     EDDAV:  cpu time   79.0296: real time   79.0699
       DOS:  cpu time    0.0011: real time    0.0011
    CHARGE:  cpu time    3.1052: real time    3.1058
    MIXING:  cpu time    0.0460: real time    0.0460
    --------------------------------------------
      LOOP:  cpu time   83.1877: real time   83.2323

 eigenvalue-minimisations  :  6032
 total energy-change (2. order) :-0.4833184E-05  (-0.2275795E-06)
 number of electron     511.9999998 magnetization 
 augmentation part      -29.4989106 magnetization 

 Broyden mixing:
  rms(total) = 0.76569E-04    rms(broyden)= 0.76416E-04
  rms(prec ) = 0.10014E-03
  weight for this iteration     100.00

 eigenvalues of (default mixing * dielectric matrix)
  average eigenvalue GAMMA=   1.7204
  3.2478  2.5942  2.1655  1.7265  1.7265  1.4113  1.4113  0.9393  0.9393  1.0426

 Free energy of the ion-electron system (eV)
  ---------------------------------------------------
  alpha Z        PSCENC =       210.77028614
  Ewald energy   TEWEN  =    -14463.87024751
  -Hartree energ DENC   =     -1004.77241989
  -exchange      EXHF   =         0.00000000
  -V(xc)+E(xc)   XCENC  =     -1155.70943473
  PAW double counting   =      4736.13763924    -2498.00725567
  entropy T*S    EENTRO =        -0.00000000
  eigenvalues    EBANDS =       306.34162309
  atomic energy  EATOM  =     13192.48085998
  Solvation  Ediel_sol  =         0.00000000
  ---------------------------------------------------
  free energy    TOTEN  =      -676.62894934 eV

  energy without entropy =     -676.62894934  energy(sigma->0) =     -676.62894934


--------------------------------------------------------------------------------------------------------




--------------------------------------- Iteration      1(  16)  ---------------------------------------


    POTLOK:  cpu time    0.4941: real time    0.4968
    SETDIJ:  cpu time    0.5135: real time    0.5135
     EDDAV:  cpu time   79.1671: real time   79.1901
       DOS:  cpu time    0.0011: real time    0.0011
    CHARGE:  cpu time    3.2604: real time    3.2611
    MIXING:  cpu time    0.0437: real time    0.0437
    --------------------------------------------
      LOOP:  cpu time   83.4799: real time   83.5063

 eigenvalue-minimisations  :  6088
 total energy-change (2. order) : 0.6757746E-06  (-0.2065883E-07)
 number of electron     511.9999998 magnetization 
 augmentation part      -29.4989191 magnetization 

 Broyden mixing:
  rms(total) = 0.34243E-04    rms(broyden)= 0.33901E-04
  rms(prec ) = 0.44716E-04
  weight for this iteration     100.00

 eigenvalues of (default mixing * dielectric matrix)
  average eigenvalue GAMMA=   1.7174
  3.2916  2.6398  2.0961  2.0961  1.4730  1.4730  1.4106  1.4106  0.9100  1.0452
  1.0452

 Free energy of the ion-electron system (eV)
  ---------------------------------------------------
  alpha Z        PSCENC =       210.77028614
  Ewald energy   TEWEN  =    -14463.87024751
  -Hartree energ DENC   =     -1004.76963426
  -exchange      EXHF   =         0.00000000
  -V(xc)+E(xc)   XCENC  =     -1155.70964924
  PAW double counting   =      4736.12575737    -2497.99485295
  entropy T*S    EENTRO =        -0.00000000
  eigenvalues    EBANDS =       306.33853179
  atomic energy  EATOM  =     13192.48085998
  Solvation  Ediel_sol  =         0.00000000
  ---------------------------------------------------
  free energy    TOTEN  =      -676.62894867 eV

  energy without entropy =     -676.62894867  energy(sigma->0) =     -676.62894867


--------------------------------------------------------------------------------------------------------




--------------------------------------- Iteration      1(  17)  ---------------------------------------


    POTLOK:  cpu time    0.4949: real time    0.4961
    SETDIJ:  cpu time    0.5129: real time    0.5129
     EDDAV:  cpu time   65.5671: real time   65.6032
       DOS:  cpu time    0.0011: real time    0.0011
    CHARGE:  cpu time    3.1909: real time    3.1915
    MIXING:  cpu time    0.0478: real time    0.0478
    --------------------------------------------
      LOOP:  cpu time   69.8146: real time   69.8525

 eigenvalue-minimisations  :  4720
 total energy-change (2. order) : 0.1787066E-06  (-0.3968384E-08)
 number of electron     511.9999998 magnetization 
 augmentation part      -29.4989250 magnetization 

 Broyden mixing:
  rms(total) = 0.14764E-04    rms(broyden)= 0.13952E-04
  rms(prec ) = 0.17194E-04
  weight for this iteration     100.00

 eigenvalues of (default mixing * dielectric matrix)
  average eigenvalue GAMMA=   1.6993
  3.2906  2.6129  2.2543  1.9266  1.6817  1.6817  1.4407  1.4407  0.9195  0.9973
  1.0728  1.0728

 Free energy of the ion-electron system (eV)
  ---------------------------------------------------
  alpha Z        PSCENC =       210.77028614
  Ewald energy   TEWEN  =    -14463.87024751
  -Hartree energ DENC   =     -1004.76832034
  -exchange      EXHF   =         0.00000000
  -V(xc)+E(xc)   XCENC  =     -1155.70975006
  PAW double counting   =      4736.12487644    -2497.99379639
  entropy T*S    EENTRO =        -0.00000000
  eigenvalues    EBANDS =       306.33714324
  atomic energy  EATOM  =     13192.48085998
  Solvation  Ediel_sol  =         0.00000000
  ---------------------------------------------------
  free energy    TOTEN  =      -676.62894849 eV

  energy without entropy =     -676.62894849  energy(sigma->0) =     -676.62894849


--------------------------------------------------------------------------------------------------------




--------------------------------------- Iteration      1(  18)  ---------------------------------------


    POTLOK:  cpu time    0.4910: real time    0.4938
    SETDIJ:  cpu time    0.5141: real time    0.5142
     EDDAV:  cpu time   51.5441: real time   51.5596
       DOS:  cpu time    0.0011: real time    0.0011
    CHARGE:  cpu time    3.1976: real time    3.2065
    MIXING:  cpu time    0.0464: real time    0.0464
    --------------------------------------------
      LOOP:  cpu time   55.7943: real time   55.8215

 eigenvalue-minimisations  :  3312
 total energy-change (2. order) :-0.1336266E-06  (-0.8354248E-09)
 number of electron     511.9999998 magnetization 
 augmentation part      -29.4989206 magnetization 

 Broyden mixing:
  rms(total) = 0.74202E-05    rms(broyden)= 0.56362E-05
  rms(prec ) = 0.75358E-05
  weight for this iteration     100.00
  WARNING: grid for Broyden might be to small

 eigenvalues of (default mixing * dielectric matrix)
  average eigenvalue GAMMA=   1.7207
  3.2835  2.7179  2.4250  2.2640  1.7847  1.7847  1.3288  1.3288  0.9206  0.9879
  1.0605  1.2411  1.2411

 Free energy of the ion-electron system (eV)
  ---------------------------------------------------
  alpha Z        PSCENC =       210.77028614
  Ewald energy   TEWEN  =    -14463.87024751
  -Hartree energ DENC   =     -1004.76917569
  -exchange      EXHF   =         0.00000000
  -V(xc)+E(xc)   XCENC  =     -1155.70963238
  PAW double counting   =      4736.12958384    -2497.99858589
  entropy T*S    EENTRO =        -0.00000000
  eigenvalues    EBANDS =       306.33796290
  atomic energy  EATOM  =     13192.48085998
  Solvation  Ediel_sol  =         0.00000000
  ---------------------------------------------------
  free energy    TOTEN  =      -676.62894862 eV

  energy without entropy =     -676.62894862  energy(sigma->0) =     -676.62894862


--------------------------------------------------------------------------------------------------------




--------------------------------------- Iteration      1(  19)  ---------------------------------------


    POTLOK:  cpu time    0.4904: real time    0.4933
    SETDIJ:  cpu time    0.5122: real time    0.5125
     EDDAV:  cpu time   50.5315: real time   50.5565
       DOS:  cpu time    0.0011: real time    0.0011
    CHARGE:  cpu time    3.1860: real time    3.1865
    MIXING:  cpu time    0.0485: real time    0.0485
    --------------------------------------------
      LOOP:  cpu time   54.7697: real time   54.7985

 eigenvalue-minimisations  :  3208
 total energy-change (2. order) : 0.1786793E-07  (-0.1911165E-09)
 number of electron     511.9999998 magnetization 
 augmentation part      -29.4989213 magnetization 

 Broyden mixing:
  rms(total) = 0.53448E-05    rms(broyden)= 0.22967E-05
  rms(prec ) = 0.31182E-05
  weight for this iteration     100.00
  WARNING: grid for Broyden might be to small

 eigenvalues of (default mixing * dielectric matrix)
  average eigenvalue GAMMA=   1.6973
  3.3352  2.7187  2.4197  2.1235  1.7864  1.7864  1.5000  1.5000  1.2747  1.2747
  0.9206  0.9636  1.0791  1.0791

 Free energy of the ion-electron system (eV)
  ---------------------------------------------------
  alpha Z        PSCENC =       210.77028614
  Ewald energy   TEWEN  =    -14463.87024751
  -Hartree energ DENC   =     -1004.76902197
  -exchange      EXHF   =         0.00000000
  -V(xc)+E(xc)   XCENC  =     -1155.70964764
  PAW double counting   =      4736.12972768    -2497.99871247
  entropy T*S    EENTRO =        -0.00000000
  eigenvalues    EBANDS =       306.33780719
  atomic energy  EATOM  =     13192.48085998
  Solvation  Ediel_sol  =         0.00000000
  ---------------------------------------------------
  free energy    TOTEN  =      -676.62894860 eV

  energy without entropy =     -676.62894860  energy(sigma->0) =     -676.62894860


--------------------------------------------------------------------------------------------------------




--------------------------------------- Iteration      1(  20)  ---------------------------------------


    POTLOK:  cpu time    0.4934: real time    0.4940
    SETDIJ:  cpu time    0.5139: real time    0.5139
     EDDAV:  cpu time   49.9846: real time   49.9994
       DOS:  cpu time    0.0010: real time    0.0010
    --------------------------------------------
      LOOP:  cpu time   50.9929: real time   51.0083

 eigenvalue-minimisations  :  3152
 total energy-change (2. order) :-0.5278707E-08  (-0.4223048E-10)
 number of electron     511.9999998 magnetization 
 augmentation part      -29.4989213 magnetization 

 Free energy of the ion-electron system (eV)
  ---------------------------------------------------
  alpha Z        PSCENC =       210.77028614
  Ewald energy   TEWEN  =    -14463.87024751
  -Hartree energ DENC   =     -1004.76918940
  -exchange      EXHF   =         0.00000000
  -V(xc)+E(xc)   XCENC  =     -1155.70962810
  PAW double counting   =      4736.12986837    -2497.99885882
  entropy T*S    EENTRO =        -0.00000000
  eigenvalues    EBANDS =       306.33796073
  atomic energy  EATOM  =     13192.48085998
  Solvation  Ediel_sol  =         0.00000000
  ---------------------------------------------------
  free energy    TOTEN  =      -676.62894861 eV

  energy without entropy =     -676.62894861  energy(sigma->0) =     -676.62894861


--------------------------------------------------------------------------------------------------------




 average (electrostatic) potential at core
  the test charge radii are     0.9892
  (the norm of the test charge is              1.0000)
       1 -83.3518       2 -83.5133       3 -83.5235       4 -83.4007       5 -83.6046
       6 -83.5052       7 -83.6498       8 -83.5110       9 -83.5433      10 -83.5306
      11 -83.5187      12 -83.5038      13 -83.6631      14 -83.4912      15 -83.5787
      16 -83.5750      17 -83.5158      18 -83.3902      19 -83.6362      20 -83.4948
      21 -83.5649      22 -83.5625      23 -83.4818      24 -83.5464      25 -83.5625
      26 -83.5804      27 -83.6029      28 -83.4792      29 -83.4283      30 -83.4302
      31 -83.6183      32 -83.6748      33 -83.5196      34 -83.5202      35 -83.3733
      36 -83.5014      37 -83.5842      38 -83.3763      39 -83.5871      40 -83.4249
      41 -83.5318      42 -83.4070      43 -83.5400      44 -83.5738      45 -83.5022
      46 -83.5234      47 -83.5812      48 -83.4126      49 -83.4646      50 -83.2690
      51 -83.5094      52 -83.4778      53 -83.5907      54 -83.6249      55 -83.5894
      56 -83.6381      57 -83.5392      58 -83.3818      59 -83.6255      60 -83.4022
      61 -83.5538      62 -83.5365      63 -83.5138      64 -83.4960      65 -83.6444
      66 -83.4754      67 -83.5482      68 -83.3915      69 -83.5513      70 -83.5983
      71 -83.5704      72 -83.6673      73 -83.6602      74 -83.4965      75 -83.5121
      76 -83.5256      77 -83.4492      78 -83.4822      79 -83.5896      80 -83.5324
      81 -83.3818      82 -83.5194      83 -83.5360      84 -83.4774      85 -83.6201
      86 -83.4282      87 -83.6159      88 -83.5326      89 -83.5932      90 -83.4659
      91 -83.5245      92 -83.6946      93 -83.4390      94 -83.4009      95 -83.6995
      96 -83.3979      97 -83.4801      98 -83.2463      99 -83.4805     100 -83.5451
     101 -83.5041     102 -83.4666     103 -83.5035     104 -83.5761     105 -83.6122
     106 -83.5922     107 -83.5634     108 -83.5529     109 -83.5663     110 -83.5572
     111 -83.5283     112 -83.4376     113 -83.4114     114 -83.4811     115 -83.4791
     116 -83.5235     117 -83.5998     118 -83.5336     119 -83.5167     120 -83.5213
     121 -83.5919     122 -83.4591     123 -83.4672     124 -83.5124     125 -83.6047
     126 -83.4468     127 -83.5640     128 -83.5141
 
 
 
 E-fermi :   5.9631     XC(G=0):  -9.3323     alpha+bet :-11.7321


 k-point     1 :       0.0000    0.0000    0.0000
  band No.  band energies     occupation 
      1      -6.3086      2.00000
      2      -5.7139      2.00000
      3      -5.6639      2.00000
      4      -5.6168      2.00000
      5      -5.5535      2.00000
      6      -5.5298      2.00000
      7      -5.4889      2.00000
      8      -5.4686      2.00000
      9      -5.3706      2.00000
     10      -5.3336      2.00000
     11      -5.3036      2.00000
     12      -5.2685      2.00000
     13      -5.1801      2.00000
     14      -5.1462      2.00000
     15      -5.0902      2.00000
     16      -4.5654      2.00000
     17      -4.4764      2.00000
     18      -4.4417      2.00000
     19      -4.4088      2.00000
     20      -4.3891      2.00000
     21      -4.3298      2.00000
     22      -4.3087      2.00000
     23      -4.3001      2.00000
     24      -4.2559      2.00000
     25      -4.2030      2.00000
     26      -4.1648      2.00000
     27      -4.1008      2.00000
     28      -4.0785      2.00000
     29      -4.0093      2.00000
     30      -3.9802      2.00000
     31      -3.9603      2.00000
     32      -3.9339      2.00000
     33      -3.9299      2.00000
     34      -3.8312      2.00000
     35      -3.7947      2.00000
     36      -3.7423      2.00000
     37      -3.7153      2.00000
     38      -3.7070      2.00000
     39      -3.6804      2.00000
     40      -3.6418      2.00000
     41      -3.6265      2.00000
     42      -3.6017      2.00000
     43      -3.5591      2.00000
     44      -3.5290      2.00000
     45      -3.5246      2.00000
     46      -3.5095      2.00000
     47      -3.4909      2.00000
     48      -3.4591      2.00000
     49      -3.4240      2.00000
     50      -3.3967      2.00000
     51      -3.3754      2.00000
     52      -3.3217      2.00000
     53      -3.2897      2.00000
     54      -3.2487      2.00000
     55      -3.2211      2.00000
     56      -2.4113      2.00000
     57      -2.3907      2.00000
     58      -2.3079      2.00000
     59      -2.2526      2.00000
     60      -2.2291      2.00000
     61      -2.1901      2.00000
     62      -2.1784      2.00000
     63      -2.1366      2.00000
     64      -2.0794      2.00000
     65      -2.0235      2.00000
     66      -2.0017      2.00000
     67      -1.9604      2.00000
     68      -1.9433      2.00000
     69      -1.9231      2.00000
     70      -1.8842      2.00000
     71      -1.8331      2.00000
     72      -1.8140      2.00000
     73      -1.7756      2.00000
     74      -1.3697      2.00000
     75      -1.3537      2.00000
     76      -1.2513      2.00000
     77      -1.2012      2.00000
     78      -1.1012      2.00000
     79      -1.0369      2.00000
     80      -0.9935      2.00000
     81      -0.9523      2.00000
     82      -0.8949      2.00000
     83      -0.8763      2.00000
     84      -0.8568      2.00000
     85      -0.8197      2.00000
     86      -0.7934      2.00000
     87      -0.7754      2.00000
     88      -0.7374      2.00000
     89      -0.7313      2.00000
     90      -0.6937      2.00000
     91      -0.6735      2.00000
     92      -0.6520      2.00000
     93      -0.6404      2.00000
     94      -0.6216      2.00000
     95      -0.5604      2.00000
     96      -0.5266      2.00000
     97      -0.4973      2.00000
     98      -0.4824      2.00000
     99      -0.4567      2.00000
    100      -0.4493      2.00000
    101      -0.3373      2.00000
    102      -0.0340      2.00000
    103      -0.0097      2.00000
[...]
   -.231E+00 -.481E+01 -.520E+01   -.395E-01 0.441E+01 0.430E+01   0.192E+01 0.572E+00 -.160E+00   0.174E-05 -.177E-05 0.180E-05
   0.197E+02 -.100E+02 -.470E+01   -.179E+02 0.903E+01 0.484E+01   -.396E+01 0.146E+01 -.331E+00   -.965E-06 0.392E-05 0.203E-05
   -.966E+01 0.312E+01 0.405E+01   0.887E+01 -.322E+01 -.410E+01   0.308E+01 -.154E+00 -.347E+00   0.193E-05 -.191E-05 -.183E-06
   -.743E+01 0.158E+02 0.389E+00   0.656E+01 -.140E+02 -.363E+00   0.115E+01 -.484E+01 -.936E-01   0.306E-05 -.137E-05 0.263E-05
   0.900E+01 -.414E+01 0.144E+02   -.883E+01 0.375E+01 -.125E+02   -.725E+00 0.884E-01 -.616E+01   0.300E-05 -.119E-05 -.529E-05
   -.124E+02 0.123E+01 -.109E+00   0.113E+02 -.115E+01 0.295E+00   0.339E+01 -.985E+00 -.352E+00   -.140E-05 0.886E-06 0.351E-05
   -.253E+01 0.675E+01 0.583E+01   0.222E+01 -.605E+01 -.591E+01   0.217E+01 -.135E+01 -.127E+01   -.269E-05 -.114E-05 -.807E-06
   0.614E+01 -.849E+01 0.458E+01   -.500E+01 0.768E+01 -.360E+01   -.265E+01 0.404E+01 -.299E+01   -.129E-05 0.104E-05 0.137E-05
   0.304E+01 -.100E+00 -.280E-02   -.245E+01 0.110E+00 0.581E+00   -.172E+01 0.835E+00 -.170E+01   -.195E-05 -.160E-05 -.371E-05
   0.228E+01 0.500E+01 0.996E+01   -.229E+01 -.468E+01 -.912E+01   -.880E-01 -.182E+01 -.299E+01   0.449E-06 0.143E-05 -.182E-05
   -.418E+01 0.554E+01 -.737E+01   0.415E+01 -.508E+01 0.645E+01   0.765E+00 -.776E+00 0.205E+01   0.151E-05 -.323E-06 0.152E-05
   0.407E+01 0.339E+01 -.477E+01   -.370E+01 -.264E+01 0.453E+01   -.538E+00 -.532E+00 0.875E+00   -.113E-05 -.175E-05 -.278E-05
   -.678E+00 -.193E+01 -.881E+01   0.431E+00 0.176E+01 0.840E+01   0.595E+00 0.101E+01 0.137E+01   0.101E-05 0.269E-05 0.114E-05
   -.407E+01 0.324E+01 -.119E+02   0.374E+01 -.309E+01 0.107E+02   0.173E+01 -.928E+00 0.236E+01   0.236E-05 0.177E-05 0.310E-05
   0.644E+01 0.935E+01 0.289E+00   -.522E+01 -.900E+01 -.481E+00   -.843E+00 -.145E+01 0.355E+00   0.223E-05 -.178E-05 -.470E-05
   -.565E+01 -.264E+01 0.582E+01   0.481E+01 0.280E+01 -.543E+01   0.195E+01 0.152E+01 0.302E+00   0.504E-05 0.456E-06 0.811E-06
   -.383E+01 -.707E+01 -.166E+01   0.264E+01 0.602E+01 0.147E+01   0.308E+01 0.222E+01 0.317E-01   0.554E-05 0.309E-06 0.176E-05
   0.591E+01 -.390E+01 -.761E+01   -.586E+01 0.366E+01 0.681E+01   0.458E+00 0.677E+00 0.211E+01   -.360E-05 0.189E-05 -.229E-05
   0.394E+01 -.142E+01 -.873E+01   -.306E+01 0.848E+00 0.739E+01   -.110E+01 0.104E+01 0.329E+01   -.802E-06 -.667E-06 0.271E-05
   -.165E+01 0.645E+01 -.380E+01   0.165E+01 -.539E+01 0.345E+01   -.183E-01 -.277E+01 0.175E+01   0.203E-06 0.168E-05 0.482E-06
   0.738E+01 0.128E+01 0.117E+02   -.643E+01 -.848E+00 -.107E+02   -.221E+01 -.400E+00 -.298E+01   0.202E-05 0.229E-06 -.366E-05
   0.746E+01 0.369E+01 -.946E+01   -.675E+01 -.330E+01 0.821E+01   -.169E+01 -.908E+00 0.278E+01   0.283E-05 0.444E-06 0.165E-05
   -.719E+00 0.567E+01 0.352E+01   0.109E+01 -.413E+01 -.285E+01   -.601E+00 -.232E+01 -.252E+00   0.195E-05 0.988E-06 0.135E-05
   -.577E+01 0.115E+02 -.514E+01   0.516E+01 -.102E+02 0.455E+01   0.533E+00 -.368E+01 0.116E+01   0.257E-05 0.726E-06 -.919E-06
   0.524E+01 -.477E+01 0.760E+01   -.472E+01 0.443E+01 -.662E+01   -.154E+01 0.258E+01 -.240E+01   0.232E-05 -.254E-07 -.277E-05
   0.320E+01 -.540E+01 -.768E+01   -.277E+01 0.495E+01 0.747E+01   -.111E+00 0.172E+01 0.180E+01   0.203E-05 0.179E-05 0.134E-05
   -.192E+01 -.885E+01 0.822E+01   0.193E+01 0.733E+01 -.739E+01   0.624E+00 0.390E+01 -.130E+01   0.436E-05 -.154E-06 -.759E-06
   -.138E+01 0.301E+01 0.962E+01   0.817E+00 -.318E+01 -.836E+01   0.171E+01 -.260E+00 -.202E+01   0.693E-06 -.347E-06 -.362E-05
   0.555E+01 -.632E+01 -.135E+01   -.574E+01 0.535E+01 0.180E+01   -.124E+00 0.157E+01 -.838E+00   -.519E-06 0.820E-06 0.943E-06
   0.803E+01 0.370E+01 -.822E+01   -.697E+01 -.331E+01 0.727E+01   -.269E+01 -.116E+01 0.386E+01   -.773E-06 0.210E-05 0.111E-05
   -.131E+02 -.466E+00 -.982E+00   0.124E+02 0.446E+00 0.566E+00   0.394E+01 0.126E+01 0.102E+01   -.500E-06 -.898E-06 -.365E-05
   -.155E+02 0.434E+01 -.219E+01   0.140E+02 -.380E+01 0.181E+01   0.500E+01 -.215E+01 -.271E+00   0.218E-05 -.162E-05 0.207E-05
   0.737E+00 0.695E+01 -.804E+01   -.412E+00 -.578E+01 0.747E+01   -.142E+01 -.249E+01 0.275E+01   -.823E-06 -.214E-05 0.333E-05
   -.373E+01 -.563E+01 -.107E+01   0.342E+01 0.516E+01 0.865E+00   0.220E+01 0.152E+01 0.490E-01   -.325E-05 0.757E-06 -.349E-05
   -.120E+00 0.151E+01 0.473E+01   0.308E+00 -.167E+01 -.456E+01   -.186E+00 -.853E+00 -.114E+01   -.443E-05 0.129E-05 0.212E-05
   0.207E+01 -.593E+01 -.365E+01   -.157E+01 0.543E+01 0.369E+01   -.683E+00 0.145E+01 0.344E+01   -.427E-05 -.179E-05 0.142E-05
   -.477E+01 -.109E+02 -.314E+01   0.427E+01 0.993E+01 0.227E+01   0.201E+01 0.307E+01 0.227E+01   -.277E-05 -.423E-06 -.167E-05
   -.877E+01 -.793E+01 -.882E+00   0.781E+01 0.808E+01 0.153E+01   0.218E+01 0.137E+01 -.178E+00   0.212E-05 0.287E-06 0.202E-05
   -.305E+01 0.102E+02 -.715E+00   0.317E+01 -.942E+01 -.376E+00   0.638E-01 -.385E+01 0.888E+00   0.237E-05 -.682E-06 0.215E-05
   0.179E+02 0.839E+01 -.466E+01   -.164E+02 -.734E+01 0.368E+01   -.371E+01 -.174E+01 0.215E+01   0.509E-06 0.202E-06 -.411E-05
   0.147E+01 -.656E+01 -.119E+02   -.195E+01 0.593E+01 0.102E+02   -.378E-01 0.152E+01 0.265E+01   -.549E-06 -.110E-05 0.790E-06
   0.323E+01 0.196E+01 0.309E+01   -.308E+01 -.151E+01 -.276E+01   0.393E+00 -.170E+01 0.128E+00   -.452E-05 -.636E-06 0.208E-05
   0.823E+01 0.188E+01 0.103E+02   -.689E+01 -.256E+01 -.911E+01   -.801E+00 0.551E+00 -.364E+01   -.407E-05 -.270E-05 -.227E-05
   -.935E+01 0.455E+01 -.111E+02   0.921E+01 -.419E+01 0.961E+01   0.193E+01 -.154E+01 0.252E+01   -.741E-06 -.128E-05 0.103E-05
   -.121E+01 -.123E+02 -.601E+01   0.172E+01 0.116E+02 0.581E+01   0.675E+00 0.216E+01 0.146E+01   -.486E-06 0.399E-05 0.870E-06
   0.632E+00 0.269E+01 -.311E+01   -.533E-03 -.208E+01 0.299E+01   -.191E+01 -.280E+00 -.358E+00   -.384E-05 -.270E-05 0.111E-05
   -.130E+02 0.531E+00 -.585E+01   0.117E+02 -.126E+01 0.509E+01   0.184E+01 0.153E+01 0.109E+01   -.926E-06 -.788E-06 0.175E-05
   -.357E+01 0.779E+01 0.587E+01   0.366E+01 -.687E+01 -.526E+01   0.115E+00 -.216E+01 -.122E+01   -.356E-06 -.223E-05 -.108E-05
   -.179E+00 -.141E+01 0.131E+01   0.372E+00 0.171E+01 -.131E+01   -.195E+00 -.239E+00 -.265E+00   -.238E-05 0.553E-06 0.234E-05
   -.457E+00 -.101E+02 0.115E+02   -.157E+00 0.944E+01 -.103E+02   0.986E+00 0.200E+01 -.320E+01   0.764E-06 0.127E-05 -.989E-06
   -.135E+01 0.106E+01 0.566E+01   0.210E+01 -.876E+00 -.522E+01   -.868E+00 -.410E+00 -.308E-01   0.237E-05 0.140E-05 -.113E-05
   -.681E+01 -.496E+01 0.764E+01   0.574E+01 0.447E+01 -.609E+01   0.188E+01 0.121E+01 -.212E+01   0.325E-05 0.173E-06 0.232E-05
   0.498E+01 -.307E+01 0.109E+02   -.441E+01 0.287E+01 -.964E+01   -.106E+01 0.519E+00 -.369E+01   0.141E-05 -.237E-05 -.164E-05
 -----------------------------------------------------------------------------------------------
   0.169E+00 -.389E+00 0.366E+00   -.133E-12 -.210E-12 -.266E-12   -.169E+00 0.389E+00 -.366E+00   -.104E-05 -.742E-06 0.189E-06
 
 
 POSITION                                       TOTAL-FORCE (eV/Angst)
 -----------------------------------------------------------------------------------
     10.94666     10.89288     21.79025        -0.023649     -0.810197      2.189865
     21.81187     13.59054     13.57810         0.717789      1.331328      0.255443
     10.85939     16.25374      5.58471         1.555785      1.773807     -1.793316
     10.86945      8.22059     19.07603         1.880465     -1.990094      1.061752
     13.69622     21.69680     13.77304        -0.587155      1.039141     -1.417135
      2.87196      2.76826      5.46145        -1.996014     -1.660885      0.059853
     13.63540     16.31484      8.31520         0.550049      1.184873     -1.718715
      2.80153      8.22996     10.94833        -1.543722      0.566328      0.812769
      5.40452      0.06342      5.45360         0.532680      0.002617      1.124213
     16.26268     13.76869      8.15837         1.382775     -1.079258      1.493232
      5.51005      5.51364     11.01744        -0.633218      0.325175     -0.477695
     16.52074     19.07660     13.74262        -0.860877     -0.034202     -0.188275
     19.19373     21.77624     19.14846        -2.192716      1.785245      1.931608
     19.10197     13.70627     10.98998         0.081154     -0.918644     -0.783072
      8.28475      5.60053     13.70331         0.347811     -1.518160      1.916538
      8.38793      8.12398     16.23894        -2.275332      2.108499      3.559339
      2.80732     13.67660     10.89853        -0.993996     -0.115236      0.082658
      2.65897      5.31519      2.66507        -0.958855      1.364212      1.221083
      2.77560      8.22971      5.45566        -1.449995      0.128317      0.559411
     13.66985     11.01698     19.09211         1.044607     -2.568844      1.588948
      5.35899      2.62488      2.84271         0.809915      0.843132     -0.920658
      5.58951      5.50523      5.42018        -2.577292      0.562689      0.778812
      5.47321      8.26717      8.16078         1.015865     -2.247149      2.033578
      5.41722     11.09213     10.87923         0.912376     -2.140249      1.246792
      8.22246     13.64096     16.32374        -0.642251     -0.146804      0.810972
      8.15918      5.34538      8.16098        -0.091137      1.588795      0.069668
      8.18169      8.33119     11.00605        -1.018265     -1.670659     -0.853827
      8.34857     10.78505     13.74744        -2.368090     -0.692708     -0.966512
     11.10664     13.50810     19.22696        -1.921072      1.095079     -1.053218
     11.00044      5.51925     10.85679        -1.864552     -0.659766     -0.342979
     10.89249      8.23303     13.81430         1.845012      0.070630     -2.453021
     10.95060     10.95522     16.39514        -0.244302      0.585960      1.392762
      5.55394     16.41632     10.87203        -0.950780     -0.927643      0.102810
      5.41367      8.16890      2.81689        -0.116911     -0.418962      0.042559
     16.42264     10.97412     16.39568        -0.660191     -0.210661      0.358979
     16.37442     13.65099     19.05837         0.222602      0.519639      0.904778
      8.12698     16.33137     13.58379        -0.081130      0.284579      0.022790
      8.11294      8.36786      5.59968         0.108587     -1.938511     -1.958368
      8.30396     10.85369      8.27464        -0.339717      1.066836     -0.759574
      8.25791     13.66620     10.94017        -0.297778     -0.936056      1.133954
     10.94455     16.23688     16.46627        -0.239420      0.442848     -1.753268
     10.95557      8.19007      8.17791        -0.114105     -2.299002     -0.771921
     11.06870     11.02222     10.97284        -2.166378     -0.834763     -0.252246
     10.87342     13.75190     13.57088        -1.085672      0.205376      2.493195
     13.66697      5.48025      8.23156        -0.421250     -0.911829     -1.518443
     13.65959      8.23217     11.02584        -0.327966      0.672236     -0.609150
     13.58932     10.90745     13.78396        -0.760678      1.390973     -2.381739
     13.65738     13.62671     16.51818        -0.420887     -0.894759     -3.319002
     19.01719      8.28825     11.08673         1.898118     -1.281383     -0.928311
      8.23977     10.82318      2.87633         0.536928      1.831490     -0.798363
     19.04927     13.65378     16.46026         1.347429      1.520418      0.270329
     19.18750     16.67953     19.24243         0.213001     -3.295341      0.414710
     10.95965      8.22647      2.92280        -0.964147     -1.561617     -1.707706
     11.13159     10.84973      5.52565        -2.450509      2.048917      1.186077
     11.08598     13.85062      8.21754        -2.431503     -1.174815      0.271501
     11.00333     16.38410     10.90205        -1.590713      0.358760      0.362220
     13.55962      8.15186      5.52593         2.407780      1.677392     -1.360543
     13.62898     11.04347      8.11360         0.028241     -2.468306      1.113605
     13.75515     13.54318     10.89104        -0.666532      1.147859      0.817740
     13.63696     16.38263     13.60937         0.699859      1.362298     -0.280084
     16.37628     19.05092     19.09064        -0.643839     -0.235794      1.282242
     16.33023     10.78050     10.91337         0.165825      1.338953      0.876097
     16.46152     13.70598     13.81607         0.154201      0.037275     -2.149774
     16.41335     16.35848     16.44349        -0.422549      0.491791      0.779380
      1.42839      1.25631      1.37680        -0.109633      0.060632     -0.332797
      1.40318      4.03416      4.25658        -1.013244     -0.050417     -1.855668
      1.34309      6.77293      6.78027         0.197215      0.296068      0.682191
      1.24748      9.49537      9.55309         1.807174      0.405023     -0.348705
      3.94233      1.25040      4.10395         1.098512      0.640123      0.262477
      4.07517      4.04242      6.75932         0.884331      2.502042      0.695933
      3.98305      6.90223      9.58762         1.946253     -0.792906     -0.450731
      4.15886      9.58542     12.40805         0.806836     -0.568990     -1.060783
      6.83298      1.48789      6.89788        -0.009957     -0.986356     -0.320538
      6.80161      4.14328      9.62114        -0.477370     -0.664711     -0.396164
      6.95060      6.72400     12.41188        -1.200176      2.159218     -1.490765
      6.73355      9.51374     15.21668         1.647117      0.172905     -1.055647
      9.71423      1.33440      9.61313        -2.117535      0.495957     -0.188337
      9.39623      4.18644     12.31076         2.285971     -0.257740     -0.396758
      9.71127      6.90163     15.07519         0.280031     -2.999842     -0.067123
      9.68501      9.66608     18.02724        -0.554890     -0.295963     -4.268526
      4.01291      4.14304      1.34710         2.215618     -0.908899     -0.166900
      3.88331      6.76082      4.16241         1.864061     -0.648935     -1.349480
      4.14645      9.39870      6.93689        -1.504406      3.237639     -2.006702
      4.15439     12.30869      9.55884        -1.133641      0.844995     -1.120429
      6.86427      4.15663      4.23007        -0.100827     -1.508996     -2.154605
      6.77947      6.88870      6.77680         0.736810     -0.311467      1.127961
      6.79892      9.61570      9.55341        -0.170848      0.220176      0.634964
      6.87574     12.19393     12.30752         0.347545      0.841884      0.955759
      9.49050      4.01456      6.77845         1.397785     -0.774668      1.217096
      9.47673      6.94673      9.52225         0.368563     -1.103726      0.162586
      9.61591      9.45631     12.27952         1.120617      1.680648      0.690146
      9.45418     12.20722     15.04251         1.881197      1.179181     -0.151301
     12.29295      4.06934      9.46456         0.514249      0.445453      1.307599
     12.31893      6.78321     12.19759        -0.224476      0.467570      1.946353
     12.26154      9.67932     15.02349        -0.017339     -1.715678      1.388256
     12.39997     12.28423     17.85691        -1.257923      0.031260     -2.000008
      6.82675      6.85417      1.29307        -0.978399     -0.525159      1.528353
      6.79096      9.62249      4.12437        -0.225168     -0.774019      0.420377
      6.84639     12.40009      6.84648        -0.076877     -2.360257      0.561458
      6.93012     14.86223      9.60963        -1.028368      2.230509     -1.420779
      9.50917      6.65827      4.03332         0.321356      1.277654      1.588740
      9.59328      9.39514      6.90001         0.633173      2.387698     -0.464371
      9.57667     12.35844      9.62082         1.144153     -0.427732     -0.751799
      9.56841     15.05101     12.25197        -0.314163      0.602535     -0.395570
     12.37996      6.73488      6.63181        -1.623973     -0.777909      2.918151
     12.04286      9.50609      9.56045         3.250720      1.244177      0.599666
     12.09023     12.46995     12.33705         3.543085     -1.604654     -0.652610
     12.38681     15.05220     14.87393        -1.097991     -1.319681      2.181696
     14.85716      6.74294      9.65413         1.888673      1.056025     -0.152203
     14.99335      9.64239     12.47593         0.002497     -1.009176     -0.960575
     15.12141     12.16489     14.74995        -0.177066      0.947118      3.489811
     14.93899     14.91768     17.70348         1.514444      2.149290      1.398208
      9.51851      9.44195      1.44071         1.228317      1.525981      0.467826
      9.60042     12.54202      4.20634         0.184436     -3.039028     -0.203764
      9.59943     15.08583      6.90193        -2.273307     -0.686650      1.168569
      9.65221     17.83874      9.62932        -0.514443      0.885841      0.901265
     12.30514      9.59652      4.12956         0.540391     -1.246123      0.462658
     12.29742     12.41509      6.99409         0.540771     -0.130374     -2.457883
     12.27048     15.09252      9.60181         1.787540     -1.178961      1.054088
     12.22128     17.72195     12.23827         1.191662      1.506252      1.262130
     15.10809      9.56125      6.86962        -1.277042      0.323083     -0.484835
     15.03714     12.15324      9.49660         0.464621      0.807108      0.339558
     15.07902     15.08923     12.37202         0.202733     -1.248092     -0.611461
     15.01009     17.74592     15.07823        -0.001994      0.065492     -0.261324
     17.64504      9.35482      9.70735         0.371489      1.309504     -1.968242
     17.77989     12.23856     12.31215        -0.122186     -0.229087      0.411476
     17.76962     15.04935     15.14106         0.814821      0.717472     -0.573277
     17.85399     17.78853     17.87277        -0.485239      0.318509     -2.390043
 -----------------------------------------------------------------------------------
    total drift:                               -0.000012      0.000008      0.000011


--------------------------------------------------------------------------------------------------------



  FREE ENERGIE OF THE ION-ELECTRON SYSTEM (eV)
  ---------------------------------------------------
  free  energy   TOTEN  =      -676.62894861 eV

  energy  without entropy=     -676.62894861  energy(sigma->0) =     -676.62894861
 


--------------------------------------------------------------------------------------------------------


    POTLOK:  cpu time    1.0064: real time    1.0065


--------------------------------------------------------------------------------------------------------


     LOOP+:  cpu time 1652.9960: real time 1653.6564
    4ORBIT:  cpu time    0.0000: real time    0.0000

 total amount of memory used by VASP MPI-rank0   221701. kBytes
=======================================================================

   base      :      30000. kBytes
   nonl-proj :      10690. kBytes
   fftplans  :      66746. kBytes
   grid      :      26864. kBytes
   one-center:         24. kBytes
   wavefun   :      87377. kBytes
 
  
  
 General timing and accounting informations for this job:
 ========================================================
  
                  Total CPU time used (sec):     1676.966
                            User time (sec):     1675.926
                          System time (sec):        1.040
                         Elapsed time (sec):     1678.572
  
                   Maximum memory used (kb):      338060.
                   Average memory used (kb):           0.
  
                          Minor page faults:       230642
                          Major page faults:            0
                 Voluntary context switches:         1334
