<?xml version="1.0" encoding="ISO-8859-1"?>
<modeling>
 <generator>
  <i name="program" type="string">vasp </i>
  <i name="version" type="string">5.4.4.18Apr17-6-g9f103f2a35  </i>
  <i name="subversion" type="string">(build Nov 08 2017 09:05:29) complex            parallel </i>
  <i name="platform" type="string">Intel_17.33 </i>
  <i name="date" type="string">2020 07 18 </i>
  <i name="time" type="string">18:24:59 </i>
 </generator>
 <incar>
  <i type="string" name="SYSTEM">potpaw_PBE@./ARUN.APL1ZEROSTATE</i>
  <i type="string" name="PREC">accurate</i>
  <i type="string" name="ALGO">Normal</i>
  <i type="int" name="NSIM">     4</i>
  <i type="logical" name="ADDGRID"> T  </i>
  <i type="int" name="NELM">   120</i>
  <i type="int" name="NELMIN">     4</i>
  <i name="EDIFF">      0.00000001</i>
  <i type="int" name="NSW">     0</i>
  <i type="int" name="ISYM">     2</i>
  <i name="ENMAX">    500.00000000</i>
  <i type="logical" name="LREAL"> F  </i>
  <i type="logical" name="LPLANE"> T  </i>
  <i type="int" name="ISMEAR">     0</i>
  <i name="SIGMA">      0.01000000</i>
  <i type="logical" name="LWAVE"> F  </i>
  <i type="logical" name="LCHARG"> F  </i>
  <i type="logical" name="LELF"> F  </i>
  <i type="logical" name="LAECHG"> F  </i>
  <v type="int" name="KPOINT_BSE">    -1     0     0     0</v>
  <i type="int" name="NELM">   120</i>
 </incar>
 <structure name="primitive_cell" >
  <crystal>
   <varray name="basis" >
    <v>       0.00000000      10.93733369      10.93733369 </v>
    <v>      10.93733369       0.00000000      10.93733369 </v>
    <v>      10.93733369      10.93733369       0.00000000 </v>
   </varray>
   <i name="volume">   2616.76295363 </i>
   <varray name="rec_basis" >
    <v>      -0.04571498       0.04571498       0.04571498 </v>
    <v>       0.04571498      -0.04571498       0.04571498 </v>
    <v>       0.04571498       0.04571498      -0.04571498 </v>
   </varray>
  </crystal>
  <varray name="positions" >
   <v>      -0.00631786      -0.00140053       0.00225366 </v>
   <v>       0.05638015      -0.17745226       0.06562415 </v>
   <v>      -0.18622819       0.05966693       0.05438974 </v>
   <v>       0.05507375       0.07080708       0.05979061 </v>
   <v>       0.06236215       0.06936210      -0.19908494 </v>
   <v>      -0.01125728      -0.23082246       0.24630254 </v>
   <v>      -0.00656927      -0.24268818      -0.00243018 </v>
   <v>      -0.24903244      -0.00684720       0.00064088 </v>
   <v>       0.24488490      -0.00343936      -0.00230212 </v>
   <v>      -0.24848050      -0.00592833       0.25576257 </v>
   <v>      -0.25133688       0.25234267       0.00380141 </v>
   <v>       0.01635625      -0.00269708      -0.25856182 </v>
   <v>      -0.00488489       0.00133673       0.25533623 </v>
   <v>       0.25574236      -0.25092923      -0.00257851 </v>
   <v>       0.24959231       0.01339077      -0.26002903 </v>
   <v>      -0.00461911       0.26388738      -0.01164291 </v>
   <v>       0.00866811       0.25856305      -0.25652254 </v>
   <v>      -0.17675053      -0.17501967       0.06052013 </v>
   <v>      -0.18554906       0.06595719      -0.18345574 </v>
   <v>      -0.18896277      -0.17838095       0.31210958 </v>
   <v>      -0.18906485       0.30800980      -0.19061834 </v>
   <v>       0.05672964      -0.19138557       0.31532958 </v>
   <v>       0.30952780      -0.18382837      -0.19055712 </v>
   <v>      -0.19024428       0.06420843       0.31562762 </v>
   <v>       0.06495812       0.31260730      -0.18754869 </v>
   <v>      -0.18469085       0.31915834       0.06108564 </v>
   <v>       0.06478376      -0.17724139      -0.20947310 </v>
   <v>       0.32462043      -0.19904822       0.05814525 </v>
   <v>       0.32676799       0.05781779      -0.18005191 </v>
   <v>      -0.25028520      -0.25070810       0.25192079 </v>
   <v>      -0.24322733       0.23791532       0.25738046 </v>
   <v>      -0.25563138       0.25240532      -0.24637130 </v>
   <v>       0.24519841      -0.24738952      -0.25953809 </v>
   <v>       0.24574526      -0.25310965       0.25887912 </v>
   <v>       0.23971980       0.26549046      -0.24772966 </v>
   <v>      -0.42825200       0.30484734       0.05932293 </v>
   <v>      -0.44277334       0.07701337       0.30209599 </v>
   <v>       0.06455071       0.31067347       0.04977358 </v>
   <v>       0.07098581      -0.44031289       0.06505213 </v>
   <v>       0.06036589       0.05785938      -0.43368959 </v>
   <v>       0.05954405      -0.43979083       0.30750712 </v>
   <v>      -0.44181508       0.06173477       0.06106415 </v>
   <v>       0.06753140       0.05563380       0.31126642 </v>
   <v>       0.31830489      -0.43864422       0.06051529 </v>
   <v>       0.31798873       0.05910226      -0.43820525 </v>
   <v>       0.05405472       0.31471167      -0.44528890 </v>
   <v>       0.31486460       0.07431452       0.05397851 </v>
   <v>      -0.23498422      -0.00568097      -0.24000707 </v>
   <v>      -0.24627350      -0.24347015       0.49216349 </v>
   <v>       0.24326264       0.00040498       0.24270498 </v>
   <v>       0.49874001       0.00007097       0.25370219 </v>
   <v>      -0.49920404       0.24534376       0.25507126 </v>
   <v>       0.24444644      -0.49828842       0.24428184 </v>
   <v>      -0.49738031       0.25763902      -0.01095487 </v>
   <v>       0.00496471       0.25494404       0.23502818 </v>
   <v>      -0.25232929       0.49663387      -0.24980707 </v>
   <v>      -0.25324872      -0.00424512      -0.49864190 </v>
   <v>       0.00205010      -0.24943873       0.49900895 </v>
   <v>      -0.00605355       0.49853273       0.25324632 </v>
   <v>      -0.26970398      -0.24557037       0.01247881 </v>
   <v>      -0.00500081      -0.24954296      -0.25317475 </v>
   <v>      -0.00395346       0.24591911       0.49713043 </v>
   <v>       0.00540226       0.49983363      -0.26007821 </v>
   <v>      -0.49436839      -0.24242925      -0.25249476 </v>
   <v>       0.25472895       0.00281892       0.49215310 </v>
   <v>       0.26764316       0.24433571       0.49742977 </v>
   <v>       0.24492950       0.25441037       0.00817270 </v>
   <v>      -0.25491564      -0.48859724      -0.00091174 </v>
   <v>      -0.49626227      -0.25084432       0.00831838 </v>
   <v>      -0.49417425      -0.00086467      -0.25746125 </v>
   <v>       0.25894679       0.48697234      -0.00007637 </v>
   <v>      -0.18593927      -0.17995400      -0.18765599 </v>
   <v>      -0.43204388       0.30993688      -0.18804759 </v>
   <v>      -0.19166026      -0.18971141      -0.44441719 </v>
   <v>      -0.43124738      -0.19515539       0.31622764 </v>
   <v>      -0.43449699       0.30796486       0.31366002 </v>
   <v>      -0.18647618      -0.43818731       0.30258217 </v>
   <v>      -0.18926428       0.30946174      -0.43462223 </v>
   <v>       0.30229969      -0.43402600      -0.19112901 </v>
   <v>       0.30454748      -0.18932202       0.31564110 </v>
   <v>      -0.19424083       0.31951701       0.30913164 </v>
   <v>      -0.18563029      -0.43576767      -0.19186065 </v>
   <v>       0.32571827      -0.18504419      -0.44411464 </v>
   <v>      -0.43218350      -0.18347010      -0.19185458 </v>
   <v>       0.31965048      -0.44903172       0.31548854 </v>
   <v>       0.30637573       0.32449178      -0.44737818 </v>
   <v>       0.32511387       0.31435574      -0.19000278 </v>
   <v>      -0.00530603      -0.48918359       0.48984326 </v>
   <v>      -0.00641179       0.00044103      -0.49264490 </v>
   <v>      -0.49809265       0.00870241      -0.01582874 </v>
   <v>      -0.49955080      -0.00139246      -0.49708613 </v>
   <v>      -0.49617418      -0.49650177       0.00028577 </v>
   <v>       0.00514314       0.49347937       0.00065554 </v>
   <v>      -0.46086329      -0.19054952      -0.42690099 </v>
   <v>      -0.43928053      -0.18239530       0.07029626 </v>
   <v>       0.07039676      -0.18772037      -0.45389001 </v>
   <v>      -0.17727381      -0.43146615       0.04711430 </v>
   <v>      -0.43366741       0.06471094      -0.18703570 </v>
   <v>       0.06047124      -0.43238209      -0.18628612 </v>
   <v>      -0.19819035      -0.44188648      -0.42558782 </v>
   <v>      -0.44294996      -0.42223196       0.05772526 </v>
   <v>       0.04510821      -0.43876231      -0.42933867 </v>
   <v>      -0.43394662      -0.43488040      -0.18644554 </v>
   <v>      -0.43312598       0.05909980      -0.43313446 </v>
   <v>      -0.19807954       0.07668768      -0.44306751 </v>
   <v>      -0.49794971       0.24927945      -0.23568869 </v>
   <v>      -0.49005652      -0.24690255       0.24280224 </v>
   <v>      -0.49246805      -0.24726471       0.48973588 </v>
   <v>      -0.26015235      -0.48291968       0.24622894 </v>
   <v>      -0.24801786       0.48880260      -0.49464630 </v>
   <v>       0.48819368      -0.49242650      -0.24994093 </v>
   <v>      -0.49002450       0.49630712       0.25174468 </v>
   <v>      -0.25263015       0.25288975      -0.49786928 </v>
   <v>       0.25271664       0.48910960      -0.24301242 </v>
   <v>       0.25593176      -0.24783958       0.49673507 </v>
   <v>       0.24742798      -0.49972241      -0.49860995 </v>
   <v>       0.49483601       0.26171415       0.49751649 </v>
   <v>       0.32182941       0.05873940       0.29631187 </v>
   <v>       0.06959812       0.31715721       0.31044239 </v>
   <v>       0.31479493       0.30480798       0.31503892 </v>
   <v>       0.30750517       0.31049948       0.06209305 </v>
   <v>       0.24393039       0.25163655       0.25941228 </v>
   <v>      -0.25079439      -0.24577759      -0.25355002 </v>
   <v>      -0.41865279      -0.45337092      -0.44122005 </v>
   <v>      -0.43301610       0.31264767      -0.43705266 </v>
   <v>      -0.44593790      -0.43134571       0.31052766 </v>
   <v>       0.32108700      -0.44697583      -0.45194594 </v>
   <v>       0.49949826      -0.49625212      -0.49173677 </v>
  </varray>
 </structure>
 <varray name="primitive_index" >
  <v type="int" >        1 </v>
  <v type="int" >       77 </v>
  <v type="int" >       68 </v>
  <v type="int" >       65 </v>
  <v type="int" >      113 </v>
  <v type="int" >       29 </v>
  <v type="int" >       13 </v>
  <v type="int" >        4 </v>
  <v type="int" >        2 </v>
  <v type="int" >       20 </v>
  <v type="int" >        8 </v>
  <v type="int" >       49 </v>
  <v type="int" >       17 </v>
  <v type="int" >       14 </v>
  <v type="int" >       50 </v>
  <v type="int" >        5 </v>
  <v type="int" >       53 </v>
  <v type="int" >       80 </v>
  <v type="int" >      116 </v>
  <v type="int" >       96 </v>
  <v type="int" >      120 </v>
  <v type="int" >       93 </v>
  <v type="int" >      126 </v>
  <v type="int" >       84 </v>
  <v type="int" >      117 </v>
  <v type="int" >       72 </v>
  <v type="int" >      125 </v>
  <v type="int" >       78 </v>
  <v type="int" >      114 </v>
  <v type="int" >       32 </v>
  <v type="int" >       24 </v>
  <v type="int" >       56 </v>
  <v type="int" >       62 </v>
  <v type="int" >       30 </v>
  <v type="int" >       54 </v>
  <v type="int" >       71 </v>
  <v type="int" >       83 </v>
  <v type="int" >       69 </v>
  <v type="int" >       73 </v>
  <v type="int" >       97 </v>
  <v type="int" >       89 </v>
  <v type="int" >       67 </v>
  <v type="int" >       81 </v>
  <v type="int" >       74 </v>
  <v type="int" >       98 </v>
  <v type="int" >      101 </v>
  <v type="int" >       66 </v>
  <v type="int" >       52 </v>
  <v type="int" >       48 </v>
  <v type="int" >       18 </v>
  <v type="int" >       19 </v>
  <v type="int" >       23 </v>
  <v type="int" >       26 </v>
  <v type="int" >        7 </v>
  <v type="int" >       21 </v>
  <v type="int" >       60 </v>
  <v type="int" >       36 </v>
  <v type="int" >       45 </v>
  <v type="int" >       25 </v>
  <v type="int" >       16 </v>
  <v type="int" >       61 </v>
  <v type="int" >       37 </v>
  <v type="int" >       57 </v>
  <v type="int" >       63 </v>
  <v type="int" >       34 </v>
  <v type="int" >       38 </v>
  <v type="int" >        6 </v>
  <v type="int" >       12 </v>
  <v type="int" >       15 </v>
  <v type="int" >       51 </v>
  <v type="int" >       10 </v>
  <v type="int" >      128 </v>
  <v type="int" >      119 </v>
  <v type="int" >      112 </v>
  <v type="int" >       95 </v>
  <v type="int" >       87 </v>
  <v type="int" >       92 </v>
  <v type="int" >      104 </v>
  <v type="int" >      122 </v>
  <v type="int" >       94 </v>
  <v type="int" >       88 </v>
  <v type="int" >      124 </v>
  <v type="int" >      110 </v>
  <v type="int" >      127 </v>
  <v type="int" >       90 </v>
  <v type="int" >      102 </v>
  <v type="int" >      118 </v>
  <v type="int" >       41 </v>
  <v type="int" >       33 </v>
  <v type="int" >        3 </v>
  <v type="int" >       35 </v>
  <v type="int" >       11 </v>
  <v type="int" >        9 </v>
  <v type="int" >      111 </v>
  <v type="int" >       79 </v>
  <v type="int" >      109 </v>
  <v type="int" >       76 </v>
  <v type="int" >      115 </v>
  <v type="int" >      121 </v>
  <v type="int" >      108 </v>
  <v type="int" >       75 </v>
  <v type="int" >      105 </v>
  <v type="int" >      123 </v>
  <v type="int" >       99 </v>
  <v type="int" >      100 </v>
  <v type="int" >       55 </v>
  <v type="int" >       31 </v>
  <v type="int" >       47 </v>
  <v type="int" >       28 </v>
  <v type="int" >       44 </v>
  <v type="int" >       59 </v>
  <v type="int" >       27 </v>
  <v type="int" >       40 </v>
  <v type="int" >       58 </v>
  <v type="int" >       46 </v>
  <v type="int" >       42 </v>
  <v type="int" >       39 </v>
  <v type="int" >       82 </v>
  <v type="int" >       85 </v>
  <v type="int" >       86 </v>
  <v type="int" >       70 </v>
  <v type="int" >       22 </v>
  <v type="int" >       64 </v>
  <v type="int" >      107 </v>
  <v type="int" >      103 </v>
  <v type="int" >       91 </v>
  <v type="int" >      106 </v>
  <v type="int" >       43 </v>
 </varray>
 <kpoints>
  <generation param="Gamma">
   <v type="int" name="divisions">       2        2        2 </v>
   <v name="usershift">      0.00000000       0.00000000       0.00000000 </v>
   <v name="genvec1">      0.50000000       0.00000000       0.00000000 </v>
   <v name="genvec2">      0.00000000       0.50000000       0.00000000 </v>
   <v name="genvec3">      0.00000000       0.00000000       0.50000000 </v>
   <v name="shift">      0.00000000       0.00000000       0.00000000 </v>
  </generation>
  <varray name="kpointlist" >
   <v>       0.00000000       0.00000000       0.00000000 </v>
   <v>       0.50000000       0.00000000       0.00000000 </v>
   <v>       0.00000000       0.50000000       0.00000000 </v>
   <v>       0.50000000       0.50000000       0.00000000 </v>
   <v>       0.00000000       0.00000000       0.50000000 </v>
   <v>       0.50000000       0.00000000       0.50000000 </v>
   <v>       0.00000000       0.50000000       0.50000000 </v>
   <v>       0.50000000       0.50000000       0.50000000 </v>
  </varray>
  <varray name="weights" >
   <v>       0.12500000 </v>
   <v>       0.12500000 </v>
   <v>       0.12500000 </v>
   <v>       0.12500000 </v>
   <v>       0.12500000 </v>
   <v>       0.12500000 </v>
   <v>       0.12500000 </v>
   <v>       0.12500000 </v>
  </varray>
 </kpoints>
 <parameters>
  <separator name="general" >
   <i type="string" name="SYSTEM">potpaw_PBE@./ARUN.APL1ZEROSTATE</i>
   <i type="logical" name="LCOMPAT"> F  </i>
  </separator>
  <separator name="electronic" >
   <i type="string" name="PREC">accura</i>
   <i name="ENMAX">    500.00000000</i>
   <i name="ENAUG">    322.06900000</i>
   <i name="EDIFF">      0.00000001</i>
   <i type="int" name="IALGO">    38</i>
   <i type="int" name="IWAVPR">    10</i>
   <i type="int" name="NBANDS">   322</i>
   <i name="NELECT">    512.00000000</i>
   <i type="int" name="TURBO">     0</i>
   <i type="int" name="IRESTART">     0</i>
   <i type="int" name="NREBOOT">     0</i>
   <i type="int" name="NMIN">     0</i>
   <i name="EREF">      0.00000000</i>
   <separator name="electronic smearing" >
    <i type="int" name="ISMEAR">     0</i>
    <i name="SIGMA">      0.01000000</i>
    <i name="KSPACING">      0.50000000</i>
    <i type="logical" name="KGAMMA"> T  </i>
   </separator>
   <separator name="electronic projectors" >
    <i type="logical" name="LREAL"> F  </i>
    <v name="ROPT">      0.00000000</v>
    <i type="int" name="LMAXPAW">  -100</i>
    <i type="int" name="LMAXMIX">     2</i>
    <i type="logical" name="NLSPLINE"> F  </i>
   </separator>
   <separator name="electronic startup" >
    <i type="int" name="ISTART">     0</i>
    <i type="int" name="ICHARG">     2</i>
    <i type="int" name="INIWAV">     1</i>
   </separator>
   <separator name="electronic spin" >
    <i type="int" name="ISPIN">     1</i>
    <i type="logical" name="LNONCOLLINEAR"> F  </i>
    <v name="MAGMOM">      1.00000000      1.00000000      1.00000000      1.00000000      1.00000000      1.00000000      1.00000000      1.00000000      1.00000000      1.00000000      1.00000000      1.00000000      1.00000000      1.00000000      1.00000000      1.00000000      1.00000000      1.00000000      1.00000000      1.00000000
      1.00000000      1.00000000      1.00000000      1.00000000      1.00000000      1.00000000      1.00000000      1.00000000      1.00000000      1.00000000      1.00000000      1.00000000      1.00000000      1.00000000      1.00000000      1.00000000      1.00000000      1.00000000      1.00000000      1.00000000
      1.00000000      1.00000000      1.00000000      1.00000000      1.00000000      1.00000000      1.00000000      1.00000000      1.00000000      1.00000000      1.00000000      1.00000000      1.00000000      1.00000000      1.00000000      1.00000000      1.00000000      1.00000000      1.00000000      1.00000000
      1.00000000      1.00000000      1.00000000      1.00000000      1.00000000      1.00000000      1.00000000      1.00000000      1.00000000      1.00000000      1.00000000      1.00000000      1.00000000      1.00000000      1.00000000      1.00000000      1.00000000      1.00000000      1.00000000      1.00000000
      1.00000000      1.00000000      1.00000000      1.00000000      1.00000000      1.00000000      1.00000000      1.00000000      1.00000000      1.00000000      1.00000000      1.00000000      1.00000000      1.00000000      1.00000000      1.00000000      1.00000000      1.00000000      1.00000000      1.00000000
      1.00000000      1.00000000      1.00000000      1.00000000      1.00000000      1.00000000      1.00000000      1.00000000      1.00000000      1.00000000      1.00000000      1.00000000      1.00000000      1.00000000      1.00000000      1.00000000      1.00000000      1.00000000      1.00000000      1.00000000
      1.00000000      1.00000000      1.00000000      1.00000000      1.00000000      1.00000000      1.00000000      1.00000000</v>
    <i name="NUPDOWN">     -1.00000000</i>
    <i type="logical" name="LSORBIT"> F  </i>
    <v name="SAXIS">      0.00000000      0.00000000      1.00000000</v>
    <i type="logical" name="LSPIRAL"> F  </i>
    <v name="QSPIRAL">      0.00000000      0.00000000      0.00000000</v>
    <i type="logical" name="LZEROZ"> F  </i>
   </separator>
   <separator name="electronic exchange-correlation" >
    <i type="logical" name="LASPH"> F  </i>
    <i type="logical" name="LMETAGGA"> F  </i>
   </separator>
   <separator name="electronic convergence" >
    <i type="int" name="NELM">   120</i>
    <i type="int" name="NELMDL">    -5</i>
    <i type="int" name="NELMIN">     4</i>
    <i name="ENINI">    500.00000000</i>
    <separator name="electronic convergence detail" >
     <i type="logical" name="LDIAG"> T  </i>
     <i type="logical" name="LSUBROT"> F  </i>
     <i name="WEIMIN">      0.00000000</i>
     <i name="EBREAK">      0.00000000</i>
     <i name="DEPER">      0.30000000</i>
     <i type="int" name="NRMM">     4</i>
     <i name="TIME">      0.40000000</i>
    </separator>
   </separator>
   <separator name="electronic mixer" >
    <i name="AMIX">      0.40000000</i>
    <i name="BMIX">      1.00000000</i>
    <i name="AMIN">      0.10000000</i>
    <i name="AMIX_MAG">      1.60000000</i>
    <i name="BMIX_MAG">      1.00000000</i>
    <separator name="electronic mixer details" >
     <i type="int" name="IMIX">     4</i>
     <i type="logical" name="MIXFIRST"> F  </i>
     <i type="int" name="MAXMIX">   -45</i>
     <i name="WC">    100.00000000</i>
     <i type="int" name="INIMIX">     1</i>
     <i type="int" name="MIXPRE">     1</i>
     <i type="int" name="MREMOVE">     5</i>
    </separator>
   </separator>
   <separator name="electronic dipolcorrection" >
    <i type="logical" name="LDIPOL"> F  </i>
    <i type="logical" name="LMONO"> F  </i>
    <i type="int" name="IDIPOL">     0</i>
    <i name="EPSILON">      1.00000000</i>
    <v name="DIPOL">   -100.00000000   -100.00000000   -100.00000000</v>
    <i name="EFIELD">      0.00000000</i>
   </separator>
  </separator>
  <separator name="grids" >
   <i type="int" name="NGX">   120</i>
   <i type="int" name="NGY">   120</i>
   <i type="int" name="NGZ">   120</i>
   <i type="int" name="NGXF">   240</i>
   <i type="int" name="NGYF">   240</i>
   <i type="int" name="NGZF">   240</i>
   <i type="logical" name="ADDGRID"> T  </i>
  </separator>
  <separator name="ionic" >
   <i type="int" name="NSW">     0</i>
   <i type="int" name="IBRION">    -1</i>
   <i type="int" name="MDALGO">     0</i>
   <i type="int" name="ISIF">     2</i>
   <i name="PSTRESS">      0.00000000</i>
   <i name="EDIFFG">      0.00000010</i>
   <i type="int" name="NFREE">     0</i>
   <i name="POTIM">      0.50000000</i>
   <i name="SMASS">     -3.00000000</i>
   <i name="SCALEE">      1.00000000</i>
  </separator>
  <separator name="ionic md" >
   <i name="TEBEG">      0.00010000</i>
   <i name="TEEND">      0.00010000</i>
   <i type="int" name="NBLOCK">     1</i>
   <i type="int" name="KBLOCK">     1</i>
   <i type="int" name="NPACO">   256</i>
   <i name="APACO">     16.00000000</i>
  </separator>
  <separator name="symmetry" >
   <i type="int" name="ISYM">     2</i>
   <i name="SYMPREC">      0.00001000</i>
  </separator>
  <separator name="dos" >
   <i type="int" name="LORBIT">     0</i>
   <v name="RWIGS">     -1.00000000</v>
   <i type="int" name="NEDOS">   301</i>
   <i name="EMIN">     10.00000000</i>
   <i name="EMAX">    -10.00000000</i>
   <i name="EFERMI">      0.00000000</i>
  </separator>
  <separator name="writing" >
   <i type="int" name="NWRITE">     2</i>
   <i type="logical" name="LWAVE"> F  </i>
   <i type="logical" name="LDOWNSAMPLE"> F  </i>
   <i type="logical" name="LCHARG"> F  </i>
   <i type="logical" name="LPARD"> F  </i>
   <i type="logical" name="LVTOT"> F  </i>
   <i type="logical" name="LVHAR"> F  </i>
   <i type="logical" name="LELF"> F  </i>
   <i type="logical" name="LOPTICS"> F  </i>
   <v name="STM">      0.00000000      0.00000000      0.00000000      0.00000000      0.00000000      0.00000000      0.00000000</v>
  </separator>
  <separator name="performance" >
   <i type="int" name="NPAR">     2</i>
   <i type="int" name="NSIM">     4</i>
   <i type="int" name="NBLK">    -1</i>
   <i type="logical" name="LPLANE"> T  </i>
   <i type="logical" name="LSCALAPACK"> T  </i>
   <i type="logical" name="LSCAAWARE"> F  </i>
   <i type="logical" name="LSCALU"> F  </i>
   <i type="logical" name="LASYNC"> F  </i>
   <i type="logical" name="LORBITALREAL"> F  </i>
  </separator>
  <separator name="miscellaneous" >
   <i type="int" name="IDIOT">     3</i>
   <i type="int" name="ISPECIAL">     0</i>
   <i type="logical" name="LMUSIC"> F  </i>
   <v name="POMASS">     28.08500000</v>
   <v name="DARWINR">      0.00000000</v>
   <v name="DARWINV">      1.00000000</v>
   <i type="logical" name="LCORR"> T  </i>
  </separator>
  <i type="logical" name="GGA_COMPAT"> T  </i>
  <i type="logical" name="LBERRY"> F  </i>
  <i type="int" name="ICORELEVEL">     0</i>
  <i type="logical" name="LDAU"> F  </i>
  <i type="int" name="I_CONSTRAINED_M">     0</i>
  <separator name="electronic exchange-correlation" >
   <i type="string" name="GGA">--</i>
   <i type="int" name="VOSKOWN">     0</i>
   <i type="logical" name="LHFCALC"> F  </i>
   <i type="string" name="PRECFOCK"></i>
   <i type="logical" name="LSYMGRAD"> F  </i>
   <i type="logical" name="LHFONE"> F  </i>
   <i type="logical" name="LRHFCALC"> F  </i>
   <i type="logical" name="LTHOMAS"> F  </i>
   <i type="logical" name="LMODELHF"> F  </i>
   <i name="ENCUT4O">     -1.00000000</i>
   <i type="int" name="EXXOEP">     0</i>
   <i type="int" name="FOURORBIT">     0</i>
   <i name="AEXX">      0.00000000</i>
   <i name="HFALPHA">      0.00000000</i>
   <i name="MCALPHA">      0.00000000</i>
   <i name="ALDAX">      1.00000000</i>
   <i name="AGGAX">      1.00000000</i>
   <i name="ALDAC">      1.00000000</i>
   <i name="AGGAC">      1.00000000</i>
   <i type="int" name="NKREDX">     1</i>
   <i type="int" name="NKREDY">     1</i>
   <i type="int" name="NKREDZ">     1</i>
   <i type="logical" name="SHIFTRED"> F  </i>
   <i type="logical" name="ODDONLY"> F  </i>
   <i type="logical" name="EVENONLY"> F  </i>
   <i type="int" name="LMAXFOCK">     0</i>
   <i type="int" name="NMAXFOCKAE">     0</i>
   <i type="logical" name="LFOCKAEDFT"> F  </i>
   <i name="HFSCREEN">      0.00000000</i>
   <i name="HFSCREENC">      0.00000000</i>
   <i type="int" name="NBANDSGWLOW">     0</i>
  </separator>
  <separator name="vdW DFT" >
   <i type="logical" name="LUSE_VDW"> F  </i>
   <i name="Zab_VDW">     -0.84910000</i>
   <i name="PARAM1">      0.12340000</i>
   <i name="PARAM2">      1.00000000</i>
   <i name="PARAM3">      0.00000000</i>
  </separator>
  <separator name="model GW" >
   <i type="int" name="MODEL_GW">     0</i>
   <i name="MODEL_EPS0">     12.26607635</i>
   <i name="MODEL_ALPHA">      1.00000000</i>
  </separator>
  <separator name="linear response parameters" >
   <i type="logical" name="LEPSILON"> F  </i>
   <i type="logical" name="LRPA"> F  </i>
   <i type="logical" name="LNABLA"> F  </i>
   <i type="logical" name="LVEL"> F  </i>
   <i type="int" name="KINTER">     0</i>
   <i name="CSHIFT">      0.10000000</i>
   <i name="OMEGAMAX">     -1.00000000</i>
   <i name="DEG_THRESHOLD">      0.00200000</i>
   <i name="RTIME">     -0.10000000</i>
   <i name="WPLASMAI">      0.00000000</i>
   <v name="DFIELD">      0.00000000      0.00000000      0.00000000</v>
   <v name="WPLASMA">      0.00000000      0.00000000      0.00000000      0.00000000      0.00000000      0.00000000      0.00000000      0.00000000      0.00000000</v>
  </separator>
  <separator name="orbital magnetization" >
   <i type="logical" name="NUCIND"> F  </i>
   <v name="MAGPOS">      0.00000000      0.00000000      0.00000000</v>
   <i type="logical" name="LNICSALL"> T  </i>
   <i type="logical" name="ORBITALMAG"> F  </i>
   <i type="logical" name="LMAGBLOCH"> F  </i>
   <i type="logical" name="LCHIMAG"> F  </i>
   <i type="logical" name="LGAUGE"> T  </i>
   <i type="int" name="MAGATOM">     0</i>
   <v name="MAGDIPOL">      0.00000000      0.00000000      0.00000000</v>
   <v name="AVECCONST">      0.00000000      0.00000000      0.00000000</v>
  </separator>
  <separator name="response functions" >
   <i type="logical" name="LADDER"> F  </i>
   <i type="logical" name="LRPAFORCE"> F  </i>
   <i type="logical" name="LFXC"> F  </i>
   <i type="logical" name="LHARTREE"> T  </i>
   <i type="int" name="IBSE">     0</i>
   <v type="int" name="KPOINT">    -1     0     0     0</v>
   <i type="logical" name="LTCTE"> F  </i>
   <i type="logical" name="LTETE"> F  </i>
   <i type="logical" name="LTRIPLET"> F  </i>
   <i type="logical" name="LFXCEPS"> F  </i>
   <i type="logical" name="LFXHEG"> F  </i>
   <i type="int" name="NATURALO">     2</i>
   <i type="logical" name="L2ORDER"> F  </i>
   <i type="logical" name="LMP2LT"> F  </i>
   <i type="logical" name="LUSEW"> F  </i>
   <i name="ENCUTGW">     -2.00000000</i>
   <i name="ENCUTGWSOFT">     -2.00000000</i>
   <i name="ENCUTLF">     -1.00000000</i>
   <i type="int" name="LMAXMP2">    -1</i>
   <i name="SCISSOR">      0.00000000</i>
   <i type="int" name="NOMEGA">     0</i>
   <i type="int" name="NOMEGAR">     0</i>
   <i type="int" name="NBANDSGW">    -1</i>
   <i type="int" name="NBANDSO">    -1</i>
   <i type="int" name="NBANDSV">    -1</i>
   <i type="int" name="NELM">   120</i>
   <i type="int" name="NELMHF">     1</i>
   <i type="int" name="DIM">     3</i>
   <i type="int" name="ANTIRES">     0</i>
   <i name="OMEGAMAX">    -30.00000000</i>
   <i name="OMEGAMIN">    -30.00000000</i>
   <i name="OMEGATL">   -200.00000000</i>
   <i type="int" name="OMEGAGRID">   140</i>
   <i name="CSHIFT">     -0.10000000</i>
   <i type="logical" name="SELFENERGY"> F  </i>
   <i type="logical" name="LSPECTRAL"> F  </i>
   <i type="logical" name="LSPECTRALGW"> F  </i>
   <i type="logical" name="LSINGLES"> F  </i>
   <i type="logical" name="LFERMIGW"> F  </i>
   <i type="logical" name="ODDONLYGW"> F  </i>
   <i type="logical" name="EVENONLYGW"> F  </i>
   <i type="int" name="NKREDLFX">     1</i>
   <i type="int" name="NKREDLFY">     1</i>
   <i type="int" name="NKREDLFZ">     1</i>
   <i type="int" name="MAXMEM">  2800</i>
   <i type="int" name="TELESCOPE">     0</i>
   <i type="int" name="TAUPAR">     1</i>
   <i type="int" name="OMEGAPAR">    -1</i>
   <i name="LAMBDA">      1.00000000</i>
  </separator>
  <separator name="External order field" >
   <i name="OFIELD_KAPPA">      0.00000000</i>
   <v name="OFIELD_K">      0.00000000      0.00000000      0.00000000</v>
   <i name="OFIELD_Q6_NEAR">      0.00000000</i>
   <i name="OFIELD_Q6_FAR">      0.00000000</i>
   <i name="OFIELD_A">      0.00000000</i>
  </separator>
 </parameters>
 <atominfo>
  <atoms>     128 </atoms>
  <types>       1 </types>
  <array name="atoms" >
   <dimension dim="1">ion</dimension>
   <field type="string">element</field>
   <field type="int">atomtype</field>
   <set>
    <rc><c>Si</c><c>   1</c></rc>
    <rc><c>Si</c><c>   1</c></rc>
    <rc><c>Si</c><c>   1</c></rc>
    <rc><c>Si</c><c>   1</c></rc>
    <rc><c>Si</c><c>   1</c></rc>
    <rc><c>Si</c><c>   1</c></rc>
    <rc><c>Si</c><c>   1</c></rc>
    <rc><c>Si</c><c>   1</c></rc>
    <rc><c>Si</c><c>   1</c></rc>
    <rc><c>Si</c><c>   1</c></rc>
    <rc><c>Si</c><c>   1</c></rc>
    <rc><c>Si</c><c>   1</c></rc>
    <rc><c>Si</c><c>   1</c></rc>
    <rc><c>Si</c><c>   1</c></rc>
    <rc><c>Si</c><c>   1</c></rc>
    <rc><c>Si</c><c>   1</c></rc>
    <rc><c>Si</c><c>   1</c></rc>
    <rc><c>Si</c><c>   1</c></rc>
    <rc><c>Si</c><c>   1</c></rc>
    <rc><c>Si</c><c>   1</c></rc>
    <rc><c>Si</c><c>   1</c></rc>
    <rc><c>Si</c><c>   1</c></rc>
    <rc><c>Si</c><c>   1</c></rc>
    <rc><c>Si</c><c>   1</c></rc>
    <rc><c>Si</c><c>   1</c></rc>
    <rc><c>Si</c><c>   1</c></rc>
    <rc><c>Si</c><c>   1</c></rc>
    <rc><c>Si</c><c>   1</c></rc>
    <rc><c>Si</c><c>   1</c></rc>
    <rc><c>Si</c><c>   1</c></rc>
    <rc><c>Si</c><c>   1</c></rc>
    <rc><c>Si</c><c>   1</c></rc>
    <rc><c>Si</c><c>   1</c></rc>
    <rc><c>Si</c><c>   1</c></rc>
    <rc><c>Si</c><c>   1</c></rc>
    <rc><c>Si</c><c>   1</c></rc>
    <rc><c>Si</c><c>   1</c></rc>
    <rc><c>Si</c><c>   1</c></rc>
    <rc><c>Si</c><c>   1</c></rc>
    <rc><c>Si</c><c>   1</c></rc>
    <rc><c>Si</c><c>   1</c></rc>
    <rc><c>Si</c><c>   1</c></rc>
    <rc><c>Si</c><c>   1</c></rc>
    <rc><c>Si</c><c>   1</c></rc>
    <rc><c>Si</c><c>   1</c></rc>
    <rc><c>Si</c><c>   1</c></rc>
    <rc><c>Si</c><c>   1</c></rc>
    <rc><c>Si</c><c>   1</c></rc>
    <rc><c>Si</c><c>   1</c></rc>
    <rc><c>Si</c><c>   1</c></rc>
    <rc><c>Si</c><c>   1</c></rc>
    <rc><c>Si</c><c>   1</c></rc>
    <rc><c>Si</c><c>   1</c></rc>
    <rc><c>Si</c><c>   1</c></rc>
    <rc><c>Si</c><c>   1</c></rc>
    <rc><c>Si</c><c>   1</c></rc>
    <rc><c>Si</c><c>   1</c></rc>
    <rc><c>Si</c><c>   1</c></rc>
    <rc><c>Si</c><c>   1</c></rc>
    <rc><c>Si</c><c>   1</c></rc>
    <rc><c>Si</c><c>   1</c></rc>
    <rc><c>Si</c><c>   1</c></rc>
    <rc><c>Si</c><c>   1</c></rc>
    <rc><c>Si</c><c>   1</c></rc>
    <rc><c>Si</c><c>   1</c></rc>
    <rc><c>Si</c><c>   1</c></rc>
    <rc><c>Si</c><c>   1</c></rc>
    <rc><c>Si</c><c>   1</c></rc>
    <rc><c>Si</c><c>   1</c></rc>
    <rc><c>Si</c><c>   1</c></rc>
    <rc><c>Si</c><c>   1</c></rc>
    <rc><c>Si</c><c>   1</c></rc>
    <rc><c>Si</c><c>   1</c></rc>
    <rc><c>Si</c><c>   1</c></rc>
    <rc><c>Si</c><c>   1</c></rc>
    <rc><c>Si</c><c>   1</c></rc>
    <rc><c>Si</c><c>   1</c></rc>
    <rc><c>Si</c><c>   1</c></rc>
    <rc><c>Si</c><c>   1</c></rc>
    <rc><c>Si</c><c>   1</c></rc>
    <rc><c>Si</c><c>   1</c></rc>
    <rc><c>Si</c><c>   1</c></rc>
    <rc><c>Si</c><c>   1</c></rc>
    <rc><c>Si</c><c>   1</c></rc>
    <rc><c>Si</c><c>   1</c></rc>
    <rc><c>Si</c><c>   1</c></rc>
    <rc><c>Si</c><c>   1</c></rc>
    <rc><c>Si</c><c>   1</c></rc>
    <rc><c>Si</c><c>   1</c></rc>
    <rc><c>Si</c><c>   1</c></rc>
    <rc><c>Si</c><c>   1</c></rc>
    <rc><c>Si</c><c>   1</c></rc>
    <rc><c>Si</c><c>   1</c></rc>
    <rc><c>Si</c><c>   1</c></rc>
    <rc><c>Si</c><c>   1</c></rc>
    <rc><c>Si</c><c>   1</c></rc>
    <rc><c>Si</c><c>   1</c></rc>
    <rc><c>Si</c><c>   1</c></rc>
    <rc><c>Si</c><c>   1</c></rc>
    <rc><c>Si</c><c>   1</c></rc>
    <rc><c>Si</c><c>   1</c></rc>
    <rc><c>Si</c><c>   1</c></rc>
    <rc><c>Si</c><c>   1</c></rc>
    <rc><c>Si</c><c>   1</c></rc>
    <rc><c>Si</c><c>   1</c></rc>
    <rc><c>Si</c><c>   1</c></rc>
    <rc><c>Si</c><c>   1</c></rc>
    <rc><c>Si</c><c>   1</c></rc>
    <rc><c>Si</c><c>   1</c></rc>
    <rc><c>Si</c><c>   1</c></rc>
    <rc><c>Si</c><c>   1</c></rc>
    <rc><c>Si</c><c>   1</c></rc>
    <rc><c>Si</c><c>   1</c></rc>
    <rc><c>Si</c><c>   1</c></rc>
    <rc><c>Si</c><c>   1</c></rc>
    <rc><c>Si</c><c>   1</c></rc>
    <rc><c>Si</c><c>   1</c></rc>
    <rc><c>Si</c><c>   1</c></rc>
    <rc><c>Si</c><c>   1</c></rc>
    <rc><c>Si</c><c>   1</c></rc>
    <rc><c>Si</c><c>   1</c></rc>
    <rc><c>Si</c><c>   1</c></rc>
    <rc><c>Si</c><c>   1</c></rc>
    <rc><c>Si</c><c>   1</c></rc>
    <rc><c>Si</c><c>   1</c></rc>
    <rc><c>Si</c><c>   1</c></rc>
    <rc><c>Si</c><c>   1</c></rc>
    <rc><c>Si</c><c>   1</c></rc>
   </set>
  </array>
  <array name="atomtypes" >
   <dimension dim="1">type</dimension>
   <field type="int">atomspertype</field>
   <field type="string">element</field>
   <field>mass</field>
   <field>valence</field>
   <field type="string">pseudopotential</field>
   <set>
    <rc><c> 128</c><c>Si</c><c>     28.08500000</c><c>      4.00000000</c><c> PAW_PBE Si 05Jan2001                   </c></rc>
   </set>
  </array>
 </atominfo>
 <structure name="initialpos" >
  <crystal>
   <varray name="basis" >
    <v>       0.00000000      10.93733369      10.93733369 </v>
    <v>      10.93733369       0.00000000      10.93733369 </v>
    <v>      10.93733369      10.93733369       0.00000000 </v>
   </varray>
   <i name="volume">   2616.76295363 </i>
   <varray name="rec_basis" >
    <v>      -0.04571498       0.04571498       0.04571498 </v>
    <v>       0.04571498      -0.04571498       0.04571498 </v>
    <v>       0.04571498       0.04571498      -0.04571498 </v>
   </varray>
  </crystal>
  <varray name="positions" >
   <v>       0.99368214       0.99859947       0.00225366 </v>
   <v>       0.24488490       0.99656064       0.99769788 </v>
   <v>       0.50190735       0.00870241       0.98417126 </v>
   <v>       0.75096756       0.99315280       0.00064088 </v>
   <v>       0.99538089       0.26388738       0.98835709 </v>
   <v>       0.24492950       0.25441037       0.00817270 </v>
   <v>       0.50261969       0.25763902       0.98904513 </v>
   <v>       0.74866312       0.25234267       0.00380141 </v>
   <v>       0.00514314       0.49347937       0.00065554 </v>
   <v>       0.25894679       0.48697234       0.99992363 </v>
   <v>       0.50382582       0.50349823       0.00028577 </v>
   <v>       0.74508436       0.51140276       0.99908826 </v>
   <v>       0.99343073       0.75731182       0.99756982 </v>
   <v>       0.25574236       0.74907077       0.99742149 </v>
   <v>       0.50373773       0.74915568       0.00831838 </v>
   <v>       0.73029602       0.75442963       0.01247881 </v>
   <v>       0.99511511       0.00133673       0.25533623 </v>
   <v>       0.24326264       0.00040498       0.24270498 </v>
   <v>       0.49874001       0.00007097       0.25370219 </v>
   <v>       0.75151950       0.99407167       0.25576257 </v>
   <v>       0.00496471       0.25494404       0.23502818 </v>
   <v>       0.24393039       0.25163655       0.25941228 </v>
   <v>       0.50079596       0.24534376       0.25507126 </v>
   <v>       0.75677267       0.23791532       0.25738046 </v>
   <v>       0.99394645       0.49853273       0.25324632 </v>
   <v>       0.24444644       0.50171158       0.24428184 </v>
   <v>       0.50997550       0.49630712       0.25174468 </v>
   <v>       0.73984765       0.51708032       0.24622894 </v>
   <v>       0.98874272       0.76917754       0.24630254 </v>
   <v>       0.24574526       0.74689035       0.25887912 </v>
   <v>       0.50994348       0.75309745       0.24280224 </v>
   <v>       0.74971480       0.74929190       0.25192079 </v>
   <v>       0.99358821       0.00044103       0.50735510 </v>
   <v>       0.25472895       0.00281892       0.49215310 </v>
   <v>       0.50044920       0.99860754       0.50291387 </v>
   <v>       0.74675128       0.99575488       0.50135810 </v>
   <v>       0.99604654       0.24591911       0.49713043 </v>
   <v>       0.26764316       0.24433571       0.49742977 </v>
   <v>       0.49483601       0.26171415       0.49751649 </v>
   <v>       0.74736985       0.25288975       0.50213072 </v>
   <v>       0.99469397       0.51081641       0.48984326 </v>
   <v>       0.24742798       0.50027759       0.50139005 </v>
   <v>       0.49949826       0.50374788       0.50826323 </v>
   <v>       0.75198214       0.48880260       0.50535370 </v>
   <v>       0.00205010       0.75056127       0.49900895 </v>
   <v>       0.25593176       0.75216042       0.49673507 </v>
   <v>       0.50753195       0.75273529       0.48973588 </v>
   <v>       0.75372650       0.75652985       0.49216349 </v>
   <v>       0.01635625       0.99730292       0.74143818 </v>
   <v>       0.24959231       0.01339077       0.73997097 </v>
   <v>       0.50582575       0.99913533       0.74253875 </v>
   <v>       0.76501578       0.99431903       0.75999293 </v>
   <v>       0.00866811       0.25856305       0.74347746 </v>
   <v>       0.23971980       0.26549046       0.75227034 </v>
   <v>       0.50205029       0.24927945       0.76431131 </v>
   <v>       0.74436862       0.25240532       0.75362870 </v>
   <v>       0.00540226       0.49983363       0.73992179 </v>
   <v>       0.25271664       0.48910960       0.75698758 </v>
   <v>       0.48819368       0.50757350       0.75005907 </v>
   <v>       0.74767071       0.49663387       0.75019293 </v>
   <v>       0.99499919       0.75045704       0.74682525 </v>
   <v>       0.24519841       0.75261048       0.74046191 </v>
   <v>       0.50563161       0.75757075       0.74750524 </v>
   <v>       0.74920561       0.75422241       0.74644998 </v>
   <v>       0.05507375       0.07080708       0.05979061 </v>
   <v>       0.31486460       0.07431452       0.05397851 </v>
   <v>       0.55818492       0.06173477       0.06106415 </v>
   <v>       0.81377181       0.05966693       0.05438974 </v>
   <v>       0.06455071       0.31067347       0.04977358 </v>
   <v>       0.30750517       0.31049948       0.06209305 </v>
   <v>       0.57174800       0.30484734       0.05932293 </v>
   <v>       0.81530915       0.31915834       0.06108564 </v>
   <v>       0.07098581       0.55968711       0.06505213 </v>
   <v>       0.31830489       0.56135578       0.06051529 </v>
   <v>       0.55705004       0.57776804       0.05772526 </v>
   <v>       0.82272619       0.56853385       0.04711430 </v>
   <v>       0.05638015       0.82254774       0.06562415 </v>
   <v>       0.32462043       0.80095178       0.05814525 </v>
   <v>       0.56071947       0.81760470       0.07029626 </v>
   <v>       0.82324947       0.82498033       0.06052013 </v>
   <v>       0.06753140       0.05563380       0.31126642 </v>
   <v>       0.32182941       0.05873940       0.29631187 </v>
   <v>       0.55722666       0.07701337       0.30209599 </v>
   <v>       0.80975572       0.06420843       0.31562762 </v>
   <v>       0.06959812       0.31715721       0.31044239 </v>
   <v>       0.31479493       0.30480798       0.31503892 </v>
   <v>       0.56550301       0.30796486       0.31366002 </v>
   <v>       0.80575917       0.31951701       0.30913164 </v>
   <v>       0.05954405       0.56020917       0.30750712 </v>
   <v>       0.31965048       0.55096828       0.31548854 </v>
   <v>       0.55406210       0.56865429       0.31052766 </v>
   <v>       0.81352382       0.56181269       0.30258217 </v>
   <v>       0.05672964       0.80861443       0.31532958 </v>
   <v>       0.30454748       0.81067798       0.31564110 </v>
   <v>       0.56875262       0.80484461       0.31622764 </v>
   <v>       0.81103723       0.82161905       0.31210958 </v>
   <v>       0.06036589       0.05785938       0.56631041 </v>
   <v>       0.31798873       0.05910226       0.56179475 </v>
   <v>       0.56687402       0.05909980       0.56686554 </v>
   <v>       0.80192046       0.07668768       0.55693249 </v>
   <v>       0.05405472       0.31471167       0.55471110 </v>
   <v>       0.30637573       0.32449178       0.55262182 </v>
   <v>       0.56698390       0.31264767       0.56294734 </v>
   <v>       0.81073572       0.30946174       0.56537777 </v>
   <v>       0.04510821       0.56123769       0.57066133 </v>
   <v>       0.32108700       0.55302417       0.54805406 </v>
   <v>       0.58134721       0.54662908       0.55877995 </v>
   <v>       0.80180965       0.55811352       0.57441218 </v>
   <v>       0.07039676       0.81227963       0.54610999 </v>
   <v>       0.32571827       0.81495581       0.55588536 </v>
   <v>       0.53913671       0.80945048       0.57309901 </v>
   <v>       0.80833974       0.81028859       0.55558281 </v>
   <v>       0.06236215       0.06936210       0.80091506 </v>
   <v>       0.32676799       0.05781779       0.81994809 </v>
   <v>       0.56633259       0.06471094       0.81296430 </v>
   <v>       0.81445094       0.06595719       0.81654426 </v>
   <v>       0.06495812       0.31260730       0.81245131 </v>
   <v>       0.32511387       0.31435574       0.80999722 </v>
   <v>       0.56795612       0.30993688       0.81195241 </v>
   <v>       0.81093515       0.30800980       0.80938166 </v>
   <v>       0.06047124       0.56761791       0.81371388 </v>
   <v>       0.30229969       0.56597400       0.80887099 </v>
   <v>       0.56605338       0.56511960       0.81355446 </v>
   <v>       0.81436971       0.56423233       0.80813935 </v>
   <v>       0.06478376       0.82275861       0.79052690 </v>
   <v>       0.30952780       0.81617163       0.80944288 </v>
   <v>       0.56781650       0.81652990       0.80814542 </v>
   <v>       0.81406073       0.82004600       0.81234401 </v>
  </varray>
 </structure>
 <calculation>
  <scstep>
   <time name="dav">   69.94   69.97</time>
   <time name="total">   70.95   70.98</time>
   <energy>
    <i name="alphaZ">    210.77028614 </i>
    <i name="ewald"> -14463.87024751 </i>
    <i name="hartreedc">   -758.87263388 </i>
    <i name="XCdc">  -1195.21448807 </i>
    <i name="pawpsdc">   4221.13331941 </i>
    <i name="pawaedc">  -1969.18571412 </i>
    <i name="eentropy">     -0.00099024 </i>
    <i name="bandstr">   2149.78849236 </i>
    <i name="atom">  13192.48085998 </i>
    <i name="e_fr_energy">   1387.02888409 </i>
    <i name="e_wo_entrp">   1387.02987433 </i>
    <i name="e_0_energy">   1387.02937921 </i>
   </energy>
  </scstep>
  <scstep>
   <time name="dav">   79.81   79.84</time>
   <time name="total">   79.81   79.84</time>
   <energy>
    <i name="e_fr_energy">   -534.89993437 </i>
    <i name="e_wo_entrp">   -534.89992699 </i>
    <i name="e_0_energy">   -534.89993068 </i>
   </energy>
  </scstep>
  <scstep>
   <time name="dav">   81.60   81.63</time>
   <time name="total">   81.60   81.63</time>
   <energy>
    <i name="e_fr_energy">   -684.42174192 </i>
    <i name="e_wo_entrp">   -684.42174192 </i>
    <i name="e_0_energy">   -684.42174192 </i>
   </energy>
  </scstep>
  <scstep>
   <time name="dav">   80.68   80.70</time>
   <time name="total">   80.68   80.70</time>
   <energy>
    <i name="e_fr_energy">   -688.64034513 </i>
    <i name="e_wo_entrp">   -688.64034513 </i>
    <i name="e_0_energy">   -688.64034513 </i>
   </energy>
  </scstep>
  <scstep>
   <time name="dav">   81.65   81.67</time>
   <time name="total">   84.92   84.95</time>
   <energy>
    <i name="e_fr_energy">   -688.78844707 </i>
    <i name="e_wo_entrp">   -688.78844707 </i>
    <i name="e_0_energy">   -688.78844707 </i>
   </energy>
  </scstep>
  <scstep>
   <time name="dav">   77.76   77.80</time>
   <time name="total">   82.06   82.10</time>
   <energy>
    <i name="e_fr_energy">   -680.10321844 </i>
    <i name="e_wo_entrp">   -680.10321844 </i>
    <i name="e_0_energy">   -680.10321844 </i>
   </energy>
  </scstep>
  <scstep>
   <time name="dav">   76.87   76.90</time>
   <time name="total">   81.15   81.18</time>
   <energy>
    <i name="e_fr_energy">   -676.55188603 </i>
    <i name="e_wo_entrp">   -676.55188603 </i>
    <i name="e_0_energy">   -676.55188603 </i>
   </energy>
  </scstep>
  <scstep>
   <time name="dav">   76.43   76.44</time>
   <time name="total">   80.67   80.69</time>
   <energy>
    <i name="e_fr_energy">   -676.60072992 </i>
    <i name="e_wo_entrp">   -676.60072992 </i>
    <i name="e_0_energy">   -676.60072992 </i>
   </energy>
  </scstep>
  <scstep>
   <time name="dav">   79.17   79.21</time>
   <time name="total">   83.41   83.45</time>
   <energy>
    <i name="e_fr_energy">   -676.62472406 </i>
    <i name="e_wo_entrp">   -676.62472406 </i>
    <i name="e_0_energy">   -676.62472406 </i>
   </energy>
  </scstep>
  <scstep>
   <time name="dav">   79.10   79.13</time>
   <time name="total">   83.34   83.38</time>
   <energy>
    <i name="e_fr_energy">   -676.62724876 </i>
    <i name="e_wo_entrp">   -676.62724876 </i>
    <i name="e_0_energy">   -676.62724876 </i>
   </energy>
  </scstep>
  <scstep>
   <time name="dav">   75.98   76.01</time>
   <time name="total">   80.19   80.22</time>
   <energy>
    <i name="e_fr_energy">   -676.62884976 </i>
    <i name="e_wo_entrp">   -676.62884976 </i>
    <i name="e_0_energy">   -676.62884976 </i>
   </energy>
  </scstep>
  <scstep>
   <time name="dav">   79.57   79.60</time>
   <time name="total">   83.80   83.83</time>
   <energy>
    <i name="e_fr_energy">   -676.62890785 </i>
    <i name="e_wo_entrp">   -676.62890785 </i>
    <i name="e_0_energy">   -676.62890785 </i>
   </energy>
  </scstep>
  <scstep>
   <time name="dav">   76.66   76.69</time>
   <time name="total">   80.88   80.91</time>
   <energy>
    <i name="e_fr_energy">   -676.62894203 </i>
    <i name="e_wo_entrp">   -676.62894203 </i>
    <i name="e_0_energy">   -676.62894203 </i>
   </energy>
  </scstep>
  <scstep>
   <time name="dav">   79.98   80.00</time>
   <time name="total">   84.15   84.17</time>
   <energy>
    <i name="e_fr_energy">   -676.62894451 </i>
    <i name="e_wo_entrp">   -676.62894451 </i>
    <i name="e_0_energy">   -676.62894451 </i>
   </energy>
  </scstep>
  <scstep>
   <time name="dav">   79.03   79.07</time>
   <time name="total">   83.19   83.23</time>
   <energy>
    <i name="e_fr_energy">   -676.62894934 </i>
    <i name="e_wo_entrp">   -676.62894934 </i>
    <i name="e_0_energy">   -676.62894934 </i>
   </energy>
  </scstep>
  <scstep>
   <time name="dav">   79.17   79.19</time>
   <time name="total">   83.48   83.51</time>
   <energy>
    <i name="e_fr_energy">   -676.62894867 </i>
    <i name="e_wo_entrp">   -676.62894867 </i>
    <i name="e_0_energy">   -676.62894867 </i>
   </energy>
  </scstep>
  <scstep>
   <time name="dav">   65.57   65.60</time>
   <time name="total">   69.81   69.85</time>
   <energy>
    <i name="e_fr_energy">   -676.62894849 </i>
    <i name="e_wo_entrp">   -676.62894849 </i>
    <i name="e_0_energy">   -676.62894849 </i>
   </energy>
  </scstep>
  <scstep>
   <time name="dav">   51.54   51.56</time>
   <time name="total">   55.79   55.82</time>
   <energy>
    <i name="e_fr_energy">   -676.62894862 </i>
    <i name="e_wo_entrp">   -676.62894862 </i>
    <i name="e_0_energy">   -676.62894862 </i>
   </energy>
  </scstep>
  <scstep>
   <time name="dav">   50.53   50.56</time>
   <time name="total">   54.77   54.80</time>
   <energy>
    <i name="e_fr_energy">   -676.62894860 </i>
    <i name="e_wo_entrp">   -676.62894860 </i>
    <i name="e_0_energy">   -676.62894860 </i>
   </energy>
  </scstep>
  <scstep>
   <time name="dav">   49.98   50.00</time>
   <time name="total">   50.99   51.01</time>
   <energy>
    <i name="alphaZ">    210.77028614 </i>
    <i name="ewald"> -14463.87024751 </i>
    <i name="hartreedc">  -1004.76918940 </i>
    <i name="XCdc">  -1155.70962810 </i>
    <i name="pawpsdc">   4736.12986837 </i>
    <i name="pawaedc">  -2497.99885882 </i>
    <i name="eentropy">     -0.00000000 </i>
    <i name="bandstr">    306.33796073 </i>
    <i name="atom">  13192.48085998 </i>
    <i name="e_fr_energy">   -676.62894861 </i>
    <i name="e_wo_entrp">   -676.62894861 </i>
    <i name="e_0_energy">   -676.62894861 </i>
   </energy>
  </scstep>
  <structure>
   <crystal>
    <varray name="basis" >
     <v>       0.00000000      10.93733369      10.93733369 </v>
     <v>      10.93733369       0.00000000      10.93733369 </v>
     <v>      10.93733369      10.93733369       0.00000000 </v>
    </varray>
    <i name="volume">   2616.76295363 </i>
    <varray name="rec_basis" >
     <v>      -0.04571498       0.04571498       0.04571498 </v>
     <v>       0.04571498      -0.04571498       0.04571498 </v>
     <v>       0.04571498       0.04571498      -0.04571498 </v>
    </varray>
   </crystal>
   <varray name="positions" >
    <v>       0.99368214       0.99859947       0.00225366 </v>
    <v>       0.24488490       0.99656064       0.99769788 </v>
    <v>       0.50190735       0.00870241       0.98417126 </v>
    <v>       0.75096756       0.99315280       0.00064088 </v>
    <v>       0.99538089       0.26388738       0.98835709 </v>
    <v>       0.24492950       0.25441037       0.00817270 </v>
    <v>       0.50261969       0.25763902       0.98904513 </v>
    <v>       0.74866312       0.25234267       0.00380141 </v>
    <v>       0.00514314       0.49347937       0.00065554 </v>
    <v>       0.25894679       0.48697234       0.99992363 </v>
    <v>       0.50382582       0.50349823       0.00028577 </v>
    <v>       0.74508436       0.51140276       0.99908826 </v>
    <v>       0.99343073       0.75731182       0.99756982 </v>
    <v>       0.25574236       0.74907077       0.99742149 </v>
    <v>       0.50373773       0.74915568       0.00831838 </v>
    <v>       0.73029602       0.75442963       0.01247881 </v>
    <v>       0.99511511       0.00133673       0.25533623 </v>
    <v>       0.24326264       0.00040498       0.24270498 </v>
    <v>       0.49874001       0.00007097       0.25370219 </v>
    <v>       0.75151950       0.99407167       0.25576257 </v>
    <v>       0.00496471       0.25494404       0.23502818 </v>
    <v>       0.24393039       0.25163655       0.25941228 </v>
    <v>       0.50079596       0.24534376       0.25507126 </v>
    <v>       0.75677267       0.23791532       0.25738046 </v>
    <v>       0.99394645       0.49853273       0.25324632 </v>
    <v>       0.24444644       0.50171158       0.24428184 </v>
    <v>       0.50997550       0.49630712       0.25174468 </v>
    <v>       0.73984765       0.51708032       0.24622894 </v>
    <v>       0.98874272       0.76917754       0.24630254 </v>
    <v>       0.24574526       0.74689035       0.25887912 </v>
    <v>       0.50994348       0.75309745       0.24280224 </v>
    <v>       0.74971480       0.74929190       0.25192079 </v>
    <v>       0.99358821       0.00044103       0.50735510 </v>
    <v>       0.25472895       0.00281892       0.49215310 </v>
    <v>       0.50044920       0.99860754       0.50291387 </v>
    <v>       0.74675128       0.99575488       0.50135810 </v>
    <v>       0.99604654       0.24591911       0.49713043 </v>
    <v>       0.26764316       0.24433571       0.49742977 </v>
    <v>       0.49483601       0.26171415       0.49751649 </v>
    <v>       0.74736985       0.25288975       0.50213072 </v>
    <v>       0.99469397       0.51081641       0.48984326 </v>
    <v>       0.24742798       0.50027759       0.50139005 </v>
    <v>       0.49949826       0.50374788       0.50826323 </v>
    <v>       0.75198214       0.48880260       0.50535370 </v>
    <v>       0.00205010       0.75056127       0.49900895 </v>
    <v>       0.25593176       0.75216042       0.49673507 </v>
    <v>       0.50753195       0.75273529       0.48973588 </v>
    <v>       0.75372650       0.75652985       0.49216349 </v>
    <v>       0.01635625       0.99730292       0.74143818 </v>
    <v>       0.24959231       0.01339077       0.73997097 </v>
    <v>       0.50582575       0.99913533       0.74253875 </v>
    <v>       0.76501578       0.99431903       0.75999293 </v>
    <v>       0.00866811       0.25856305       0.74347746 </v>
    <v>       0.23971980       0.26549046       0.75227034 </v>
    <v>       0.50205029       0.24927945       0.76431131 </v>
    <v>       0.74436862       0.25240532       0.75362870 </v>
    <v>       0.00540226       0.49983363       0.73992179 </v>
    <v>       0.25271664       0.48910960       0.75698758 </v>
    <v>       0.48819368       0.50757350       0.75005907 </v>
    <v>       0.74767071       0.49663387       0.75019293 </v>
    <v>       0.99499919       0.75045704       0.74682525 </v>
    <v>       0.24519841       0.75261048       0.74046191 </v>
    <v>       0.50563161       0.75757075       0.74750524 </v>
    <v>       0.74920561       0.75422241       0.74644998 </v>
    <v>       0.05507375       0.07080708       0.05979061 </v>
    <v>       0.31486460       0.07431452       0.05397851 </v>
    <v>       0.55818492       0.06173477       0.06106415 </v>
    <v>       0.81377181       0.05966693       0.05438974 </v>
    <v>       0.06455071       0.31067347       0.04977358 </v>
    <v>       0.30750517       0.31049948       0.06209305 </v>
    <v>       0.57174800       0.30484734       0.05932293 </v>
    <v>       0.81530915       0.31915834       0.06108564 </v>
    <v>       0.07098581       0.55968711       0.06505213 </v>
    <v>       0.31830489       0.56135578       0.06051529 </v>
    <v>       0.55705004       0.57776804       0.05772526 </v>
    <v>       0.82272619       0.56853385       0.04711430 </v>
    <v>       0.05638015       0.82254774       0.06562415 </v>
    <v>       0.32462043       0.80095178       0.05814525 </v>
    <v>       0.56071947       0.81760470       0.07029626 </v>
    <v>       0.82324947       0.82498033       0.06052013 </v>
    <v>       0.06753140       0.05563380       0.31126642 </v>
    <v>       0.32182941       0.05873940       0.29631187 </v>
    <v>       0.55722666       0.07701337       0.30209599 </v>
    <v>       0.80975572       0.06420843       0.31562762 </v>
    <v>       0.06959812       0.31715721       0.31044239 </v>
    <v>       0.31479493       0.30480798       0.31503892 </v>
    <v>       0.56550301       0.30796486       0.31366002 </v>
    <v>       0.80575917       0.31951701       0.30913164 </v>
    <v>       0.05954405       0.56020917       0.30750712 </v>
    <v>       0.31965048       0.55096828       0.31548854 </v>
    <v>       0.55406210       0.56865429       0.31052766 </v>
    <v>       0.81352382       0.56181269       0.30258217 </v>
    <v>       0.05672964       0.80861443       0.31532958 </v>
    <v>       0.30454748       0.81067798       0.31564110 </v>
    <v>       0.56875262       0.80484461       0.31622764 </v>
    <v>       0.81103723       0.82161905       0.31210958 </v>
    <v>       0.06036589       0.05785938       0.56631041 </v>
    <v>       0.31798873       0.05910226       0.56179475 </v>
    <v>       0.56687402       0.05909980       0.56686554 </v>
    <v>       0.80192046       0.07668768       0.55693249 </v>
    <v>       0.05405472       0.31471167       0.55471110 </v>
    <v>       0.30637573       0.32449178       0.55262182 </v>
    <v>       0.56698390       0.31264767       0.56294734 </v>
    <v>       0.81073572       0.30946174       0.56537777 </v>
    <v>       0.04510821       0.56123769       0.57066133 </v>
    <v>       0.32108700       0.55302417       0.54805406 </v>
    <v>       0.58134721       0.54662908       0.55877995 </v>
    <v>       0.80180965       0.55811352       0.57441218 </v>
    <v>       0.07039676       0.81227963       0.54610999 </v>
    <v>       0.32571827       0.81495581       0.55588536 </v>
    <v>       0.53913671       0.80945048       0.57309901 </v>
    <v>       0.80833974       0.81028859       0.55558281 </v>
    <v>       0.06236215       0.06936210       0.80091506 </v>
    <v>       0.32676799       0.05781779       0.81994809 </v>
    <v>       0.56633259       0.06471094       0.81296430 </v>
    <v>       0.81445094       0.06595719       0.81654426 </v>
    <v>       0.06495812       0.31260730       0.81245131 </v>
    <v>       0.32511387       0.31435574       0.80999722 </v>
    <v>       0.56795612       0.30993688       0.81195241 </v>
    <v>       0.81093515       0.30800980       0.80938166 </v>
    <v>       0.06047124       0.56761791       0.81371388 </v>
    <v>       0.30229969       0.56597400       0.80887099 </v>
    <v>       0.56605338       0.56511960       0.81355446 </v>
    <v>       0.81436971       0.56423233       0.80813935 </v>
    <v>       0.06478376       0.82275861       0.79052690 </v>
    <v>       0.30952780       0.81617163       0.80944288 </v>
    <v>       0.56781650       0.81652990       0.80814542 </v>
    <v>       0.81406073       0.82004600       0.81234401 </v>
   </varray>
  </structure>
  <varray name="forces" >
   <v>      -0.02364861      -0.81019730       2.18986513 </v>
   <v>       0.71778923       1.33132792       0.25544255 </v>
   <v>       1.55578546       1.77380716      -1.79331629 </v>
   <v>       1.88046534      -1.99009438       1.06175210 </v>
   <v>      -0.58715480       1.03914111      -1.41713486 </v>
   <v>      -1.99601353      -1.66088457       0.05985343 </v>
   <v>       0.55004867       1.18487296      -1.71871453 </v>
   <v>      -1.54372221       0.56632797       0.81276878 </v>
   <v>       0.53267955       0.00261740       1.12421340 </v>
   <v>       1.38277524      -1.07925826       1.49323236 </v>
   <v>      -0.63321805       0.32517484      -0.47769494 </v>
   <v>      -0.86087675      -0.03420157      -0.18827512 </v>
   <v>      -2.19271615       1.78524536       1.93160814 </v>
   <v>       0.08115362      -0.91864384      -0.78307156 </v>
   <v>       0.34781128      -1.51816004       1.91653808 </v>
   <v>      -2.27533238       2.10849870       3.55933917 </v>
   <v>      -0.99399587      -0.11523646       0.08265839 </v>
   <v>      -0.95885476       1.36421212       1.22108332 </v>
   <v>      -1.44999529       0.12831676       0.55941085 </v>
   <v>       1.04460681      -2.56884387       1.58894753 </v>
   <v>       0.80991500       0.84313208      -0.92065750 </v>
   <v>      -2.57729228       0.56268944       0.77881166 </v>
   <v>       1.01586455      -2.24714941       2.03357830 </v>
   <v>       0.91237627      -2.14024945       1.24679246 </v>
   <v>      -0.64225093      -0.14680448       0.81097220 </v>
   <v>      -0.09113652       1.58879453       0.06966847 </v>
   <v>      -1.01826541      -1.67065865      -0.85382656 </v>
   <v>      -2.36808974      -0.69270768      -0.96651201 </v>
   <v>      -1.92107213       1.09507939      -1.05321810 </v>
   <v>      -1.86455164      -0.65976615      -0.34297895 </v>
   <v>       1.84501206       0.07062962      -2.45302051 </v>
   <v>      -0.24430248       0.58596047       1.39276205 </v>
   <v>      -0.95077996      -0.92764307       0.10280998 </v>
   <v>      -0.11691143      -0.41896165       0.04255950 </v>
   <v>      -0.66019088      -0.21066063       0.35897867 </v>
   <v>       0.22260235       0.51963909       0.90477810 </v>
   <v>      -0.08112993       0.28457876       0.02278993 </v>
   <v>       0.10858714      -1.93851102      -1.95836803 </v>
   <v>      -0.33971710       1.06683570      -0.75957382 </v>
   <v>      -0.29777787      -0.93605559       1.13395405 </v>
   <v>      -0.23941969       0.44284797      -1.75326761 </v>
   <v>      -0.11410491      -2.29900228      -0.77192053 </v>
   <v>      -2.16637837      -0.83476251      -0.25224583 </v>
   <v>      -1.08567173       0.20537618       2.49319550 </v>
   <v>      -0.42124970      -0.91182947      -1.51844320 </v>
   <v>      -0.32796635       0.67223646      -0.60915017 </v>
   <v>      -0.76067837       1.39097258      -2.38173917 </v>
   <v>      -0.42088692      -0.89475880      -3.31900193 </v>
   <v>       1.89811770      -1.28138349      -0.92831082 </v>
   <v>       0.53692767       1.83149040      -0.79836321 </v>
   <v>       1.34742896       1.52041784       0.27032869 </v>
   <v>       0.21300073      -3.29534132       0.41471041 </v>
   <v>      -0.96414651      -1.56161734      -1.70770644 </v>
   <v>      -2.45050892       2.04891660       1.18607733 </v>
   <v>      -2.43150327      -1.17481460       0.27150071 </v>
   <v>      -1.59071294       0.35875984       0.36221983 </v>
   <v>       2.40777992       1.67739210      -1.36054301 </v>
   <v>       0.02824054      -2.46830611       1.11360511 </v>
   <v>      -0.66653181       1.14785875       0.81774005 </v>
   <v>       0.69985906       1.36229819      -0.28008372 </v>
   <v>      -0.64383920      -0.23579414       1.28224222 </v>
   <v>       0.16582478       1.33895259       0.87609726 </v>
   <v>       0.15420101       0.03727491      -2.14977351 </v>
   <v>      -0.42254884       0.49179146       0.77938009 </v>
   <v>      -0.10963286       0.06063197      -0.33279747 </v>
   <v>      -1.01324372      -0.05041733      -1.85566761 </v>
   <v>       0.19721469       0.29606782       0.68219101 </v>
   <v>       1.80717380       0.40502346      -0.34870458 </v>
   <v>       1.09851229       0.64012344       0.26247707 </v>
   <v>       0.88433126       2.50204193       0.69593263 </v>
   <v>       1.94625310      -0.79290595      -0.45073106 </v>
   <v>       0.80683558      -0.56899033      -1.06078289 </v>
   <v>      -0.00995722      -0.98635633      -0.32053817 </v>
   <v>      -0.47737035      -0.66471103      -0.39616442 </v>
   <v>      -1.20017585       2.15921781      -1.49076504 </v>
   <v>       1.64711745       0.17290495      -1.05564666 </v>
   <v>      -2.11753518       0.49595661      -0.18833653 </v>
   <v>       2.28597124      -0.25774027      -0.39675798 </v>
   <v>       0.28003128      -2.99984227      -0.06712277 </v>
   <v>      -0.55488975      -0.29596306      -4.26852573 </v>
   <v>       2.21561826      -0.90889851      -0.16690035 </v>
   <v>       1.86406098      -0.64893519      -1.34948011 </v>
   <v>      -1.50440632       3.23763928      -2.00670193 </v>
   <v>      -1.13364112       0.84499505      -1.12042940 </v>
   <v>      -0.10082666      -1.50899564      -2.15460499 </v>
   <v>       0.73681040      -0.31146683       1.12796083 </v>
   <v>      -0.17084818       0.22017601       0.63496438 </v>
   <v>       0.34754471       0.84188392       0.95575864 </v>
   <v>       1.39778469      -0.77466775       1.21709565 </v>
   <v>       0.36856275      -1.10372601       0.16258576 </v>
   <v>       1.12061701       1.68064812       0.69014555 </v>
   <v>       1.88119741       1.17918134      -0.15130132 </v>
   <v>       0.51424921       0.44545265       1.30759887 </v>
   <v>      -0.22447551       0.46757031       1.94635306 </v>
   <v>      -0.01733853      -1.71567809       1.38825585 </v>
   <v>      -1.25792262       0.03126029      -2.00000785 </v>
   <v>      -0.97839876      -0.52515877       1.52835255 </v>
   <v>      -0.22516758      -0.77401905       0.42037664 </v>
   <v>      -0.07687650      -2.36025726       0.56145777 </v>
   <v>      -1.02836788       2.23050938      -1.42077855 </v>
   <v>       0.32135642       1.27765415       1.58873981 </v>
   <v>       0.63317333       2.38769828      -0.46437085 </v>
   <v>       1.14415305      -0.42773193      -0.75179877 </v>
   <v>      -0.31416324       0.60253496      -0.39557021 </v>
   <v>      -1.62397269      -0.77790858       2.91815139 </v>
   <v>       3.25071966       1.24417746       0.59966587 </v>
   <v>       3.54308527      -1.60465359      -0.65260993 </v>
   <v>      -1.09799057      -1.31968106       2.18169635 </v>
   <v>       1.88867298       1.05602511      -0.15220292 </v>
   <v>       0.00249714      -1.00917641      -0.96057469 </v>
   <v>      -0.17706648       0.94711817       3.48981117 </v>
   <v>       1.51444395       2.14929006       1.39820792 </v>
   <v>       1.22831727       1.52598141       0.46782573 </v>
   <v>       0.18443607      -3.03902754      -0.20376396 </v>
   <v>      -2.27330733      -0.68664962       1.16856926 </v>
   <v>      -0.51444319       0.88584055       0.90126521 </v>
   <v>       0.54039129      -1.24612264       0.46265776 </v>
   <v>       0.54077116      -0.13037370      -2.45788316 </v>
   <v>       1.78754007      -1.17896052       1.05408782 </v>
   <v>       1.19166241       1.50625152       1.26213033 </v>
   <v>      -1.27704178       0.32308330      -0.48483541 </v>
   <v>       0.46462112       0.80710789       0.33955829 </v>
   <v>       0.20273281      -1.24809212      -0.61146115 </v>
   <v>      -0.00199432       0.06549226      -0.26132422 </v>
   <v>       0.37148915       1.30950409      -1.96824216 </v>
   <v>      -0.12218566      -0.22908652       0.41147564 </v>
   <v>       0.81482098       0.71747221      -0.57327669 </v>
   <v>      -0.48523915       0.31850904      -2.39004312 </v>
  </varray>
  <varray name="stress" >
   <v>      16.20175115      -1.82409594       2.69980328 </v>
   <v>      -1.82409593      15.43636262       8.23232390 </v>
   <v>       2.69980326       8.23232391      14.94216733 </v>
  </varray>
  <energy>
   <i name="e_fr_energy">   -676.62894861 </i>
   <i name="e_wo_entrp">   -676.62894861 </i>
   <i name="e_0_energy">     -0.00000000 </i>
  </energy>
  <time name="totalsc"> 1653.00 1653.66</time>
  <eigenvalues>
   <array>
    <dimension dim="1">band</dimension>
    <dimension dim="2">kpoint</dimension>
    <dimension dim="3">spin</dimension>
    <field>eigene</field>
    <field>occ</field>
    <set>
     <set comment="spin 1">
      <set comment="kpoint 1">
       <r>   -6.3086    1.0000 </r>
       <r>   -5.7139    1.0000 </r>
       <r>   -5.6639    1.0000 </r>
       <r>   -5.6168    1.0000 </r>
       <r>   -5.5535    1.0000 </r>
       <r>   -5.5298    1.0000 </r>
       <r>   -5.4889    1.0000 </r>
       <r>   -5.4686    1.0000 </r>
       <r>   -5.3706    1.0000 </r>
       <r>   -5.3336    1.0000 </r>
       <r>   -5.3036    1.0000 </r>
       <r>   -5.2685    1.0000 </r>
       <r>   -5.1801    1.0000 </r>
       <r>   -5.1462    1.0000 </r>
       <r>   -5.0902    1.0000 </r>
       <r>   -4.5654    1.0000 </r>
       <r>   -4.4764    1.0000 </r>
       <r>   -4.4417    1.0000 </r>
       <r>   -4.4088    1.0000 </r>
       <r>   -4.3891    1.0000 </r>
       <r>   -4.3298    1.0000 </r>
       <r>   -4.3087    1.0000 </r>
       <r>   -4.3001    1.0000 </r>
       <r>   -4.2559    1.0000 </r>
       <r>   -4.2030    1.0000 </r>
       <r>   -4.1648    1.0000 </r>
       <r>   -4.1008    1.0000 </r>
       <r>   -4.0785    1.0000 </r>
       <r>   -4.0093    1.0000 </r>
       <r>   -3.9802    1.0000 </r>
       <r>   -3.9603    1.0000 </r>
       <r>   -3.9339    1.0000 </r>
       <r>   -3.9299    1.0000 </r>
       <r>   -3.8312    1.0000 </r>
       <r>   -3.7947    1.0000 </r>
       <r>   -3.7423    1.0000 </r>
       <r>   -3.7153    1.0000 </r>
       <r>   -3.7070    1.0000 </r>
       <r>   -3.6804    1.0000 </r>
       <r>   -3.6418    1.0000 </r>
       <r>   -3.6265    1.0000 </r>
       <r>   -3.6017    1.0000 </r>
       <r>   -3.5591    1.0000 </r>
       <r>   -3.5290    1.0000 </r>
       <r>   -3.5246    1.0000 </r>
       <r>   -3.5095    1.0000 </r>
       <r>   -3.4909    1.0000 </r>
       <r>   -3.4591    1.0000 </r>
       <r>   -3.4240    1.0000 </r>
       <r>   -3.3967    1.0000 </r>
       <r>   -3.3754    1.0000 </r>
       <r>   -3.3217    1.0000 </r>
       <r>   -3.2897    1.0000 </r>
       <r>   -3.2487    1.0000 </r>
       <r>   -3.2211    1.0000 </r>
       <r>   -2.4113    1.0000 </r>
       <r>   -2.3907    1.0000 </r>
       <r>   -2.3079    1.0000 </r>
       <r>   -2.2526    1.0000 </r>
       <r>   -2.2291    1.0000 </r>
       <r>   -2.1901    1.0000 </r>
       <r>   -2.1784    1.0000 </r>
       <r>   -2.1366    1.0000 </r>
       <r>   -2.0794    1.0000 </r>
       <r>   -2.0235    1.0000 </r>
       <r>   -2.0017    1.0000 </r>
       <r>   -1.9604    1.0000 </r>
       <r>   -1.9433    1.0000 </r>
       <r>   -1.9231    1.0000 </r>
       <r>   -1.8842    1.0000 </r>
       <r>   -1.8331    1.0000 </r>
       <r>   -1.8140    1.0000 </r>
       <r>   -1.7756    1.0000 </r>
       <r>   -1.3697    1.0000 </r>
       <r>   -1.3537    1.0000 </r>
       <r>   -1.2513    1.0000 </r>
       <r>   -1.2012    1.0000 </r>
       <r>   -1.1012    1.0000 </r>
       <r>   -1.0369    1.0000 </r>
       <r>   -0.9935    1.0000 </r>
       <r>   -0.9523    1.0000 </r>
       <r>   -0.8949    1.0000 </r>
       <r>   -0.8763    1.0000 </r>
       <r>   -0.8568    1.0000 </r>
       <r>   -0.8197    1.0000 </r>
       <r>   -0.7934    1.0000 </r>
       <r>   -0.7754    1.0000 </r>
       <r>   -0.7374    1.0000 </r>
       <r>   -0.7313    1.0000 </r>
       <r>   -0.6937    1.0000 </r>
       <r>   -0.6735    1.0000 </r>
       <r>   -0.6520    1.0000 </r>
       <r>   -0.6404    1.0000 </r>
       <r>   -0.6216    1.0000 </r>
       <r>   -0.5604    1.0000 </r>
       <r>   -0.5266    1.0000 </r>
       <r>   -0.4973    1.0000 </r>
       <r>   -0.4824    1.0000 </r>
       <r>   -0.4567    1.0000 </r>
       <r>   -0.4493    1.0000 </r>
       <r>   -0.3373    1.0000 </r>
       <r>   -0.0340    1.0000 </r>
       <r>   -0.0097    1.0000 </r>
       <r>    0.0431    1.0000 </r>
       <r>    0.0918    1.0000 </r>
       <r>    0.1200    1.0000 </r>
       <r>    0.1668    1.0000 </r>
       <r>    0.1697    1.0000 </r>
       <r>    0.2536    1.0000 </r>
       <r>    0.2949    1.0000 </r>
       <r>    0.3224    1.0000 </r>
       <r>    0.3660    1.0000 </r>
       <r>    0.4391    1.0000 </r>
       <r>    1.4279    1.0000 </r>
       <r>    1.4476    1.0000 </r>
       <r>    1.4641    1.0000 </r>
       <r>    1.4858    1.0000 </r>
       <r>    1.5093    1.0000 </r>
       <r>    1.5519    1.0000 </r>
       <r>    1.5659    1.0000 </r>
       <r>    1.6020    1.0000 </r>
       <r>    1.6067    1.0000 </r>
       <r>    1.6279    1.0000 </r>
       <r>    1.6471    1.0000 </r>
       <r>    1.6831    1.0000 </r>
       <r>    1.7031    1.0000 </r>
       <r>    1.7203    1.0000 </r>
       <r>    1.7391    1.0000 </r>
       <r>    1.7440    1.0000 </r>
       <r>    1.7569    1.0000 </r>
       <r>    1.7775    1.0000 </r>
       <r>    1.7953    1.0000 </r>
       <r>    1.8123    1.0000 </r>
       <r>    1.8347    1.0000 </r>
       <r>    1.8409    1.0000 </r>
       <r>    1.8604    1.0000 </r>
       <r>    1.8726    1.0000 </r>
       <r>    1.8830    1.0000 </r>
       <r>    1.8950    1.0000 </r>
       <r>    1.9064    1.0000 </r>
       <r>    1.9211    1.0000 </r>
       <r>    1.9407    1.0000 </r>
       <r>    1.9599    1.0000 </r>
       <r>    1.9784    1.0000 </r>
       <r>    1.9826    1.0000 </r>
       <r>    1.9907    1.0000 </r>
       <r>    1.9935    1.0000 </r>
       <r>    2.0108    1.0000 </r>
       <r>    2.0346    1.0000 </r>
       <r>    2.0456    1.0000 </r>
       <r>    2.0721    1.0000 </r>
       <r>    2.0927    1.0000 </r>
       <r>    2.0942    1.0000 </r>
       <r>    2.1046    1.0000 </r>
       <r>    2.1210    1.0000 </r>
       <r>    2.1331    1.0000 </r>
       <r>    2.1512    1.0000 </r>
       <r>    2.1829    1.0000 </r>
       <r>    2.1972    1.0000 </r>
       <r>    2.2136    1.0000 </r>
       <r>    2.2184    1.0000 </r>
       <r>    2.2330    1.0000 </r>
       <r>    2.2515    1.0000 </r>
       <r>    2.2704    1.0000 </r>
       <r>    2.2796    1.0000 </r>
       <r>    2.2936    1.0000 </r>
       <r>    2.3067    1.0000 </r>
       <r>    2.3264    1.0000 </r>
       <r>    2.3427    1.0000 </r>
       <r>    2.3617    1.0000 </r>
       <r>    2.3844    1.0000 </r>
       <r>    2.4233    1.0000 </r>
       <r>    2.4565    1.0000 </r>
       <r>    2.4647    1.0000 </r>
       <r>    2.5017    1.0000 </r>
       <r>    2.7622    1.0000 </r>
       <r>    2.7948    1.0000 </r>
       <r>    2.8110    1.0000 </r>
       <r>    2.8225    1.0000 </r>
       <r>    2.8412    1.0000 </r>
       <r>    2.8890    1.0000 </r>
       <r>    3.1743    1.0000 </r>
       <r>    3.2011    1.0000 </r>
       <r>    3.2174    1.0000 </r>
       <r>    3.2597    1.0000 </r>
       <r>    3.2860    1.0000 </r>
       <r>    3.3108    1.0000 </r>
       <r>    3.3144    1.0000 </r>
       <r>    3.3244    1.0000 </r>
       <r>    3.3692    1.0000 </r>
       <r>    3.3790    1.0000 </r>
       <r>    3.4016    1.0000 </r>
       <r>    3.4241    1.0000 </r>
       <r>    3.4364    1.0000 </r>
       <r>    3.4564    1.0000 </r>
       <r>    3.4669    1.0000 </r>
       <r>    3.4916    1.0000 </r>
       <r>    3.5061    1.0000 </r>
       <r>    3.5247    1.0000 </r>
       <r>    3.5359    1.0000 </r>
       <r>    3.5494    1.0000 </r>
       <r>    3.5693    1.0000 </r>
       <r>    3.6034    1.0000 </r>
       <r>    3.6335    1.0000 </r>
       <r>    3.6486    1.0000 </r>
       <r>    3.6686    1.0000 </r>
       <r>    3.6942    1.0000 </r>
       <r>    3.7120    1.0000 </r>
       <r>    3.7505    1.0000 </r>
       <r>    3.7667    1.0000 </r>
       <r>    3.7942    1.0000 </r>
       <r>    3.8253    1.0000 </r>
       <r>    3.8778    1.0000 </r>
       <r>    3.9043    1.0000 </r>
       <r>    3.9176    1.0000 </r>
       <r>    3.9441    1.0000 </r>
       <r>    3.9717    1.0000 </r>
       <r>    4.0815    1.0000 </r>
       <r>    4.1032    1.0000 </r>
       <r>    4.1443    1.0000 </r>
       <r>    4.2171    1.0000 </r>
       <r>    4.2713    1.0000 </r>
       <r>    4.2961    1.0000 </r>
       <r>    4.3207    1.0000 </r>
       <r>    4.3286    1.0000 </r>
       <r>    4.3697    1.0000 </r>
       <r>    4.3885    1.0000 </r>
       <r>    4.4066    1.0000 </r>
       <r>    4.4441    1.0000 </r>
       <r>    4.4726    1.0000 </r>
       <r>    4.4983    1.0000 </r>
       <r>    4.5210    1.0000 </r>
       <r>    4.5333    1.0000 </r>
       <r>    4.5650    1.0000 </r>
       <r>    4.5827    1.0000 </r>
       <r>    4.6241    1.0000 </r>
       <r>    4.6553    1.0000 </r>
       <r>    4.7055    1.0000 </r>
       <r>    4.7766    1.0000 </r>
       <r>    4.7845    1.0000 </r>
       <r>    4.8455    1.0000 </r>
       <r>    4.8930    1.0000 </r>
       <r>    4.9027    1.0000 </r>
       <r>    4.9679    1.0000 </r>
       <r>    5.0139    1.0000 </r>
       <r>    5.0256    1.0000 </r>
       <r>    5.0474    1.0000 </r>
       <r>    5.0618    1.0000 </r>
       <r>    5.1435    1.0000 </r>
       <r>    5.1450    1.0000 </r>
       <r>    5.1826    1.0000 </r>
       <r>    5.2359    1.0000 </r>
       <r>    5.2458    1.0000 </r>
       <r>    5.6781    1.0000 </r>
       <r>    5.7967    1.0000 </r>
       <r>    5.8767    1.0000 </r>
       <r>    6.0756    0.0000 </r>
       <r>    6.2213    0.0000 </r>
       <r>    6.2456    0.0000 </r>
       <r>    6.2605    0.0000 </r>
       <r>    6.2656    0.0000 </r>
       <r>    6.3440    0.0000 </r>
       <r>    6.4749    0.0000 </r>
       <r>    6.5363    0.0000 </r>
       <r>    6.5432    0.0000 </r>
       <r>    6.6292    0.0000 </r>
       <r>    6.6412    0.0000 </r>
       <r>    6.7132    0.0000 </r>
       <r>    6.7573    0.0000 </r>
       <r>    6.7951    0.0000 </r>
       <r>    6.8257    0.0000 </r>
       <r>    6.8501    0.0000 </r>
       <r>    6.8885    0.0000 </r>
       <r>    6.9005    0.0000 </r>
       <r>    6.9108    0.0000 </r>
       <r>    6.9273    0.0000 </r>
       <r>    6.9425    0.0000 </r>
       <r>    6.9547    0.0000 </r>
       <r>    6.9872    0.0000 </r>
       <r>    6.9967    0.0000 </r>
       <r>    7.0198    0.0000 </r>
       <r>    7.0373    0.0000 </r>
       <r>    7.0731    0.0000 </r>
       <r>    7.0884    0.0000 </r>
       <r>    7.1033    0.0000 </r>
       <r>    7.1329    0.0000 </r>
       <r>    7.1524    0.0000 </r>
       <r>    7.1626    0.0000 </r>
       <r>    7.2005    0.0000 </r>
       <r>    7.2066    0.0000 </r>
       <r>    7.2530    0.0000 </r>
       <r>    7.2787    0.0000 </r>
       <r>    7.2911    0.0000 </r>
       <r>    7.3112    0.0000 </r>
       <r>    7.3543    0.0000 </r>
       <r>    7.3581    0.0000 </r>
       <r>    7.4053    0.0000 </r>
       <r>    7.4591    0.0000 </r>
       <r>    7.4896    0.0000 </r>
       <r>    7.5074    0.0000 </r>
       <r>    7.5257    0.0000 </r>
       <r>    7.5567    0.0000 </r>
       <r>    7.5763    0.0000 </r>
       <r>    7.6301    0.0000 </r>
       <r>    7.7643    0.0000 </r>
       <r>    7.8363    0.0000 </r>
       <r>    7.8593    0.0000 </r>
       <r>    7.9120    0.0000 </r>
       <r>    7.9234    0.0000 </r>
       <r>    7.9545    0.0000 </r>
       <r>    7.9785    0.0000 </r>
       <r>    7.9942    0.0000 </r>
       <r>    8.0295    0.0000 </r>
       <r>    8.0652    0.0000 </r>
       <r>    8.1004    0.0000 </r>
       <r>    8.1537    0.0000 </r>
       <r>    8.1837    0.0000 </r>
       <r>    8.1965    0.0000 </r>
       <r>    8.2629    0.0000 </r>
       <r>    8.5344    0.0000 </r>
       <r>    8.5841    0.0000 </r>
       <r>    8.6000    0.0000 </r>
      </set>
      <set comment="kpoint 2">
       <r>   -6.1630    1.0000 </r>
       <r>   -6.0629    1.0000 </r>
       <r>   -5.7403    1.0000 </r>
       <r>   -5.6347    1.0000 </r>
       <r>   -5.6128    1.0000 </r>
       <r>   -5.5863    1.0000 </r>
       <r>   -5.5333    1.0000 </r>
       <r>   -5.5058    1.0000 </r>
       <r>   -5.2021    1.0000 </r>
       <r>   -5.1754    1.0000 </r>
       <r>   -5.1164    1.0000 </r>
       <r>   -5.0577    1.0000 </r>
       <r>   -4.9894    1.0000 </r>
       <r>   -4.9756    1.0000 </r>
       <r>   -4.7895    1.0000 </r>
[...]
       <r>    -3.1182    47.3152   101.2640 </r>
       <r>    -3.0635    40.5800   103.4824 </r>
       <r>    -3.0089    38.5049   105.5873 </r>
       <r>    -2.9542    48.9613   108.2637 </r>
       <r>    -2.8995    28.5979   109.8271 </r>
       <r>    -2.8449    33.3388   111.6495 </r>
       <r>    -2.7902    29.2354   113.2477 </r>
       <r>    -2.7355    24.9755   114.6130 </r>
       <r>    -2.6809    56.1248   117.6810 </r>
       <r>    -2.6262    41.2287   119.9348 </r>
       <r>    -2.5715    19.3083   120.9903 </r>
       <r>    -2.5169    16.6712   121.9016 </r>
       <r>    -2.4622    15.4839   122.7481 </r>
       <r>    -2.4075     3.2966   122.9283 </r>
       <r>    -2.3529     5.8853   123.2500 </r>
       <r>    -2.2982     7.1894   123.6430 </r>
       <r>    -2.2435    14.5040   124.4359 </r>
       <r>    -2.1889    16.3201   125.3280 </r>
       <r>    -2.1342    30.2531   126.9818 </r>
       <r>    -2.0796    26.6105   128.4365 </r>
       <r>    -2.0249    22.7359   129.6793 </r>
       <r>    -1.9702    15.3667   130.5194 </r>
       <r>    -1.9156    25.9010   131.9352 </r>
       <r>    -1.8609    10.2894   132.4977 </r>
       <r>    -1.8062     8.5650   132.9659 </r>
       <r>    -1.7516     5.1947   133.2499 </r>
       <r>    -1.6969     6.8613   133.6250 </r>
       <r>    -1.6422    18.3958   134.6306 </r>
       <r>    -1.5876    19.3745   135.6897 </r>
       <r>    -1.5329    36.6009   137.6905 </r>
       <r>    -1.4782    49.4457   140.3935 </r>
       <r>    -1.4236    28.8318   141.9696 </r>
       <r>    -1.3689    26.7156   143.4300 </r>
       <r>    -1.3142    52.6060   146.3057 </r>
       <r>    -1.2596    60.9787   149.6392 </r>
       <r>    -1.2049    74.7306   153.7243 </r>
       <r>    -1.1502    57.6389   156.8752 </r>
       <r>    -1.0956    60.2265   160.1675 </r>
       <r>    -1.0409    68.4630   163.9100 </r>
       <r>    -0.9862    67.9258   167.6232 </r>
       <r>    -0.9316    49.0306   170.3035 </r>
       <r>    -0.8769    71.7893   174.2279 </r>
       <r>    -0.8223    54.3916   177.2012 </r>
       <r>    -0.7676    51.2029   180.0003 </r>
       <r>    -0.7129    45.5580   182.4907 </r>
       <r>    -0.6583    45.8195   184.9955 </r>
       <r>    -0.6036    39.9855   187.1813 </r>
       <r>    -0.5489    30.6816   188.8585 </r>
       <r>    -0.4943    24.1191   190.1770 </r>
       <r>    -0.4396    31.5488   191.9016 </r>
       <r>    -0.3849    36.1099   193.8756 </r>
       <r>    -0.3303    42.7934   196.2149 </r>
       <r>    -0.2756    50.7987   198.9918 </r>
       <r>    -0.2209    49.8192   201.7152 </r>
       <r>    -0.1663    43.3166   204.0831 </r>
       <r>    -0.1116    35.5204   206.0249 </r>
       <r>    -0.0569    35.6538   207.9739 </r>
       <r>    -0.0023    44.8181   210.4239 </r>
       <r>     0.0524    37.0893   212.4514 </r>
       <r>     0.1071    15.6547   213.3071 </r>
       <r>     0.1617    14.3449   214.0913 </r>
       <r>     0.2164    12.0833   214.7518 </r>
       <r>     0.2710    13.6214   215.4965 </r>
       <r>     0.3257    23.7117   216.7927 </r>
       <r>     0.3804    23.8934   218.0988 </r>
       <r>     0.4350    20.3686   219.2123 </r>
       <r>     0.4897    37.7816   221.2776 </r>
       <r>     0.5444    25.5729   222.6756 </r>
       <r>     0.5990    22.1797   223.8880 </r>
       <r>     0.6537     8.4609   224.3506 </r>
       <r>     0.7084    12.5543   225.0368 </r>
       <r>     0.7630    28.8425   226.6135 </r>
       <r>     0.8177    13.3634   227.3441 </r>
       <r>     0.8724     8.2150   227.7931 </r>
       <r>     0.9270    17.3163   228.7397 </r>
       <r>     0.9817    24.1424   230.0595 </r>
       <r>     1.0364    25.3478   231.4451 </r>
       <r>     1.0910    34.5869   233.3359 </r>
       <r>     1.1457    27.9114   234.8617 </r>
       <r>     1.2004    25.9031   236.2777 </r>
       <r>     1.2550    18.1808   237.2715 </r>
       <r>     1.3097    26.6982   238.7310 </r>
       <r>     1.3643    27.0792   240.2113 </r>
       <r>     1.4190    32.0230   241.9618 </r>
       <r>     1.4737    87.3746   246.7381 </r>
       <r>     1.5283    84.6600   251.3661 </r>
       <r>     1.5830    72.3853   255.3231 </r>
       <r>     1.6377    91.9311   260.3486 </r>
       <r>     1.6923    69.6229   264.1546 </r>
       <r>     1.7470    56.6673   267.2523 </r>
       <r>     1.8017    47.4033   269.8436 </r>
       <r>     1.8563    42.7745   272.1819 </r>
       <r>     1.9110    23.2198   273.4513 </r>
       <r>     1.9657    18.1105   274.4413 </r>
       <r>     2.0203    25.5788   275.8395 </r>
       <r>     2.0750    72.8834   279.8237 </r>
       <r>     2.1297    99.2443   285.2490 </r>
       <r>     2.1843   116.5401   291.6197 </r>
       <r>     2.2390   101.2159   297.1527 </r>
       <r>     2.2937   130.2928   304.2752 </r>
       <r>     2.3483   108.2375   310.1920 </r>
       <r>     2.4030    87.6914   314.9857 </r>
       <r>     2.4577    80.0076   319.3594 </r>
       <r>     2.5123    59.8722   322.6324 </r>
       <r>     2.5670    27.8752   324.1562 </r>
       <r>     2.6216    43.6529   326.5425 </r>
       <r>     2.6763    64.9441   330.0927 </r>
       <r>     2.7310    83.1115   334.6360 </r>
       <r>     2.7856    89.2057   339.5125 </r>
       <r>     2.8403   102.3305   345.1064 </r>
       <r>     2.8950    91.2564   350.0949 </r>
       <r>     2.9496    93.8125   355.2232 </r>
       <r>     3.0043   103.1740   360.8633 </r>
       <r>     3.0590    71.7189   364.7839 </r>
       <r>     3.1136    70.8901   368.6592 </r>
       <r>     3.1683    88.8545   373.5164 </r>
       <r>     3.2230    84.1409   378.1160 </r>
       <r>     3.2776    86.2132   382.8289 </r>
       <r>     3.3323   104.7398   388.5545 </r>
       <r>     3.3870   101.8486   394.1221 </r>
       <r>     3.4416    79.1781   398.4504 </r>
       <r>     3.4963    81.0471   402.8809 </r>
       <r>     3.5510    92.9113   407.9599 </r>
       <r>     3.6056    76.3723   412.1348 </r>
       <r>     3.6603    74.2768   416.1953 </r>
       <r>     3.7149    83.3069   420.7493 </r>
       <r>     3.7696    75.0919   424.8542 </r>
       <r>     3.8243    79.0061   429.1731 </r>
       <r>     3.8789    88.6615   434.0198 </r>
       <r>     3.9336    71.1819   437.9110 </r>
       <r>     3.9883    71.8570   441.8391 </r>
       <r>     4.0429    49.9057   444.5672 </r>
       <r>     4.0976    74.9185   448.6627 </r>
       <r>     4.1523    81.9548   453.1428 </r>
       <r>     4.2069    61.0859   456.4821 </r>
       <r>     4.2616    71.5995   460.3961 </r>
       <r>     4.3163    65.6940   463.9873 </r>
       <r>     4.3709    83.9084   468.5741 </r>
       <r>     4.4256    63.7236   472.0576 </r>
       <r>     4.4803    63.5553   475.5319 </r>
       <r>     4.5349    60.5732   478.8431 </r>
       <r>     4.5896    65.9400   482.4477 </r>
       <r>     4.6443    63.8137   485.9362 </r>
       <r>     4.6989    48.5724   488.5914 </r>
       <r>     4.7536    32.4813   490.3670 </r>
       <r>     4.8083    39.6688   492.5355 </r>
       <r>     4.8629    21.1354   493.6909 </r>
       <r>     4.9176    27.2200   495.1789 </r>
       <r>     4.9722    25.9247   496.5960 </r>
       <r>     5.0269    39.3975   498.7498 </r>
       <r>     5.0816    43.7205   501.1397 </r>
       <r>     5.1362    21.5085   502.3155 </r>
       <r>     5.1909    25.4398   503.7062 </r>
       <r>     5.2456     7.2128   504.1005 </r>
       <r>     5.3002     7.3335   504.5014 </r>
       <r>     5.3549    20.6102   505.6280 </r>
       <r>     5.4096    17.2606   506.5716 </r>
       <r>     5.4642     8.0855   507.0136 </r>
       <r>     5.5189    22.7966   508.2598 </r>
       <r>     5.5736    19.8886   509.3470 </r>
       <r>     5.6282    18.1983   510.3418 </r>
       <r>     5.6829    20.0381   511.4372 </r>
       <r>     5.7376     1.1486   511.5000 </r>
       <r>     5.7922     1.1945   511.5653 </r>
       <r>     5.8469     3.3789   511.7500 </r>
       <r>     5.9016     4.5722   511.9999 </r>
       <r>     5.9562     0.0010   512.0000 </r>
       <r>     6.0109     0.0000   512.0000 </r>
       <r>     6.0655     0.3511   512.0192 </r>
       <r>     6.1202     9.8898   512.5598 </r>
       <r>     6.1749     8.1732   513.0066 </r>
       <r>     6.2295    17.6677   513.9724 </r>
       <r>     6.2842    22.0860   515.1798 </r>
       <r>     6.3389    15.6977   516.0379 </r>
       <r>     6.3935    24.7636   517.3916 </r>
       <r>     6.4482    21.7256   518.5792 </r>
       <r>     6.5029    36.0804   520.5516 </r>
       <r>     6.5575    17.3925   521.5023 </r>
       <r>     6.6122     9.1616   522.0032 </r>
       <r>     6.6669    29.1709   523.5978 </r>
       <r>     6.7215    26.3941   525.0407 </r>
       <r>     6.7762    37.0332   527.0651 </r>
       <r>     6.8309    32.7099   528.8532 </r>
       <r>     6.8855    22.5554   530.0862 </r>
       <r>     6.9402    27.5430   531.5918 </r>
       <r>     6.9949    54.0507   534.5465 </r>
       <r>     7.0495    43.5921   536.9295 </r>
       <r>     7.1042    31.9950   538.6785 </r>
       <r>     7.1589    25.5934   540.0776 </r>
       <r>     7.2135    50.3264   542.8288 </r>
       <r>     7.2682    56.5057   545.9177 </r>
       <r>     7.3228    68.8234   549.6799 </r>
       <r>     7.3775    71.5976   553.5938 </r>
       <r>     7.4322    86.6801   558.3322 </r>
       <r>     7.4868    87.1295   563.0952 </r>
       <r>     7.5415    86.5520   567.8266 </r>
       <r>     7.5962    99.3822   573.2594 </r>
       <r>     7.6508    69.7010   577.0696 </r>
       <r>     7.7055    86.3993   581.7927 </r>
       <r>     7.7602    77.2232   586.0141 </r>
       <r>     7.8148   106.8223   591.8536 </r>
       <r>     7.8695    81.9463   596.3333 </r>
       <r>     7.9242    90.1735   601.2626 </r>
       <r>     7.9788    83.9298   605.8507 </r>
       <r>     8.0335    87.5288   610.6354 </r>
       <r>     8.0882    93.0706   615.7232 </r>
       <r>     8.1428    71.9988   619.6591 </r>
       <r>     8.1975    89.3291   624.5422 </r>
       <r>     8.2522    81.4095   628.9926 </r>
       <r>     8.3068    94.2641   634.1456 </r>
       <r>     8.3615    73.2201   638.1482 </r>
       <r>     8.4161    65.7774   641.7440 </r>
       <r>     8.4708    25.9336   643.1616 </r>
       <r>     8.5255     2.0857   643.2757 </r>
       <r>     8.5801     5.4263   643.5723 </r>
       <r>     8.6348     7.8242   644.0000 </r>
       <r>     8.6895     0.0000   644.0000 </r>
       <r>     8.7441     0.0000   644.0000 </r>
       <r>     8.7988     0.0000   644.0000 </r>
       <r>     8.8535     0.0000   644.0000 </r>
       <r>     8.9081     0.0000   644.0000 </r>
       <r>     8.9628     0.0000   644.0000 </r>
       <r>     9.0175     0.0000   644.0000 </r>
       <r>     9.0721     0.0000   644.0000 </r>
       <r>     9.1268     0.0000   644.0000 </r>
       <r>     9.1815     0.0000   644.0000 </r>
       <r>     9.2361     0.0000   644.0000 </r>
       <r>     9.2908     0.0000   644.0000 </r>
       <r>     9.3455     0.0000   644.0000 </r>
      </set>
     </set>
    </array>
   </total>
  </dos>
 </calculation>
 <structure name="finalpos" >
  <crystal>
   <varray name="basis" >
    <v>       0.00000000      10.93733369      10.93733369 </v>
    <v>      10.93733369       0.00000000      10.93733369 </v>
    <v>      10.93733369      10.93733369       0.00000000 </v>
   </varray>
   <i name="volume">   2616.76295363 </i>
   <varray name="rec_basis" >
    <v>      -0.04571498       0.04571498       0.04571498 </v>
    <v>       0.04571498      -0.04571498       0.04571498 </v>
    <v>       0.04571498       0.04571498      -0.04571498 </v>
   </varray>
  </crystal>
  <varray name="positions" >
   <v>       0.99368214       0.99859947       0.00225366 </v>
   <v>       0.24488490       0.99656064       0.99769788 </v>
   <v>       0.50190735       0.00870241       0.98417126 </v>
   <v>       0.75096756       0.99315280       0.00064088 </v>
   <v>       0.99538089       0.26388738       0.98835709 </v>
   <v>       0.24492950       0.25441037       0.00817270 </v>
   <v>       0.50261969       0.25763902       0.98904513 </v>
   <v>       0.74866312       0.25234267       0.00380141 </v>
   <v>       0.00514314       0.49347937       0.00065554 </v>
   <v>       0.25894679       0.48697234       0.99992363 </v>
   <v>       0.50382582       0.50349823       0.00028577 </v>
   <v>       0.74508436       0.51140276       0.99908826 </v>
   <v>       0.99343073       0.75731182       0.99756982 </v>
   <v>       0.25574236       0.74907077       0.99742149 </v>
   <v>       0.50373773       0.74915568       0.00831838 </v>
   <v>       0.73029602       0.75442963       0.01247881 </v>
   <v>       0.99511511       0.00133673       0.25533623 </v>
   <v>       0.24326264       0.00040498       0.24270498 </v>
   <v>       0.49874001       0.00007097       0.25370219 </v>
   <v>       0.75151950       0.99407167       0.25576257 </v>
   <v>       0.00496471       0.25494404       0.23502818 </v>
   <v>       0.24393039       0.25163655       0.25941228 </v>
   <v>       0.50079596       0.24534376       0.25507126 </v>
   <v>       0.75677267       0.23791532       0.25738046 </v>
   <v>       0.99394645       0.49853273       0.25324632 </v>
   <v>       0.24444644       0.50171158       0.24428184 </v>
   <v>       0.50997550       0.49630712       0.25174468 </v>
   <v>       0.73984765       0.51708032       0.24622894 </v>
   <v>       0.98874272       0.76917754       0.24630254 </v>
   <v>       0.24574526       0.74689035       0.25887912 </v>
   <v>       0.50994348       0.75309745       0.24280224 </v>
   <v>       0.74971480       0.74929190       0.25192079 </v>
   <v>       0.99358821       0.00044103       0.50735510 </v>
   <v>       0.25472895       0.00281892       0.49215310 </v>
   <v>       0.50044920       0.99860754       0.50291387 </v>
   <v>       0.74675128       0.99575488       0.50135810 </v>
   <v>       0.99604654       0.24591911       0.49713043 </v>
   <v>       0.26764316       0.24433571       0.49742977 </v>
   <v>       0.49483601       0.26171415       0.49751649 </v>
   <v>       0.74736985       0.25288975       0.50213072 </v>
   <v>       0.99469397       0.51081641       0.48984326 </v>
   <v>       0.24742798       0.50027759       0.50139005 </v>
   <v>       0.49949826       0.50374788       0.50826323 </v>
   <v>       0.75198214       0.48880260       0.50535370 </v>
   <v>       0.00205010       0.75056127       0.49900895 </v>
   <v>       0.25593176       0.75216042       0.49673507 </v>
   <v>       0.50753195       0.75273529       0.48973588 </v>
   <v>       0.75372650       0.75652985       0.49216349 </v>
   <v>       0.01635625       0.99730292       0.74143818 </v>
   <v>       0.24959231       0.01339077       0.73997097 </v>
   <v>       0.50582575       0.99913533       0.74253875 </v>
   <v>       0.76501578       0.99431903       0.75999293 </v>
   <v>       0.00866811       0.25856305       0.74347746 </v>
   <v>       0.23971980       0.26549046       0.75227034 </v>
   <v>       0.50205029       0.24927945       0.76431131 </v>
   <v>       0.74436862       0.25240532       0.75362870 </v>
   <v>       0.00540226       0.49983363       0.73992179 </v>
   <v>       0.25271664       0.48910960       0.75698758 </v>
   <v>       0.48819368       0.50757350       0.75005907 </v>
   <v>       0.74767071       0.49663387       0.75019293 </v>
   <v>       0.99499919       0.75045704       0.74682525 </v>
   <v>       0.24519841       0.75261048       0.74046191 </v>
   <v>       0.50563161       0.75757075       0.74750524 </v>
   <v>       0.74920561       0.75422241       0.74644998 </v>
   <v>       0.05507375       0.07080708       0.05979061 </v>
   <v>       0.31486460       0.07431452       0.05397851 </v>
   <v>       0.55818492       0.06173477       0.06106415 </v>
   <v>       0.81377181       0.05966693       0.05438974 </v>
   <v>       0.06455071       0.31067347       0.04977358 </v>
   <v>       0.30750517       0.31049948       0.06209305 </v>
   <v>       0.57174800       0.30484734       0.05932293 </v>
   <v>       0.81530915       0.31915834       0.06108564 </v>
   <v>       0.07098581       0.55968711       0.06505213 </v>
   <v>       0.31830489       0.56135578       0.06051529 </v>
   <v>       0.55705004       0.57776804       0.05772526 </v>
   <v>       0.82272619       0.56853385       0.04711430 </v>
   <v>       0.05638015       0.82254774       0.06562415 </v>
   <v>       0.32462043       0.80095178       0.05814525 </v>
   <v>       0.56071947       0.81760470       0.07029626 </v>
   <v>       0.82324947       0.82498033       0.06052013 </v>
   <v>       0.06753140       0.05563380       0.31126642 </v>
   <v>       0.32182941       0.05873940       0.29631187 </v>
   <v>       0.55722666       0.07701337       0.30209599 </v>
   <v>       0.80975572       0.06420843       0.31562762 </v>
   <v>       0.06959812       0.31715721       0.31044239 </v>
   <v>       0.31479493       0.30480798       0.31503892 </v>
   <v>       0.56550301       0.30796486       0.31366002 </v>
   <v>       0.80575917       0.31951701       0.30913164 </v>
   <v>       0.05954405       0.56020917       0.30750712 </v>
   <v>       0.31965048       0.55096828       0.31548854 </v>
   <v>       0.55406210       0.56865429       0.31052766 </v>
   <v>       0.81352382       0.56181269       0.30258217 </v>
   <v>       0.05672964       0.80861443       0.31532958 </v>
   <v>       0.30454748       0.81067798       0.31564110 </v>
   <v>       0.56875262       0.80484461       0.31622764 </v>
   <v>       0.81103723       0.82161905       0.31210958 </v>
   <v>       0.06036589       0.05785938       0.56631041 </v>
   <v>       0.31798873       0.05910226       0.56179475 </v>
   <v>       0.56687402       0.05909980       0.56686554 </v>
   <v>       0.80192046       0.07668768       0.55693249 </v>
   <v>       0.05405472       0.31471167       0.55471110 </v>
   <v>       0.30637573       0.32449178       0.55262182 </v>
   <v>       0.56698390       0.31264767       0.56294734 </v>
   <v>       0.81073572       0.30946174       0.56537777 </v>
   <v>       0.04510821       0.56123769       0.57066133 </v>
   <v>       0.32108700       0.55302417       0.54805406 </v>
   <v>       0.58134721       0.54662908       0.55877995 </v>
   <v>       0.80180965       0.55811352       0.57441218 </v>
   <v>       0.07039676       0.81227963       0.54610999 </v>
   <v>       0.32571827       0.81495581       0.55588536 </v>
   <v>       0.53913671       0.80945048       0.57309901 </v>
   <v>       0.80833974       0.81028859       0.55558281 </v>
   <v>       0.06236215       0.06936210       0.80091506 </v>
   <v>       0.32676799       0.05781779       0.81994809 </v>
   <v>       0.56633259       0.06471094       0.81296430 </v>
   <v>       0.81445094       0.06595719       0.81654426 </v>
   <v>       0.06495812       0.31260730       0.81245131 </v>
   <v>       0.32511387       0.31435574       0.80999722 </v>
   <v>       0.56795612       0.30993688       0.81195241 </v>
   <v>       0.81093515       0.30800980       0.80938166 </v>
   <v>       0.06047124       0.56761791       0.81371388 </v>
   <v>       0.30229969       0.56597400       0.80887099 </v>
   <v>       0.56605338       0.56511960       0.81355446 </v>
   <v>       0.81436971       0.56423233       0.80813935 </v>
   <v>       0.06478376       0.82275861       0.79052690 </v>
   <v>       0.30952780       0.81617163       0.80944288 </v>
   <v>       0.56781650       0.81652990       0.80814542 </v>
   <v>       0.81406073       0.82004600       0.81234401 </v>
  </varray>
 </structure>
</modeling>
