potpaw_PBE@./ARUN.APL1ZEROSTATE         
           1
     0.000000   10.937334   10.937334
    10.937334    0.000000   10.937334
    10.937334   10.937334    0.000000
   Si
 128
Direct configuration=     1
   0.99368214  0.99859947  0.00225366
   0.24488490  0.99656064  0.99769788
   0.50190735  0.00870241  0.98417126
   0.75096756  0.99315280  0.00064088
   0.99538089  0.26388738  0.98835709
   0.24492950  0.25441037  0.00817270
   0.50261969  0.25763902  0.98904513
   0.74866312  0.25234267  0.00380141
   0.00514314  0.49347937  0.00065554
   0.25894679  0.48697234  0.99992363
   0.50382582  0.50349823  0.00028577
   0.74508436  0.51140276  0.99908826
   0.99343073  0.75731182  0.99756982
   0.25574236  0.74907077  0.99742149
   0.50373773  0.74915568  0.00831838
   0.73029602  0.75442963  0.01247881
   0.99511511  0.00133673  0.25533623
   0.24326264  0.00040498  0.24270498
   0.49874001  0.00007097  0.25370219
   0.75151950  0.99407167  0.25576257
   0.00496471  0.25494404  0.23502818
   0.24393039  0.25163655  0.25941228
   0.50079596  0.24534376  0.25507126
   0.75677267  0.23791532  0.25738046
   0.99394645  0.49853273  0.25324632
   0.24444644  0.50171158  0.24428184
   0.50997550  0.49630712  0.25174468
   0.73984765  0.51708032  0.24622894
   0.98874272  0.76917754  0.24630254
   0.24574526  0.74689035  0.25887912
   0.50994348  0.75309745  0.24280224
   0.74971480  0.74929190  0.25192079
   0.99358821  0.00044103  0.50735510
   0.25472895  0.00281892  0.49215310
   0.50044920  0.99860754  0.50291387
   0.74675128  0.99575488  0.50135810
   0.99604654  0.24591911  0.49713043
   0.26764316  0.24433571  0.49742977
   0.49483601  0.26171415  0.49751649
   0.74736985  0.25288975  0.50213072
   0.99469397  0.51081641  0.48984326
   0.24742798  0.50027759  0.50139005
   0.49949826  0.50374788  0.50826323
   0.75198214  0.48880260  0.50535370
   0.00205010  0.75056127  0.49900895
   0.25593176  0.75216042  0.49673507
   0.50753195  0.75273529  0.48973588
   0.75372650  0.75652985  0.49216349
   0.01635625  0.99730292  0.74143818
   0.24959231  0.01339077  0.73997097
   0.50582575  0.99913533  0.74253875
   0.76501578  0.99431903  0.75999293
   0.00866811  0.25856305  0.74347746
   0.23971980  0.26549046  0.75227034
   0.50205029  0.24927945  0.76431131
   0.74436862  0.25240532  0.75362870
   0.00540226  0.49983363  0.73992179
   0.25271664  0.48910960  0.75698758
   0.48819368  0.50757350  0.75005907
   0.74767071  0.49663387  0.75019293
   0.99499919  0.75045704  0.74682525
   0.24519841  0.75261048  0.74046191
   0.50563161  0.75757075  0.74750524
   0.74920561  0.75422241  0.74644998
   0.05507375  0.07080708  0.05979061
   0.31486460  0.07431452  0.05397851
   0.55818492  0.06173477  0.06106415
   0.81377181  0.05966693  0.05438974
   0.06455071  0.31067347  0.04977358
   0.30750517  0.31049948  0.06209305
   0.57174800  0.30484734  0.05932293
   0.81530915  0.31915834  0.06108564
   0.07098581  0.55968711  0.06505213
   0.31830489  0.56135578  0.06051529
   0.55705004  0.57776804  0.05772526
   0.82272619  0.56853385  0.04711430
   0.05638015  0.82254774  0.06562415
   0.32462043  0.80095178  0.05814525
   0.56071947  0.81760470  0.07029626
   0.82324947  0.82498033  0.06052013
   0.06753140  0.05563380  0.31126642
   0.32182941  0.05873940  0.29631187
   0.55722666  0.07701337  0.30209599
   0.80975572  0.06420843  0.31562762
   0.06959812  0.31715721  0.31044239
   0.31479493  0.30480798  0.31503892
   0.56550301  0.30796486  0.31366002
   0.80575917  0.31951701  0.30913164
   0.05954405  0.56020917  0.30750712
   0.31965048  0.55096828  0.31548854
   0.55406210  0.56865429  0.31052766
   0.81352382  0.56181269  0.30258217
   0.05672964  0.80861443  0.31532958
   0.30454748  0.81067798  0.31564110
   0.56875262  0.80484461  0.31622764
   0.81103723  0.82161905  0.31210958
   0.06036589  0.05785938  0.56631041
   0.31798873  0.05910226  0.56179475
   0.56687402  0.05909980  0.56686554
   0.80192046  0.07668768  0.55693249
   0.05405472  0.31471167  0.55471110
   0.30637573  0.32449178  0.55262182
   0.56698390  0.31264767  0.56294734
   0.81073572  0.30946174  0.56537777
   0.04510821  0.56123769  0.57066133
   0.32108700  0.55302417  0.54805406
   0.58134721  0.54662908  0.55877995
   0.80180965  0.55811352  0.57441218
   0.07039676  0.81227963  0.54610999
   0.32571827  0.81495581  0.55588536
   0.53913671  0.80945048  0.57309901
   0.80833974  0.81028859  0.55558281
   0.06236215  0.06936210  0.80091506
   0.32676799  0.05781779  0.81994809
   0.56633259  0.06471094  0.81296430
   0.81445094  0.06595719  0.81654426
   0.06495812  0.31260730  0.81245131
   0.32511387  0.31435574  0.80999722
   0.56795612  0.30993688  0.81195241
   0.81093515  0.30800980  0.80938166
   0.06047124  0.56761791  0.81371388
   0.30229969  0.56597400  0.80887099
   0.56605338  0.56511960  0.81355446
   0.81436971  0.56423233  0.80813935
   0.06478376  0.82275861  0.79052690
   0.30952780  0.81617163  0.80944288
   0.56781650  0.81652990  0.80814542
   0.81406073  0.82004600  0.81234401
