 128 128   0   0
  0.2044346E+02  0.1546773E-08  0.1546773E-08  0.1546773E-08  0.5000000E-15
  1.000000000000000E-004
  CAR 
 potpaw_PBE@./ARUN.APL1ZEROSTATE         
      9.34369380     -7.04422927  301      5.91588655      1.00000000
     -7.044  0.0000E+00  0.0000E+00
     -6.990  0.0000E+00  0.0000E+00
     -6.935  0.0000E+00  0.0000E+00
     -6.880  0.0000E+00  0.0000E+00
     -6.826  0.0000E+00  0.0000E+00
     -6.771  0.0000E+00  0.0000E+00
     -6.716  0.0000E+00  0.0000E+00
     -6.662  0.0000E+00  0.0000E+00
     -6.607  0.0000E+00  0.0000E+00
     -6.553  0.0000E+00  0.0000E+00
     -6.498  0.0000E+00  0.0000E+00
     -6.443  0.0000E+00  0.0000E+00
     -6.389  0.0000E+00  0.0000E+00
     -6.334  0.2020E-05  0.1103E-06
     -6.279  0.4565E+01  0.2494E+00
     -6.225  0.1136E-01  0.2500E+00
     -6.170  0.1802E-02  0.2501E+00
     -6.116  0.1804E+02  0.1236E+01
     -6.061  0.3176E+02  0.2970E+01
     -6.006  0.2583E+01  0.3112E+01
     -5.952  0.1168E+02  0.3750E+01
     -5.897  0.2615E+01  0.3893E+01
     -5.842  0.9526E+01  0.4413E+01
     -5.788  0.1092E+02  0.5010E+01
     -5.733  0.1352E+02  0.5748E+01
     -5.679  0.3329E+02  0.7567E+01
     -5.624  0.3131E+02  0.9277E+01
     -5.569  0.2720E+02  0.1076E+02
     -5.515  0.2682E+02  0.1223E+02
     -5.460  0.3175E+02  0.1396E+02
     -5.405  0.9838E+01  0.1450E+02
     -5.351  0.4457E+01  0.1474E+02
     -5.296  0.4696E+01  0.1500E+02
     -5.242  0.5508E+01  0.1530E+02
     -5.187  0.2429E+02  0.1663E+02
     -5.132  0.3437E+02  0.1851E+02
     -5.078  0.4359E+02  0.2089E+02
     -5.023  0.6032E+02  0.2418E+02
     -4.968  0.2938E+02  0.2579E+02
     -4.914  0.3413E+02  0.2765E+02
     -4.859  0.1644E+02  0.2855E+02
     -4.805  0.2042E+02  0.2966E+02
     -4.750  0.2623E+02  0.3110E+02
     -4.695  0.3578E+02  0.3305E+02
     -4.641  0.3894E+02  0.3518E+02
     -4.586  0.4655E+02  0.3772E+02
     -4.531  0.2958E+02  0.3934E+02
     -4.477  0.3064E+02  0.4101E+02
     -4.422  0.2311E+02  0.4227E+02
     -4.368  0.2220E+02  0.4349E+02
     -4.313  0.2187E+02  0.4468E+02
     -4.258  0.3646E+02  0.4667E+02
     -4.204  0.5313E+02  0.4958E+02
     -4.149  0.6707E+02  0.5324E+02
     -4.094  0.5701E+02  0.5635E+02
     -4.040  0.5441E+02  0.5933E+02
     -3.985  0.3921E+02  0.6147E+02
     -3.931  0.5387E+02  0.6441E+02
     -3.876  0.5093E+02  0.6719E+02
     -3.821  0.5452E+02  0.7017E+02
     -3.767  0.5881E+02  0.7338E+02
     -3.712  0.4321E+02  0.7574E+02
     -3.657  0.4388E+02  0.7814E+02
     -3.603  0.3405E+02  0.8000E+02
     -3.548  0.2032E+02  0.8111E+02
     -3.494  0.4117E+02  0.8336E+02
     -3.439  0.5223E+02  0.8621E+02
     -3.384  0.5851E+02  0.8941E+02
     -3.330  0.5457E+02  0.9239E+02
     -3.275  0.4321E+02  0.9475E+02
     -3.220  0.2994E+02  0.9639E+02
     -3.166  0.3123E+02  0.9809E+02
     -3.111  0.3485E+02  0.1000E+03
     -3.057  0.4973E+02  0.1027E+03
     -3.002  0.6046E+02  0.1060E+03
     -2.947  0.4415E+02  0.1084E+03
     -2.893  0.2479E+02  0.1098E+03
     -2.838  0.3720E+02  0.1118E+03
     -2.783  0.2937E+02  0.1134E+03
     -2.729  0.3138E+02  0.1151E+03
     -2.674  0.3445E+02  0.1170E+03
     -2.619  0.4349E+02  0.1194E+03
     -2.565  0.3209E+02  0.1211E+03
     -2.510  0.1934E+02  0.1222E+03
     -2.456  0.5898E+01  0.1225E+03
     -2.401  0.4196E+01  0.1227E+03
     -2.346  0.4242E+01  0.1230E+03
     -2.292  0.4911E+01  0.1233E+03
     -2.237  0.1504E+02  0.1241E+03
     -2.182  0.2189E+02  0.1253E+03
     -2.128  0.2414E+02  0.1266E+03
     -2.073  0.3146E+02  0.1283E+03
     -2.019  0.2860E+02  0.1299E+03
     -1.964  0.3261E+02  0.1316E+03
     -1.909  0.1141E+02  0.1323E+03
     -1.855  0.6093E+01  0.1326E+03
     -1.800  0.1035E+02  0.1332E+03
     -1.745  0.1473E+01  0.1332E+03
     -1.691  0.2768E+00  0.1333E+03
     -1.636  0.1634E+02  0.1342E+03
     -1.582  0.1606E+02  0.1350E+03
     -1.527  0.4081E+02  0.1373E+03
     -1.472  0.4625E+02  0.1398E+03
     -1.418  0.3886E+02  0.1419E+03
     -1.363  0.4030E+02  0.1441E+03
     -1.308  0.5028E+02  0.1469E+03
     -1.254  0.6674E+02  0.1505E+03
     -1.199  0.5989E+02  0.1538E+03
     -1.145  0.6181E+02  0.1572E+03
     -1.090  0.6320E+02  0.1606E+03
     -1.035  0.6281E+02  0.1640E+03
     -0.981  0.6561E+02  0.1676E+03
     -0.926  0.5337E+02  0.1705E+03
     -0.871  0.7847E+02  0.1748E+03
     -0.817  0.6518E+02  0.1784E+03
     -0.762  0.4894E+02  0.1811E+03
     -0.708  0.4782E+02  0.1837E+03
     -0.653  0.4516E+02  0.1861E+03
     -0.598  0.3987E+02  0.1883E+03
     -0.544  0.2383E+02  0.1896E+03
     -0.489  0.1615E+02  0.1905E+03
     -0.434  0.8709E+01  0.1910E+03
     -0.380  0.5973E+02  0.1942E+03
     -0.325  0.3364E+02  0.1961E+03
     -0.271  0.4605E+02  0.1986E+03
     -0.216  0.5462E+02  0.2016E+03
     -0.161  0.4914E+02  0.2043E+03
     -0.107  0.4001E+02  0.2064E+03
     -0.052  0.4064E+02  0.2087E+03
      0.003  0.4544E+02  0.2111E+03
      0.057  0.1973E+02  0.2122E+03
      0.112  0.2785E+02  0.2137E+03
      0.166  0.4635E+01  0.2140E+03
      0.221  0.1569E+02  0.2149E+03
      0.276  0.1774E+02  0.2158E+03
      0.330  0.2142E+02  0.2170E+03
      0.385  0.3093E+02  0.2187E+03
      0.440  0.2446E+02  0.2200E+03
      0.494  0.1747E+02  0.2210E+03
      0.549  0.2258E+02  0.2222E+03
      0.603  0.2416E+02  0.2235E+03
      0.658  0.2596E+02  0.2249E+03
      0.713  0.1525E+02  0.2258E+03
      0.767  0.2204E+02  0.2270E+03
      0.822  0.4836E+01  0.2273E+03
      0.877  0.1486E+02  0.2281E+03
      0.931  0.1825E+02  0.2291E+03
      0.986  0.1948E+02  0.2301E+03
      1.040  0.2988E+02  0.2318E+03
      1.095  0.2758E+02  0.2333E+03
      1.150  0.2484E+02  0.2346E+03
      1.204  0.2362E+02  0.2359E+03
      1.259  0.2922E+02  0.2375E+03
      1.314  0.2181E+02  0.2387E+03
      1.368  0.3227E+02  0.2405E+03
      1.423  0.3533E+02  0.2424E+03
      1.477  0.6218E+02  0.2458E+03
      1.532  0.8330E+02  0.2503E+03
      1.587  0.9220E+02  0.2554E+03
      1.641  0.9898E+02  0.2608E+03
      1.696  0.7056E+02  0.2646E+03
      1.751  0.5446E+02  0.2676E+03
      1.805  0.5622E+02  0.2707E+03
      1.860  0.2806E+02  0.2722E+03
      1.915  0.2281E+02  0.2735E+03
      1.969  0.1569E+02  0.2743E+03
      2.024  0.2387E+02  0.2756E+03
      2.078  0.6989E+02  0.2794E+03
      2.133  0.9792E+02  0.2848E+03
      2.188  0.1251E+03  0.2916E+03
      2.242  0.1093E+03  0.2976E+03
      2.297  0.1120E+03  0.3037E+03
      2.352  0.1153E+03  0.3100E+03
      2.406  0.1100E+03  0.3160E+03
      2.461  0.8797E+02  0.3208E+03
      2.515  0.2966E+02  0.3224E+03
      2.570  0.3116E+02  0.3241E+03
      2.625  0.3627E+02  0.3261E+03
      2.679  0.7156E+02  0.3300E+03
      2.734  0.6606E+02  0.3336E+03
      2.789  0.1066E+03  0.3395E+03
      2.843  0.8716E+02  0.3442E+03
      2.898  0.8915E+02  0.3491E+03
      2.952  0.1023E+03  0.3547E+03
      3.007  0.1026E+03  0.3603E+03
      3.062  0.8898E+02  0.3652E+03
      3.116  0.8714E+02  0.3699E+03
      3.171  0.7552E+02  0.3740E+03
      3.226  0.6971E+02  0.3778E+03
      3.280  0.9814E+02  0.3832E+03
      3.335  0.9975E+02  0.3887E+03
      3.389  0.9872E+02  0.3940E+03
      3.444  0.9872E+02  0.3994E+03
      3.499  0.8906E+02  0.4043E+03
      3.553  0.7057E+02  0.4082E+03
      3.608  0.7469E+02  0.4122E+03
      3.663  0.7993E+02  0.4166E+03
      3.717  0.6973E+02  0.4204E+03
      3.772  0.8524E+02  0.4251E+03
      3.826  0.9056E+02  0.4300E+03
      3.881  0.8639E+02  0.4347E+03
      3.936  0.6927E+02  0.4385E+03
      3.990  0.5504E+02  0.4415E+03
      4.045  0.6120E+02  0.4449E+03
      4.100  0.7830E+02  0.4491E+03
      4.154  0.7043E+02  0.4530E+03
      4.209  0.7318E+02  0.4570E+03
      4.263  0.7602E+02  0.4611E+03
      4.318  0.5704E+02  0.4643E+03
      4.373  0.7768E+02  0.4685E+03
      4.427  0.8931E+02  0.4734E+03
      4.482  0.5979E+02  0.4767E+03
      4.537  0.6880E+02  0.4804E+03
      4.591  0.5028E+02  0.4832E+03
      4.646  0.5626E+02  0.4862E+03
      4.700  0.4890E+02  0.4889E+03
      4.755  0.2445E+02  0.4902E+03
      4.810  0.3115E+02  0.4919E+03
      4.864  0.3365E+02  0.4938E+03
      4.919  0.2871E+02  0.4953E+03
      4.974  0.3872E+02  0.4975E+03
      5.028  0.3964E+02  0.4996E+03
      5.083  0.2093E+02  0.5008E+03
      5.137  0.3254E+02  0.5025E+03
      5.192  0.2205E+02  0.5037E+03
      5.247  0.1442E+01  0.5038E+03
      5.301  0.7965E+01  0.5043E+03
      5.356  0.2878E+02  0.5058E+03
      5.411  0.1963E+02  0.5069E+03
      5.465  0.1819E+02  0.5079E+03
      5.520  0.1887E+02  0.5089E+03
      5.574  0.1722E+02  0.5099E+03
      5.629  0.2355E+02  0.5112E+03
      5.684  0.6230E+01  0.5115E+03
      5.738  0.2313E-02  0.5115E+03
      5.793  0.1918E+01  0.5116E+03
      5.848  0.3239E+01  0.5118E+03
      5.902  0.3996E+01  0.5120E+03
      5.957  0.0000E+00  0.5120E+03
      6.011  0.0000E+00  0.5120E+03
      6.066  0.0000E+00  0.5120E+03
      6.121  0.1516E-03  0.5120E+03
      6.175  0.1917E+02  0.5130E+03
      6.230  0.1757E+02  0.5140E+03
      6.285  0.8431E+01  0.5145E+03
      6.339  0.2079E+02  0.5156E+03
      6.394  0.2803E+02  0.5171E+03
      6.448  0.2615E+02  0.5186E+03
      6.503  0.1998E+02  0.5197E+03
      6.558  0.2350E+02  0.5209E+03
      6.612  0.1378E+02  0.5217E+03
      6.667  0.2050E+02  0.5228E+03
      6.722  0.2865E+02  0.5244E+03
      6.776  0.2743E+02  0.5259E+03
      6.831  0.3003E+02  0.5275E+03
      6.886  0.3534E+02  0.5294E+03
      6.940  0.3267E+02  0.5312E+03
      6.995  0.4897E+02  0.5339E+03
      7.049  0.4549E+02  0.5364E+03
      7.104  0.4187E+02  0.5387E+03
      7.159  0.2197E+02  0.5399E+03
      7.213  0.1510E+02  0.5407E+03
      7.268  0.5757E+02  0.5438E+03
      7.323  0.8024E+02  0.5482E+03
      7.377  0.6295E+02  0.5517E+03
      7.432  0.8572E+02  0.5564E+03
      7.486  0.9772E+02  0.5617E+03
      7.541  0.6461E+02  0.5652E+03
      7.596  0.9871E+02  0.5706E+03
      7.650  0.8693E+02  0.5754E+03
      7.705  0.9090E+02  0.5803E+03
      7.760  0.8411E+02  0.5849E+03
      7.814  0.8735E+02  0.5897E+03
      7.869  0.1080E+03  0.5956E+03
      7.923  0.8394E+02  0.6002E+03
      7.978  0.1074E+03  0.6060E+03
      8.033  0.9125E+02  0.6110E+03
      8.087  0.7634E+02  0.6152E+03
      8.142  0.7337E+02  0.6192E+03
      8.197  0.9287E+02  0.6243E+03
      8.251  0.7936E+02  0.6286E+03
      8.306  0.9226E+02  0.6337E+03
      8.360  0.7329E+02  0.6377E+03
      8.415  0.7252E+02  0.6416E+03
      8.470  0.2570E+02  0.6430E+03
      8.524  0.4481E+01  0.6433E+03
      8.579  0.6110E+01  0.6436E+03
      8.634  0.7350E+01  0.6440E+03
      8.688  0.0000E+00  0.6440E+03
      8.743  0.0000E+00  0.6440E+03
      8.797  0.0000E+00  0.6440E+03
      8.852  0.0000E+00  0.6440E+03
      8.907  0.0000E+00  0.6440E+03
      8.961  0.0000E+00  0.6440E+03
      9.016  0.0000E+00  0.6440E+03
      9.071  0.0000E+00  0.6440E+03
      9.125  0.0000E+00  0.6440E+03
      9.180  0.0000E+00  0.6440E+03
      9.234  0.0000E+00  0.6440E+03
      9.289  0.0000E+00  0.6440E+03
      9.344  0.0000E+00  0.6440E+03
