 vasp.5.4.4.18Apr17-6-g9f103f2a35 (build Nov 08 2017 09:05:29) complex          
  
 executed on          Intel_17.33 date 2020.07.18  23:17:19
 running on   32 total cores
 distrk:  each k-point on   32 cores,    1 groups
 distr:  one band on NCORES_PER_BAND=  16 cores,    2 groups


--------------------------------------------------------------------------------------------------------


 INCAR:
 POTCAR:   PAW_PBE Si 05Jan2001                   

 ----------------------------------------------------------------------------- 
|                                                                             |
|           W    W    AA    RRRRR   N    N  II  N    N   GGGG   !!!           |
|           W    W   A  A   R    R  NN   N  II  NN   N  G    G  !!!           |
|           W    W  A    A  R    R  N N  N  II  N N  N  G       !!!           |
|           W WW W  AAAAAA  RRRRR   N  N N  II  N  N N  G  GGG   !            |
|           WW  WW  A    A  R   R   N   NN  II  N   NN  G    G                |
|           W    W  A    A  R    R  N    N  II  N    N   GGGG   !!!           |
|                                                                             |
|      For optimal performance we recommend to set                            |
|        NCORE= 4 - approx SQRT( number of cores)                             |
|      NCORE specifies how many cores store one orbital (NPAR=cpu/NCORE).     |
|      This setting can  greatly improve the performance of VASP for DFT.     |
|      The default,   NCORE=1            might be grossly inefficient         |
|      on modern multi-core architectures or massively parallel machines.     |
|      Do your own testing !!!!                                               |
|      Unfortunately you need to use the default for GW and RPA calculations. |
|      (for HF NCORE is supported but not extensively tested yet)             |
|                                                                             |
 ----------------------------------------------------------------------------- 

 POTCAR:   PAW_PBE Si 05Jan2001                   
   VRHFIN =Si: s2p2                                                             
   LEXCH  = PE                                                                  
   EATOM  =   103.0669 eV,    7.5752 Ry                                         
                                                                                
   TITEL  = PAW_PBE Si 05Jan2001                                                
   LULTRA =        F    use ultrasoft PP ?                                      
   IUNSCR =        1    unscreen: 0-lin 1-nonlin 2-no                           
   RPACOR =    1.500    partial core radius                                     
   POMASS =   28.085; ZVAL   =    4.000    mass and valenz                      
   RCORE  =    1.900    outmost cutoff radius                                   
   RWIGS  =    2.480; RWIGS  =    1.312    wigner-seitz radius (au A)           
   ENMAX  =  245.345; ENMIN  =  184.009 eV                                      
   ICORE  =        2    local potential                                         
   LCOR   =        T    correct aug charges                                     
   LPAW   =        T    paw PP                                                  
   EAUG   =  322.069                                                            
   DEXC   =    -.007                                                            
   RMAX   =    2.944    core radius for proj-oper                               
   RAUG   =    1.300    factor for augmentation sphere                          
   RDEP   =    1.993    radius for radial grids                                 
   QCUT   =   -4.246; QGAM   =    8.493    optimization parameters              
                                                                                
   Description                                                                  
     l     E      TYP  RCUT    TYP  RCUT                                        
     0   .000     23  1.900                                                     
     0   .000     23  1.900                                                     
     1   .000     23  1.900                                                     
     1   .000     23  1.900                                                     
     2   .000      7  1.900                                                     
  local pseudopotential read in
  partial core-charges read in
  atomic valenz-charges read in
  non local Contribution for L=           0  read in
    real space projection operators read in
  non local Contribution for L=           0  read in
    real space projection operators read in
  non local Contribution for L=           1  read in
    real space projection operators read in
  non local Contribution for L=           1  read in
    real space projection operators read in
    PAW grid and wavefunctions read in
 
   number of l-projection  operators is LMAX  =           4
   number of lm-projection operators is LMMAX =           8
 

 ----------------------------------------------------------------------------- 
|                                                                             |
|  ADVICE TO THIS USER RUNNING 'VASP/VAMP'   (HEAR YOUR MASTER'S VOICE ...):  |
|                                                                             |
|      You have a (more or less) 'large supercell' and for larger cells       |
|      it might be more efficient to use real space projection operators      |
|      So try LREAL= Auto  in the INCAR   file.                               |
|      Mind: If you want to do a very accurate calculations keep the          |
|      reciprocal projection scheme          (i.e. LREAL=.FALSE.)             |
|                                                                             |
 ----------------------------------------------------------------------------- 

 PAW_PBE Si 05Jan2001                   :
 energy of atom  1       EATOM= -103.0669
 kinetic energy error for atom=    0.0006 (will be added to EATOM!!)
 
 
 POSCAR: kk                                      
  positions in direct lattice
  No initial velocities read in
 exchange correlation table for  LEXCH =        8
   RHO(1)=    0.500       N(1)  =     2000
   RHO(2)=  100.500       N(2)  =     4000
 


--------------------------------------------------------------------------------------------------------


 ion  position               nearest neighbor table
   1  0.001  0.987  0.008-  77 2.25  68 2.41 113 2.49  65 2.57
   2  0.250  0.991  0.006-  65 2.29  78 2.32  66 2.38 114 2.55
   3  0.508  0.994  0.001- 115 2.22  79 2.24  66 2.37  67 2.39
   4  0.749  0.006  1.000-  68 2.27 116 2.30  80 2.38  67 2.42
   5  0.006  0.249  0.994-  72 2.23 117 2.27  65 2.29  69 2.43
   6  0.246  0.247  0.995- 118 2.26  66 2.32  69 2.40  70 2.69
   7  0.496  0.252  0.004-  67 2.21  70 2.29  71 2.34 119 2.54
   8  0.745  0.256  0.000-  71 2.20 120 2.35  72 2.39  68 2.44
   9  0.994  0.501  0.002-  73 2.26 121 2.32  69 2.35  76 2.41
  10  0.242  0.504  0.001-  74 2.29  73 2.31 122 2.41  70 2.46
  11  0.500  0.493  0.005-  71 2.38  74 2.40  75 2.41 123 2.50
  12  0.750  0.510  0.996-  76 2.27 124 2.36  75 2.37  72 2.59
  13  0.008  0.742  0.992-  73 2.27 125 2.30  77 2.41  80 2.46
  14  0.246  0.748  0.007-  77 2.35  78 2.37  74 2.43 126 2.59
  15  0.503  0.752  1.000-  75 2.31  78 2.32 127 2.35  79 2.56
  16  0.747  0.755  0.996-  79 2.16 128 2.25  76 2.31  80 2.45
  17  0.993  0.998  0.245-  84 2.27  65 2.34  93 2.42  81 2.54
  18  0.259  0.993  0.255-  82 2.21  94 2.32  81 2.55  66 2.59
  19  0.500  0.999  0.249-  95 2.34  67 2.45  82 2.51  83 2.52
  20  0.752  0.003  0.246-  96 2.33  68 2.36  83 2.44  84 2.49
  21  0.007  0.249  0.250-  85 2.27  69 2.29  81 2.33  88 2.49
  22  0.256  0.245  0.251-  70 2.22  82 2.30  86 2.39  85 2.49
  23  0.501  0.251  0.251-  86 2.30  83 2.32  87 2.39  71 2.41
  24  0.750  0.244  0.247-  84 2.21  87 2.37  72 2.45  88 2.57
  25  0.004  0.512  0.241-  92 2.20  89 2.32  73 2.37  85 2.62
  26  0.252  0.496  0.235-  74 2.18  86 2.25  89 2.28  90 2.44
  27  0.506  0.488  0.269-  91 2.20  87 2.25  90 2.44  75 2.68
  28  0.745  0.507  0.244-  76 2.33  88 2.34  92 2.45  91 2.46
  29  0.995  0.745  0.257-  96 2.32  93 2.33  89 2.42  77 2.45
  30  0.241  0.751  0.250-  93 2.30  78 2.40  94 2.40  90 2.48
  31  0.506  0.750  0.245-  91 2.19  79 2.31  95 2.39  94 2.49
  32  0.745  0.750  0.245-  95 2.28  80 2.34  92 2.40  96 2.54
  33  0.001  0.010  0.501-  97 2.29  81 2.35 100 2.38 109 2.39
  34  0.259  0.993  0.501- 110 2.33  97 2.35  82 2.35  98 2.41
  35  0.496  0.003  0.503- 111 2.29  83 2.30  99 2.32  98 2.37
  36  0.750  0.011  0.509- 100 2.12 112 2.37  99 2.42  84 2.46
  37  1.000  0.254  0.498- 104 2.22  85 2.24 101 2.28  97 2.57
  38  0.266  0.245  0.495-  98 2.19 102 2.38  86 2.43 101 2.68
  39  0.507  0.246  0.500- 102 2.20  99 2.30  87 2.30 103 2.44
  40  0.751  0.241  0.502- 100 2.11 103 2.37  88 2.40 104 2.51
  41  0.999  0.511  0.488-  89 2.23 108 2.32 105 2.48 101 2.58
  42  0.244  0.500  0.504- 105 2.30 106 2.41 102 2.46  90 2.50
  43  0.503  0.499  0.499- 107 2.29 103 2.33  91 2.43 106 2.45
  44  0.748  0.482  0.505- 104 2.23 107 2.37  92 2.64 108 2.66
  45  0.009  0.743  0.502- 105 2.22 109 2.27  93 2.35 112 2.64
  46  0.250  0.746  0.500- 106 2.29  94 2.37 110 2.47 109 2.63
  47  0.500  0.762  0.489-  95 2.26 110 2.30 107 2.41 111 2.43
  48  0.756  0.735  0.497- 108 2.20  96 2.37 112 2.46 111 2.63
  49  0.997  0.001  0.749- 116 2.28  97 2.29 125 2.32 113 2.45
  50  0.256  0.998  0.748- 114 2.31  98 2.36 126 2.36 113 2.45
  51  0.509  0.999  0.740-  99 2.25 127 2.40 115 2.45 114 2.46
  52  0.748  0.995  0.766- 116 2.31 115 2.39 128 2.40 100 2.72
  53  0.993  0.254  0.760- 120 2.26 117 2.30 113 2.34 101 2.39
  54  0.248  0.250  0.753- 114 2.35 117 2.35 118 2.39 102 2.51
  55  0.492  0.244  0.754- 115 2.37 119 2.38 103 2.39 118 2.54
  56  0.753  0.255  0.748- 120 2.33 104 2.36 119 2.47 116 2.51
  57  0.002  0.504  0.752- 124 2.22 105 2.36 121 2.39 117 2.42
  58  0.251  0.500  0.748- 118 2.17 122 2.22 106 2.33 121 2.42
  59  0.502  0.509  0.735- 107 2.37 122 2.43 119 2.44 123 2.44
  60  0.755  0.494  0.748- 108 2.27 120 2.29 123 2.45 124 2.59
  61  0.994  0.752  0.755- 128 2.28 121 2.32 125 2.38 109 2.38
  62  0.252  0.734  0.752- 122 2.30 110 2.38 126 2.41 125 2.44
  63  0.494  0.752  0.757- 126 2.27 123 2.28 127 2.32 111 2.34
  64  0.757  0.752  0.747- 128 2.30 124 2.35 127 2.45 112 2.46
  65  0.070  0.068  0.061-   2 2.29   5 2.29  17 2.34   1 2.57
  66  0.321  0.064  0.050-   6 2.32   3 2.37   2 2.38  18 2.59
  67  0.558  0.077  0.056-   7 2.21   3 2.39   4 2.42  19 2.45
  68  0.811  0.063  0.060-   4 2.27  20 2.36   1 2.41   8 2.44
  69  0.057  0.315  0.069-  21 2.29   9 2.35   6 2.40   5 2.43
  70  0.315  0.310  0.075-  22 2.22   7 2.29  10 2.46   6 2.69
  71  0.571  0.305  0.061-   8 2.20   7 2.34  11 2.38  23 2.41
  72  0.830  0.305  0.054-   5 2.23   8 2.39  24 2.45  12 2.59
  73  0.060  0.562  0.054-   9 2.26  13 2.27  10 2.31  25 2.37
  74  0.310  0.556  0.062-  26 2.18  10 2.29  11 2.40  14 2.43
  75  0.563  0.569  0.057-  15 2.31  12 2.37  11 2.41  27 2.68
  76  0.804  0.572  0.060-  12 2.27  16 2.31  28 2.33   9 2.41
  77  0.060  0.809  0.063-   1 2.25  14 2.35  13 2.41  29 2.45
  78  0.319  0.807  0.061-  15 2.32   2 2.32  14 2.37  30 2.40
  79  0.576  0.817  0.063-  16 2.16   3 2.24  31 2.31  15 2.56
  80  0.814  0.817  0.060-  32 2.34   4 2.38  16 2.45  13 2.46
  81  0.057  0.064  0.315-  21 2.33  33 2.35  17 2.54  18 2.55
  82  0.301  0.064  0.316-  18 2.21  22 2.30  34 2.35  19 2.51
  83  0.559  0.067  0.321-  35 2.30  23 2.32  20 2.44  19 2.52
  84  0.814  0.070  0.314-  24 2.21  17 2.27  36 2.46  20 2.49
  85  0.059  0.305  0.321-  37 2.24  21 2.27  22 2.49  25 2.62
  86  0.319  0.319  0.303-  26 2.25  23 2.30  22 2.39  38 2.43
  87  0.563  0.311  0.318-  27 2.25  39 2.30  24 2.37  23 2.39
  88  0.810  0.322  0.313-  28 2.34  40 2.40  21 2.49  24 2.57
  89  0.073  0.555  0.312-  41 2.23  26 2.28  25 2.32  29 2.42
  90  0.315  0.555  0.306-  26 2.44  27 2.44  30 2.48  42 2.50
  91  0.550  0.577  0.307-  31 2.19  27 2.20  43 2.43  28 2.46
  92  0.830  0.561  0.298-  25 2.20  32 2.40  28 2.45  44 2.64
  93  0.059  0.807  0.317-  30 2.30  29 2.33  45 2.35  17 2.42
  94  0.309  0.810  0.312-  18 2.32  46 2.37  30 2.40  31 2.49
  95  0.565  0.814  0.311-  47 2.26  32 2.28  19 2.34  31 2.39
  96  0.812  0.818  0.311-  29 2.32  20 2.33  48 2.37  32 2.54
  97  0.073  0.050  0.569-  49 2.29  33 2.29  34 2.35  37 2.57
  98  0.309  0.073  0.562-  38 2.19  50 2.36  35 2.37  34 2.41
  99  0.560  0.064  0.562-  51 2.25  39 2.30  35 2.32  36 2.42
 100  0.813  0.074  0.550-  40 2.11  36 2.12  33 2.38  52 2.72
 101  0.053  0.307  0.571-  37 2.28  53 2.39  41 2.58  38 2.68
 102  0.333  0.306  0.555-  39 2.20  38 2.38  42 2.46  54 2.51
 103  0.564  0.314  0.566-  43 2.33  40 2.37  55 2.39  39 2.44
 104  0.824  0.306  0.562-  37 2.22  44 2.23  56 2.36  40 2.51
 105  0.061  0.567  0.565-  45 2.22  42 2.30  57 2.36  41 2.48
 106  0.309  0.565  0.564-  46 2.29  58 2.33  42 2.41  43 2.45
 107  0.563  0.571  0.548-  43 2.29  59 2.37  44 2.37  47 2.41
 108  0.816  0.561  0.568-  48 2.20  60 2.27  41 2.32  44 2.66
 109  0.042  0.822  0.567-  45 2.27  61 2.38  33 2.39  46 2.63
 110  0.319  0.809  0.564-  47 2.30  34 2.33  62 2.38  46 2.47
 111  0.549  0.822  0.572-  35 2.29  63 2.34  47 2.43  48 2.63
 112  0.801  0.826  0.554-  36 2.37  64 2.46  48 2.46  45 2.64
 113  0.062  0.069  0.811-  53 2.34  49 2.45  50 2.45   1 2.49
 114  0.315  0.065  0.805-  50 2.31  54 2.35  51 2.46   2 2.55
 115  0.559  0.057  0.825-   3 2.22  55 2.37  52 2.39  51 2.45
 116  0.817  0.056  0.818-  49 2.28   4 2.30  52 2.31  56 2.51
 117  0.062  0.313  0.815-   5 2.27  53 2.30  54 2.35  57 2.42
 118  0.292  0.329  0.818-  58 2.17   6 2.26  54 2.39  55 2.54
 119  0.558  0.317  0.804-  55 2.38  59 2.44  56 2.47   7 2.54
 120  0.814  0.313  0.814-  53 2.26  60 2.29  56 2.33   8 2.35
 121  0.059  0.568  0.819-   9 2.32  61 2.32  57 2.39  58 2.42
 122  0.311  0.552  0.812-  58 2.22  62 2.30  10 2.41  59 2.43
 123  0.561  0.571  0.807-  63 2.28  59 2.44  60 2.45  11 2.50
 124  0.826  0.566  0.810-  57 2.22  64 2.35  12 2.36  60 2.59
 125  0.061  0.817  0.811-  13 2.30  49 2.32  61 2.38  62 2.44
 126  0.315  0.811  0.802-  63 2.27  50 2.36  62 2.41  14 2.59
 127  0.563  0.810  0.814-  63 2.32  15 2.35  51 2.40  64 2.45
 128  0.814  0.805  0.818-  16 2.25  61 2.28  64 2.30  52 2.40
 
  LATTYP: Found a face centered cubic cell.
 ALAT       =    21.8746673814
  
  Lattice vectors:
  
 A1 = (   0.0000000000,  10.9373336907,  10.9373336907)
 A2 = (  10.9373336907,   0.0000000000,  10.9373336907)
 A3 = (  10.9373336907,  10.9373336907,   0.0000000000)


Analysis of symmetry for initial positions (statically):
=====================================================================
 Subroutine PRICEL returns:
 Original cell was already a primitive cell.
 

 Routine SETGRP: Setting up the symmetry group for a 
 face centered cubic supercell.


 Subroutine GETGRP returns: Found  1 space group operations
 (whereof  1 operations were pure point group operations)
 out of a pool of 48 trial point group operations.


The static configuration has the point symmetry C_1 .


Analysis of symmetry for dynamics (positions and initial velocities):
=====================================================================
 Subroutine PRICEL returns:
 Original cell was already a primitive cell.
 

 Routine SETGRP: Setting up the symmetry group for a 
 face centered cubic supercell.


 Subroutine GETGRP returns: Found  1 space group operations
 (whereof  1 operations were pure point group operations)
 out of a pool of 48 trial point group operations.


The dynamic configuration has the point symmetry C_1 .


 Subroutine INISYM returns: Found  1 space group operations
 (whereof  1 operations are pure point group operations),
 and found     1 'primitive' translations

 
 
 KPOINTS: KPOINTS File, automatically generated by

Automatic generation of k-mesh.
Space group operators:
 irot       det(A)        alpha          n_x          n_y          n_z        tau_x        tau_y        tau_z
    1     1.000000     0.000001     1.000000     0.000000     0.000000     0.000000     0.000000     0.000000
 
 Subroutine IBZKPT returns following result:
 ===========================================
 
 Found      8 irreducible k-points:
 
 Following reciprocal coordinates:
            Coordinates               Weight
  0.000000  0.000000  0.000000      1.000000
  0.500000  0.000000  0.000000      1.000000
  0.000000  0.500000  0.000000      1.000000
  0.500000  0.500000  0.000000      1.000000
  0.000000  0.000000  0.500000      1.000000
  0.500000  0.000000  0.500000      1.000000
  0.000000  0.500000  0.500000      1.000000
  0.500000  0.500000  0.500000      1.000000
 
 Following cartesian coordinates:
            Coordinates               Weight
  0.000000  0.000000  0.000000      1.000000
 -0.022857  0.022857  0.022857      1.000000
  0.022857 -0.022857  0.022857      1.000000
  0.000000  0.000000  0.045715      1.000000
  0.022857  0.022857 -0.022857      1.000000
  0.000000  0.045715  0.000000      1.000000
  0.045715  0.000000  0.000000      1.000000
  0.022857  0.022857  0.022857      1.000000
 


--------------------------------------------------------------------------------------------------------




 Dimension of arrays:
   k-points           NKPTS =      8   k-points in BZ     NKDIM =      8   number of bands    NBANDS=    322
   number of dos      NEDOS =    301   number of ions     NIONS =    128
   non local maximal  LDIM  =      4   non local SUM 2l+1 LMDIM =      8
   total plane-waves  NPLWV = ******
   max r-space proj   IRMAX =      1   max aug-charges    IRDMAX= 176811
   dimension x,y,z NGX =   120 NGY =  120 NGZ =  120
   dimension x,y,z NGXF=   240 NGYF=  240 NGZF=  240
   support grid    NGXF=   480 NGYF=  480 NGZF=  480
   ions per type =             128
   NGX,Y,Z   is equivalent  to a cutoff of  12.90, 12.90, 12.90 a.u.
   NGXF,Y,Z  is equivalent  to a cutoff of  25.80, 25.80, 25.80 a.u.

 SYSTEM =  potpaw_PBE@./ARUN.APL1ZEROSTATE         
 POSCAR =  kk                                      

 Startparameter for this run:
   NWRITE =      2    write-flag & timer
   PREC   = accura    normal or accurate (medium, high low for compatibility)
   ISTART =      0    job   : 0-new  1-cont  2-samecut
   ICHARG =      2    charge: 1-file 2-atom 10-const
   ISPIN  =      1    spin polarized calculation?
   LNONCOLLINEAR =      F non collinear calculations
   LSORBIT =      F    spin-orbit coupling
   INIWAV =      1    electr: 0-lowe 1-rand  2-diag
   LASPH  =      F    aspherical Exc in radial PAW
   METAGGA=      F    non-selfconsistent MetaGGA calc.

 Electronic Relaxation 1
   ENCUT  =  500.0 eV  36.75 Ry    6.06 a.u.  28.20 28.20 28.20*2*pi/ulx,y,z
   ENINI  =  500.0     initial cutoff
   ENAUG  =  322.1 eV  augmentation charge cutoff
   NELM   =    120;   NELMIN=  4; NELMDL= -5     # of ELM steps 
   EDIFF  = 0.1E-07   stopping-criterion for ELM
   LREAL  =      F    real-space projection
   NLSPLINE    = F    spline interpolate recip. space projectors
   LCOMPAT=      F    compatible to vasp.4.4
   GGA_COMPAT  = T    GGA compatible to vasp.4.4-vasp.4.6
   LMAXPAW     = -100 max onsite density
   LMAXMIX     =    2 max onsite mixed and CHGCAR
   VOSKOWN=      0    Vosko Wilk Nusair interpolation
   ROPT   =    0.00000
 Ionic relaxation
   EDIFFG = 0.1E-06   stopping-criterion for IOM
   NSW    =      0    number of steps for IOM
   NBLOCK =      1;   KBLOCK =      1    inner block; outer block 
   IBRION =     -1    ionic relax: 0-MD 1-quasi-New 2-CG
   NFREE  =      0    steps in history (QN), initial steepest desc. (CG)
   ISIF   =      2    stress and relaxation
   IWAVPR =     10    prediction:  0-non 1-charg 2-wave 3-comb
   ISYM   =      2    0-nonsym 1-usesym 2-fastsym
   LCORR  =      T    Harris-Foulkes like correction to forces

   POTIM  = 0.5000    time-step for ionic-motion
   TEIN   =    0.0    initial temperature
   TEBEG  =    0.0;   TEEND  =   0.0 temperature during run
   SMASS  =  -3.00    Nose mass-parameter (am)
   estimated Nose-frequenzy (Omega)   =  0.10E-29 period in steps =****** mass=  -0.547E-26a.u.
   SCALEE = 1.0000    scale energy and forces
   NPACO  =    256;   APACO  = 16.0  distance and # of slots for P.C.
   PSTRESS=    0.0 pullay stress

  Mass of Ions in am
   POMASS =  28.09
  Ionic Valenz
   ZVAL   =   4.00
  Atomic Wigner-Seitz radii
   RWIGS  =  -1.00
  virtual crystal weights 
   VCA    =   1.00
   NELECT =     512.0000    total number of electrons
   NUPDOWN=      -1.0000    fix difference up-down

 DOS related values:
   EMIN   =  10.00;   EMAX   =-10.00  energy-range for DOS
   EFERMI =   0.00
   ISMEAR =     0;   SIGMA  =   0.01  broadening in eV -4-tet -1-fermi 0-gaus

 Electronic relaxation 2 (details)
   IALGO  =     38    algorithm
   LDIAG  =      T    sub-space diagonalisation (order eigenvalues)
   LSUBROT=      F    optimize rotation matrix (better conditioning)
   TURBO    =      0    0=normal 1=particle mesh
   IRESTART =      0    0=no restart 2=restart with 2 vectors
   NREBOOT  =      0    no. of reboots
   NMIN     =      0    reboot dimension
   EREF     =   0.00    reference energy to select bands
   IMIX   =      4    mixing-type and parameters
     AMIX     =   0.40;   BMIX     =  1.00
     AMIX_MAG =   1.60;   BMIX_MAG =  1.00
     AMIN     =   0.10
     WC   =   100.;   INIMIX=   1;  MIXPRE=   1;  MAXMIX= -45

 Intra band minimization:
   WEIMIN = 0.0000     energy-eigenvalue tresh-hold
   EBREAK =  0.78E-11  absolut break condition
   DEPER  =   0.30     relativ break condition  

   TIME   =   0.40     timestep for ELM

  volume/ion in A,a.u.               =      20.44       137.96
  Fermi-wavevector in a.u.,A,eV,Ry     =   0.950408  1.796010 12.289804  0.903275
  Thomas-Fermi vector in A             =   2.078782
 
 Write flags
   LWAVE        =      F    write WAVECAR
   LDOWNSAMPLE  =      F    k-point downsampling of WAVECAR
   LCHARG       =      F    write CHGCAR
   LVTOT        =      F    write LOCPOT, total local potential
   LVHAR        =      F    write LOCPOT, Hartree potential only
   LELF         =      F    write electronic localiz. function (ELF)
   LORBIT       =      0    0 simple, 1 ext, 2 COOP (PROOUT), +10 PAW based schemes


 Dipole corrections
   LMONO  =      F    monopole corrections only (constant potential shift)
   LDIPOL =      F    correct potential (dipole corrections)
   IDIPOL =      0    1-x, 2-y, 3-z, 4-all directions 
   EPSILON=  1.0000000 bulk dielectric constant

 Exchange correlation treatment:
   GGA     =    --    GGA type
   LEXCH   =     8    internal setting for exchange type
   VOSKOWN=      0    Vosko Wilk Nusair interpolation
   LHFCALC =     F    Hartree Fock is set to
   LHFONE  =     F    Hartree Fock one center treatment
   AEXX    =    0.0000 exact exchange contribution

 Linear response parameters
   LEPSILON=     F    determine dielectric tensor
   LRPA    =     F    only Hartree local field effects (RPA)
   LNABLA  =     F    use nabla operator in PAW spheres
   LVEL    =     F    velocity operator in full k-point grid
   LINTERFAST=   F  fast interpolation
   KINTER  =     0    interpolate to denser k-point grid
   CSHIFT  =0.1000    complex shift for real part using Kramers Kronig
   OMEGAMAX=  -1.0    maximum frequency
   DEG_THRESHOLD= 0.2000000E-02 threshold for treating states as degnerate
   RTIME   =   -0.100 relaxation time in fs
  (WPLASMAI=    0.000 imaginary part of plasma frequency in eV, 0.658/RTIME)
   DFIELD  = 0.0000000 0.0000000 0.0000000 field for delta impulse in time
 
 Orbital magnetization related:
   ORBITALMAG=     F  switch on orbital magnetization
   LCHIMAG   =     F  perturbation theory with respect to B field
   DQ        =  0.001000  dq finite difference perturbation B field
   LLRAUG    =     F  two centre corrections for induced B field



--------------------------------------------------------------------------------------------------------


 Static calculation
 charge density and potential will be updated during run
 non-spin polarized calculation
 Variant of blocked Davidson
 Davidson routine will perform the subspace rotation
 perform sub-space diagonalisation
    after iterative eigenvector-optimisation
 modified Broyden-mixing scheme, WC =      100.0
 initial mixing is a Kerker type mixing with AMIX =  0.4000 and BMIX =      1.0000
 Hartree-type preconditioning will be used
 using additional bands           66
 reciprocal scheme for non local part
 use partial core corrections
 calculate Harris-corrections to forces 
   (improved forces if not selfconsistent)
 use gradient corrections 
 use of overlap-Matrix (Vanderbilt PP)
 Gauss-broadening in eV      SIGMA  =   0.01


--------------------------------------------------------------------------------------------------------


  energy-cutoff  :      500.00
  volume of cell :     2616.76
      direct lattice vectors                 reciprocal lattice vectors
     0.000000000 10.937333691 10.937333691    -0.045714981  0.045714981  0.045714981
    10.937333691  0.000000000 10.937333691     0.045714981 -0.045714981  0.045714981
    10.937333691 10.937333691  0.000000000     0.045714981  0.045714981 -0.045714981

  length of vectors
    15.467725642 15.467725642 15.467725642     0.079180669  0.079180669  0.079180669


 
 k-points in units of 2pi/SCALE and weight: KPOINTS File, automatically generated by
   0.00000000  0.00000000  0.00000000       0.125
  -0.02285749  0.02285749  0.02285749       0.125
   0.02285749 -0.02285749  0.02285749       0.125
   0.00000000  0.00000000  0.04571498       0.125
   0.02285749  0.02285749 -0.02285749       0.125
   0.00000000  0.04571498  0.00000000       0.125
   0.04571498  0.00000000  0.00000000       0.125
   0.02285749  0.02285749  0.02285749       0.125
 
 k-points in reciprocal lattice and weights: KPOINTS File, automatically generated by
   0.00000000  0.00000000  0.00000000       0.125
   0.50000000  0.00000000  0.00000000       0.125
   0.00000000  0.50000000  0.00000000       0.125
   0.50000000  0.50000000  0.00000000       0.125
   0.00000000  0.00000000  0.50000000       0.125
   0.50000000  0.00000000  0.50000000       0.125
   0.00000000  0.50000000  0.50000000       0.125
   0.50000000  0.50000000  0.50000000       0.125
 
 position of ions in fractional coordinates (direct lattice) 
   0.00124828  0.98678263  0.00790499
   0.25011775  0.99084630  0.00621859
   0.50787599  0.99397697  0.00108733
   0.74893285  0.00565192  0.99951264
   0.00637194  0.24907837  0.99398802
   0.24601794  0.24711001  0.99483458
   0.49605570  0.25197907  0.00432043
   0.74482194  0.25619759  0.00037230
   0.99432632  0.50111942  0.00193514
   0.24186081  0.50447001  0.00136499
   0.50020634  0.49323829  0.00511335
   0.74998187  0.50989099  0.99585243
   0.00797439  0.74160092  0.99242791
   0.24562423  0.74799030  0.00709706
   0.50276465  0.75157449  0.99982920
   0.74671797  0.75479943  0.99610415
   0.99254528  0.99834206  0.24464824
   0.25866291  0.99325083  0.25488602
   0.49989248  0.99949128  0.24892921
   0.75229034  0.00267812  0.24638910
   0.00726284  0.24855614  0.24990364
   0.25562066  0.24496289  0.25118230
   0.50080962  0.25095162  0.25105836
   0.74992830  0.24390212  0.24698117
   0.00362233  0.51186431  0.24076629
   0.25186094  0.49567653  0.23530391
   0.50617238  0.48831205  0.26859614
   0.74467675  0.50669872  0.24432565
   0.99489823  0.74544228  0.25708483
   0.24085506  0.75054260  0.24994591
   0.50611130  0.74960650  0.24491005
   0.74540744  0.74968649  0.24483641
   0.00101850  0.01001034  0.50076675
   0.25860526  0.99332802  0.50097407
   0.49627892  0.00287794  0.50323161
   0.75038576  0.01092288  0.50889790
   0.99972306  0.25370697  0.49816518
   0.26550448  0.24539059  0.49506896
   0.50655255  0.24574174  0.49964814
   0.75111156  0.24080281  0.50156886
   0.99889648  0.51096232  0.48761993
   0.24361944  0.49960865  0.50403121
   0.50314138  0.49910371  0.49902952
   0.74813506  0.48154861  0.50541567
   0.00902130  0.74287499  0.50213615
   0.24993426  0.74589804  0.49975092
   0.49997583  0.76160998  0.48918042
   0.75584541  0.73472718  0.49677110
   0.99726638  0.00092757  0.74947010
   0.25563975  0.99775299  0.74782883
   0.50916257  0.99910383  0.74022373
   0.74785490  0.99489172  0.76552987
   0.99304072  0.25374769  0.75995696
   0.24793107  0.25020864  0.75255260
   0.49174858  0.24425884  0.75415063
   0.75312106  0.25488566  0.74821618
   0.00160164  0.50377045  0.75200981
   0.25090362  0.49997330  0.74780688
   0.50213758  0.50932716  0.73541682
   0.75465797  0.49397539  0.74782976
   0.99448707  0.75183747  0.75473441
   0.25223678  0.73393769  0.75160405
   0.49388735  0.75181534  0.75672176
   0.75664706  0.75204942  0.74706840
   0.06994611  0.06767841  0.06116168
   0.32086820  0.06367314  0.04961759
   0.55786369  0.07729392  0.05561353
   0.81079458  0.06292470  0.05975220
   0.05678687  0.31529279  0.06929091
   0.31505313  0.31029722  0.07529980
   0.57129442  0.30479699  0.06088487
   0.83019706  0.30505003  0.05412133
   0.05965289  0.56228910  0.05407355
   0.31027184  0.55605521  0.06245066
   0.56268227  0.56903588  0.05693317
   0.80357749  0.57184585  0.05987929
   0.05994656  0.80905245  0.06306765
   0.31937371  0.80727794  0.06090931
   0.57628622  0.81710233  0.06309748
   0.81382259  0.81727441  0.06035002
   0.05684716  0.06428760  0.31519926
   0.30129006  0.06359983  0.31590319
   0.55945974  0.06713564  0.32083917
   0.81418594  0.06970285  0.31426983
   0.05850059  0.30512588  0.32133717
   0.31883912  0.31859269  0.30304368
   0.56303948  0.31088066  0.31775871
   0.80986745  0.32157807  0.31270621
   0.07276682  0.55482949  0.31171624
   0.31502494  0.55480780  0.30620070
   0.54994330  0.57660099  0.30731657
   0.82961720  0.56069370  0.29806753
   0.05850639  0.80683348  0.31671027
   0.30908921  0.81018735  0.31175027
   0.56516893  0.81434538  0.31055891
   0.81163488  0.81837703  0.31072262
   0.07276946  0.05025519  0.56899978
   0.30871124  0.07281443  0.56161804
   0.56017090  0.06409761  0.56195976
   0.81343119  0.07417273  0.54996223
   0.05333530  0.30726089  0.57139202
   0.33264193  0.30631795  0.55512180
   0.56443694  0.31434316  0.56597308
   0.82404093  0.30579586  0.56208140
   0.06143793  0.56686033  0.56493839
   0.30922912  0.56482333  0.56375384
   0.56276786  0.57120887  0.54812487
   0.81603710  0.56125966  0.56839660
   0.04177722  0.82249791  0.56706140
   0.31850632  0.80899766  0.56375077
   0.54894070  0.82150847  0.57184795
   0.80089820  0.82568161  0.55364612
   0.06156941  0.06858367  0.81121747
   0.31462985  0.06470468  0.80465802
   0.55887826  0.05701541  0.82514712
   0.81701435  0.05625001  0.81751676
   0.06169613  0.31255172  0.81455688
   0.29195149  0.32933020  0.81753112
   0.55776868  0.31662358  0.80375423
   0.81390068  0.31273985  0.81438302
   0.05932820  0.56821626  0.81882049
   0.31119937  0.55170239  0.81150052
   0.56092850  0.57128077  0.80747045
   0.82557653  0.56617395  0.80971628
   0.06055824  0.81742296  0.81105825
   0.31466809  0.81135014  0.80187773
   0.56300727  0.80966945  0.81356989
   0.81434744  0.80509843  0.81803619
 
 position of ions in cartesian coordinates  (Angst):
  10.87923043  0.10011237 10.80642376
  10.90523147  2.80363609 13.57283792
  10.88335034  5.56670164 16.42626699
  10.99382026 19.12333175  8.25314543
  13.59583186 10.94127061  2.79394524
  13.58356241 13.57161804  5.39350491
   2.80323310  5.47278063  8.18150582
   2.80619050  8.15043802 10.94848468
   5.50207563 10.89644397 16.35618907
   5.53248614  2.66024175  8.16286925
   5.45063820  5.52685008 10.86563537
  16.46881819 19.09477235 13.77964987
  18.96565197 10.94173382  8.19835538
   8.25864247  2.76409712 10.86749376
  19.15568655 16.43437029 13.71912570
  19.15021677 19.06182712 16.42259694
  13.59499965 13.53159834 21.77499909
  13.65128925  5.61685604 13.69259841
  13.65439139  8.19011265 16.39926046
   2.72413129 10.92289027  8.25734193
   5.45182097  2.81271559  2.79797751
   5.42650552  5.54307313  5.47504931
   5.49065061  8.22343092  8.22226345
   5.36895428 10.90353148 10.86985486
   8.23177209  2.67295991  5.63804944
   7.99497702  5.32828459  8.17606681
   8.27855746  8.47390188 10.87700805
   8.21420416 10.81704927 13.68671106
  10.96497354 13.69335649 19.03468483
  10.94267660  5.36805397 10.84324701
  10.87735931  8.21417106 13.73420452
  10.87742877 10.83062742 16.35234123
   5.58653951  5.48819272  0.12062607
  16.34368064  8.30777264 13.69281209
   5.53548911 10.93198029  5.45944522
   5.68545337 13.77320564  8.32668673
   8.22347666 16.38290351 13.70918248
   8.09865322  8.31864553  5.58782985
   8.15257788 11.00515271  8.22809361
   8.11956669 13.70098379 10.84889845
  10.92182734 16.25852605 16.51382956
  10.97714405  8.17730470  8.12893364
  10.91691613 10.96107754 10.96188899
  10.79475761 13.71050262 13.44946061
  13.61710223  5.59069959  8.22374061
  13.62407837  8.19955697 10.89175021
  13.68031204 10.81873207 13.79838504
  13.46930766 13.70028479 16.30288989
   8.20734977 19.10463975 10.91758037
  19.09201078 10.97527069 13.70877465
  19.02360592 13.66495490 16.49641291
  19.25431838 16.55239421 19.06100128
  11.08722600 19.17312061 13.63654092
  10.96753436 10.94262380  5.44832031
  10.91993760 13.62681543  8.04995873
  10.97125957 16.42062642 11.02490582
  13.73488775  8.24249994  5.52742316
  13.64738817 10.92323000  8.21259136
  13.61418018 13.53554538 11.06272730
  13.58203731 16.43320966 13.65671964
  16.47787931 19.13181896 19.10013419
  16.24786581 10.97934219 10.78611930
  16.49937367 13.67832912 13.62466600
  16.39635176 16.44663772 16.50111678
   1.40916699  1.43396963  1.50524525
   1.23909850  4.05212664  4.20585692
   1.45365310  6.70980504  6.94693077
   1.34175813  9.52146056  9.55615923
   4.20632026  1.37895476  4.06955947
   4.21740325  4.26942024  6.83966542
   3.99958457  6.91435590  9.58210409
   3.92837707  9.67208534 12.41657629
   6.74136390  1.24386404  6.80238709
   6.76480511  4.07659032  9.47530799
   6.84643236  6.77694090 12.37797905
   6.90938863  9.44391499 15.04346405
   9.53866855  1.34544743  9.50453215
   9.49565364  4.15928226 12.32256502
   9.62703902  6.99315284 15.23995551
   9.59887117  9.56111747 17.83985210
   4.15057436  4.06919585  1.32489131
   4.15075124  6.75044861  3.99092254
   4.24340996  9.62812300  6.85328275
   4.19963734 12.34229731  9.66738663
   6.85183535  4.15441233  3.97710401
   6.79904442  6.80173976  6.97180439
   6.87563858  9.63358371  9.55835622
   6.93737877 12.27796270 12.37499715
   9.47769980  4.20521947  6.86423020
   9.41713732  6.79455213  9.51365100
   9.66770132  9.37613726 12.32139090
   9.39255807 12.33386413 15.20629421
  12.28857292  4.10386991  9.46451091
  12.27100617  6.79032853 12.24190120
  12.30345354  9.57812761 15.08820832
  12.34933954 12.27559844 17.82798412
   6.77299833  7.01924442  1.34556174
   6.93899963  9.51908180  4.17287355
   6.84739837 12.27311752  6.82783302
   6.82637230 14.91188876  9.70802027
   9.61012017  6.83285118  3.94396087
   9.42185401  9.70976823  6.98851742
   9.62831251 12.36367159  9.61151121
   9.49226329 15.16048252 12.35740206
  12.37886018  6.85088675  6.87190765
  12.34362505  9.54810589  9.55980326
  12.24252664 12.15020444 12.40268190
  12.35542746 15.14201330 15.06395423
  15.19807394  6.65907122  9.45286556
  15.01420767  9.64954022 12.33188727
  15.23960411 12.25843942 14.98905984
  15.08616765 14.81510321 17.79044615
   9.62267866  9.54596136  1.42352772
   9.50851004 12.24202499  4.14890842
   9.64850604 15.13754743  6.73623462
   9.55667872 17.87741216  9.55118364
  12.32756285  9.58387159  4.09327368
  12.54360495 12.13478151  6.79516517
  12.25394593 14.89143037  9.56351984
  12.32771898 17.80908218 12.32244350
  15.17048384  9.60460530  6.86366321
  14.90980517 12.27934339  9.43784451
  15.07986208 14.96663585 12.38335049
  15.04857056 17.88574314 15.22203949
  17.81124244  9.53316048  9.60277339
  17.64441156 12.21203415 12.31563711
  17.75391032 15.05608369 15.01342338
  17.75276503 17.85392452 17.71241992
 


--------------------------------------------------------------------------------------------------------


 k-point  1 :   0.0000 0.0000 0.0000  plane waves:   66299
 k-point  2 :   0.5000 0.0000 0.0000  plane waves:   66394
 k-point  3 :   0.0000 0.5000 0.0000  plane waves:   66394
 k-point  4 :   0.5000 0.5000 0.0000  plane waves:   66552
 k-point  5 :   0.0000 0.0000 0.5000  plane waves:   66394
 k-point  6 :   0.5000 0.0000 0.5000  plane waves:   66552
 k-point  7 :   0.0000 0.5000 0.5000  plane waves:   66552
 k-point  8 :   0.5000 0.5000 0.5000  plane waves:   66394

 maximum and minimum number of plane-waves per node :      4207     4110

 maximum number of plane-waves:     66552
 maximum index in each direction: 
   IXMAX=   28   IYMAX=   28   IZMAX=   28
   IXMIN=  -28   IYMIN=  -28   IZMIN=  -28


 parallel 3D FFT for wavefunctions:
    minimum data exchange during FFTs selected (reduces bandwidth)
 parallel 3D FFT for charge:
    minimum data exchange during FFTs selected (reduces bandwidth)


 total amount of memory used by VASP MPI-rank0   221701. kBytes
=======================================================================

   base      :      30000. kBytes
   nonl-proj :      10690. kBytes
   fftplans  :      66746. kBytes
   grid      :      26864. kBytes
   one-center:         24. kBytes
   wavefun   :      87377. kBytes
 
     INWAV:  cpu time    0.0000: real time    0.0000
 Broyden mixing: mesh for mixing (old mesh)
   NGX = 57   NGY = 57   NGZ = 57
  (NGX  =240   NGY  =240   NGZ  =240)
  gives a total of 185193 points

 initial charge density was supplied:
 charge density of overlapping atoms calculated
 number of electron     512.0000000 magnetization 
 keeping initial charge density in first step


--------------------------------------------------------------------------------------------------------


 Maximum index for augmentation-charges         5607 (set IRDMAX)


--------------------------------------------------------------------------------------------------------


 First call to EWALD:  gamma=   0.129
 Maximum number of real-space cells 3x 3x 3
 Maximum number of reciprocal cells 3x 3x 3

    FEWALD:  cpu time    0.0059: real time    0.0059


--------------------------------------- Iteration      1(   1)  ---------------------------------------


    POTLOK:  cpu time    0.4880: real time    0.4972
    SETDIJ:  cpu time    0.5129: real time    0.5129
     EDDAV:  cpu time   69.5466: real time   69.5603
       DOS:  cpu time    0.0056: real time    0.0056
    --------------------------------------------
      LOOP:  cpu time   70.5530: real time   70.5760

 eigenvalue-minimisations  :  5152
 total energy-change (2. order) : 0.1383176E+04  (-0.1908265E+05)
 number of electron     512.0000000 magnetization 
 augmentation part      512.0000000 magnetization 

 Free energy of the ion-electron system (eV)
  ---------------------------------------------------
  alpha Z        PSCENC =       210.77028614
  Ewald energy   TEWEN  =    -14471.81209609
  -Hartree energ DENC   =      -755.92482026
  -exchange      EXHF   =         0.00000000
  -V(xc)+E(xc)   XCENC  =     -1195.33990349
  PAW double counting   =      4221.13331941    -1969.18571412
  entropy T*S    EENTRO =        -0.00026879
  eigenvalues    EBANDS =      2151.05411712
  atomic energy  EATOM  =     13192.48085998
  Solvation  Ediel_sol  =         0.00000000
  ---------------------------------------------------
  free energy    TOTEN  =      1383.17577991 eV

  energy without entropy =     1383.17604870  energy(sigma->0) =     1383.17591431


--------------------------------------------------------------------------------------------------------




--------------------------------------- Iteration      1(   2)  ---------------------------------------


     EDDAV:  cpu time   79.0855: real time   79.1008
       DOS:  cpu time    0.0011: real time    0.0011
    --------------------------------------------
      LOOP:  cpu time   79.0866: real time   79.1019

 eigenvalue-minimisations  :  6112
 total energy-change (2. order) :-0.1920193E+04  (-0.1826519E+04)
 number of electron     512.0000000 magnetization 
 augmentation part      512.0000000 magnetization 

 Free energy of the ion-electron system (eV)
  ---------------------------------------------------
  alpha Z        PSCENC =       210.77028614
  Ewald energy   TEWEN  =    -14471.81209609
  -Hartree energ DENC   =      -755.92482026
  -exchange      EXHF   =         0.00000000
  -V(xc)+E(xc)   XCENC  =     -1195.33990349
  PAW double counting   =      4221.13331941    -1969.18571412
  entropy T*S    EENTRO =        -0.00000000
  eigenvalues    EBANDS =       230.86049523
  atomic energy  EATOM  =     13192.48085998
  Solvation  Ediel_sol  =         0.00000000
  ---------------------------------------------------
  free energy    TOTEN  =      -537.01757319 eV

  energy without entropy =     -537.01757319  energy(sigma->0) =     -537.01757319


--------------------------------------------------------------------------------------------------------




--------------------------------------- Iteration      1(   3)  ---------------------------------------


     EDDAV:  cpu time   80.9843: real time   81.0068
       DOS:  cpu time    0.0013: real time    0.0013
    --------------------------------------------
      LOOP:  cpu time   80.9856: real time   81.0081

 eigenvalue-minimisations  :  6296
 total energy-change (2. order) :-0.1498142E+03  (-0.1468792E+03)
 number of electron     512.0000000 magnetization 
 augmentation part      512.0000000 magnetization 

 Free energy of the ion-electron system (eV)
  ---------------------------------------------------
  alpha Z        PSCENC =       210.77028614
  Ewald energy   TEWEN  =    -14471.81209609
  -Hartree energ DENC   =      -755.92482026
  -exchange      EXHF   =         0.00000000
  -V(xc)+E(xc)   XCENC  =     -1195.33990349
  PAW double counting   =      4221.13331941    -1969.18571412
  entropy T*S    EENTRO =        -0.00000000
  eigenvalues    EBANDS =        81.04626342
  atomic energy  EATOM  =     13192.48085998
  Solvation  Ediel_sol  =         0.00000000
  ---------------------------------------------------
  free energy    TOTEN  =      -686.83180500 eV

  energy without entropy =     -686.83180500  energy(sigma->0) =     -686.83180500


--------------------------------------------------------------------------------------------------------




--------------------------------------- Iteration      1(   4)  ---------------------------------------


     EDDAV:  cpu time   80.0272: real time   80.0406
       DOS:  cpu time    0.0016: real time    0.0016
    --------------------------------------------
      LOOP:  cpu time   80.0288: real time   80.0422

 eigenvalue-minimisations  :  6200
 total energy-change (2. order) :-0.4185444E+01  (-0.4150965E+01)
 number of electron     512.0000000 magnetization 
 augmentation part      512.0000000 magnetization 

 Free energy of the ion-electron system (eV)
  ---------------------------------------------------
  alpha Z        PSCENC =       210.77028614
  Ewald energy   TEWEN  =    -14471.81209609
  -Hartree energ DENC   =      -755.92482026
  -exchange      EXHF   =         0.00000000
  -V(xc)+E(xc)   XCENC  =     -1195.33990349
  PAW double counting   =      4221.13331941    -1969.18571412
  entropy T*S    EENTRO =        -0.00000000
  eigenvalues    EBANDS =        76.86081960
  atomic energy  EATOM  =     13192.48085998
  Solvation  Ediel_sol  =         0.00000000
  ---------------------------------------------------
  free energy    TOTEN  =      -691.01724881 eV

  energy without entropy =     -691.01724881  energy(sigma->0) =     -691.01724881


--------------------------------------------------------------------------------------------------------




--------------------------------------- Iteration      1(   5)  ---------------------------------------


     EDDAV:  cpu time   80.6022: real time   80.6262
       DOS:  cpu time    0.0014: real time    0.0014
    CHARGE:  cpu time    3.1891: real time    3.1906
    MIXING:  cpu time    0.0298: real time    0.0298
    --------------------------------------------
      LOOP:  cpu time   83.8225: real time   83.8480

 eigenvalue-minimisations  :  6264
 total energy-change (2. order) :-0.1422148E+00  (-0.1418033E+00)
 number of electron     511.9999998 magnetization 
 augmentation part      -30.1749651 magnetization 

 Broyden mixing:
  rms(total) = 0.23965E+01    rms(broyden)= 0.23965E+01
  rms(prec ) = 0.29025E+01
  weight for this iteration     100.00

 Free energy of the ion-electron system (eV)
  ---------------------------------------------------
  alpha Z        PSCENC =       210.77028614
  Ewald energy   TEWEN  =    -14471.81209609
  -Hartree energ DENC   =      -755.92482026
  -exchange      EXHF   =         0.00000000
  -V(xc)+E(xc)   XCENC  =     -1195.33990349
  PAW double counting   =      4221.13331941    -1969.18571412
  entropy T*S    EENTRO =        -0.00000000
  eigenvalues    EBANDS =        76.71860479
  atomic energy  EATOM  =     13192.48085998
  Solvation  Ediel_sol  =         0.00000000
  ---------------------------------------------------
  free energy    TOTEN  =      -691.15946363 eV

  energy without entropy =     -691.15946363  energy(sigma->0) =     -691.15946363


--------------------------------------------------------------------------------------------------------




--------------------------------------- Iteration      1(   6)  ---------------------------------------


    POTLOK:  cpu time    0.4910: real time    0.4940
    SETDIJ:  cpu time    0.5105: real time    0.5105
     EDDAV:  cpu time   76.8608: real time   76.8833
       DOS:  cpu time    0.0012: real time    0.0012
    CHARGE:  cpu time    3.1524: real time    3.1527
    MIXING:  cpu time    0.0377: real time    0.0377
    --------------------------------------------
      LOOP:  cpu time   81.0536: real time   81.0794

 eigenvalue-minimisations  :  5904
 total energy-change (2. order) : 0.8389730E+01  (-0.5791622E+00)
 number of electron     511.9999998 magnetization 
 augmentation part      -29.8341080 magnetization 

 Broyden mixing:
  rms(total) = 0.14242E+01    rms(broyden)= 0.14242E+01
  rms(prec ) = 0.17156E+01
  weight for this iteration     100.00

 eigenvalues of (default mixing * dielectric matrix)
  average eigenvalue GAMMA=   2.4311
  2.4311

 Free energy of the ion-electron system (eV)
  ---------------------------------------------------
  alpha Z        PSCENC =       210.77028614
  Ewald energy   TEWEN  =    -14471.81209609
  -Hartree energ DENC   =      -851.01586752
  -exchange      EXHF   =         0.00000000
  -V(xc)+E(xc)   XCENC  =     -1180.69474321
  PAW double counting   =      4465.86482866    -2220.69039269
  entropy T*S    EENTRO =        -0.00000000
  eigenvalues    EBANDS =       172.32739079
  atomic energy  EATOM  =     13192.48085998
  Solvation  Ediel_sol  =         0.00000000
  ---------------------------------------------------
  free energy    TOTEN  =      -682.76973393 eV

  energy without entropy =     -682.76973393  energy(sigma->0) =     -682.76973393


--------------------------------------------------------------------------------------------------------




--------------------------------------- Iteration      1(   7)  ---------------------------------------


    POTLOK:  cpu time    0.4900: real time    0.4931
    SETDIJ:  cpu time    0.5099: real time    0.5099
     EDDAV:  cpu time   75.7378: real time   75.7575
       DOS:  cpu time    0.0013: real time    0.0013
    CHARGE:  cpu time    3.1588: real time    3.1591
    MIXING:  cpu time    0.0238: real time    0.0238
    --------------------------------------------
      LOOP:  cpu time   79.9216: real time   79.9446

 eigenvalue-minimisations  :  5792
 total energy-change (2. order) : 0.3523250E+01  (-0.1102964E+01)
 number of electron     511.9999998 magnetization 
 augmentation part      -29.3846076 magnetization 

 Broyden mixing:
  rms(total) = 0.15414E+00    rms(broyden)= 0.15414E+00
  rms(prec ) = 0.19924E+00
  weight for this iteration     100.00

 eigenvalues of (default mixing * dielectric matrix)
  average eigenvalue GAMMA=   2.0853
  2.0853  2.0853

 Free energy of the ion-electron system (eV)
  ---------------------------------------------------
  alpha Z        PSCENC =       210.77028614
  Ewald energy   TEWEN  =    -14471.81209609
  -Hartree energ DENC   =     -1001.36017301
  -exchange      EXHF   =         0.00000000
  -V(xc)+E(xc)   XCENC  =     -1156.76698569
  PAW double counting   =      4785.89830804    -2549.26023640
  entropy T*S    EENTRO =        -0.00000000
  eigenvalues    EBANDS =       310.80355286
  atomic energy  EATOM  =     13192.48085998
  Solvation  Ediel_sol  =         0.00000000
  ---------------------------------------------------
  free energy    TOTEN  =      -679.24648415 eV

  energy without entropy =     -679.24648415  energy(sigma->0) =     -679.24648415


--------------------------------------------------------------------------------------------------------




--------------------------------------- Iteration      1(   8)  ---------------------------------------


    POTLOK:  cpu time    0.4903: real time    0.4943
    SETDIJ:  cpu time    0.5103: real time    0.5103
     EDDAV:  cpu time   75.6943: real time   75.7155
       DOS:  cpu time    0.0018: real time    0.0018
    CHARGE:  cpu time    3.1346: real time    3.1349
    MIXING:  cpu time    0.0292: real time    0.0292
    --------------------------------------------
      LOOP:  cpu time   79.8604: real time   79.8859

 eigenvalue-minimisations  :  5792
 total energy-change (2. order) :-0.5468372E-01  (-0.1006342E+00)
 number of electron     511.9999998 magnetization 
 augmentation part      -29.4518199 magnetization 

 Broyden mixing:
  rms(total) = 0.62047E-01    rms(broyden)= 0.62047E-01
  rms(prec ) = 0.76167E-01
  weight for this iteration     100.00

 eigenvalues of (default mixing * dielectric matrix)
  average eigenvalue GAMMA=   2.0047
  2.6693  1.6724  1.6724

 Free energy of the ion-electron system (eV)
  ---------------------------------------------------
  alpha Z        PSCENC =       210.77028614
  Ewald energy   TEWEN  =    -14471.81209609
  -Hartree energ DENC   =      -995.38203025
  -exchange      EXHF   =         0.00000000
  -V(xc)+E(xc)   XCENC  =     -1156.82914997
  PAW double counting   =      4740.02808215    -2501.96154131
  entropy T*S    EENTRO =        -0.00000000
  eigenvalues    EBANDS =       303.40442148
  atomic energy  EATOM  =     13192.48085998
  Solvation  Ediel_sol  =         0.00000000
  ---------------------------------------------------
  free energy    TOTEN  =      -679.30116787 eV

  energy without entropy =     -679.30116787  energy(sigma->0) =     -679.30116787


--------------------------------------------------------------------------------------------------------




--------------------------------------- Iteration      1(   9)  ---------------------------------------


    POTLOK:  cpu time    0.4886: real time    0.4923
    SETDIJ:  cpu time    0.5069: real time    0.5072
     EDDAV:  cpu time   79.2321: real time   79.2594
       DOS:  cpu time    0.0011: real time    0.0011
    CHARGE:  cpu time    3.1218: real time    3.1226
    MIXING:  cpu time    0.0266: real time    0.0266
    --------------------------------------------
      LOOP:  cpu time   83.3771: real time   83.4092

 eigenvalue-minimisations  :  6152
 total energy-change (2. order) :-0.2330745E-01  (-0.1015070E-01)
 number of electron     511.9999998 magnetization 
 augmentation part      -29.4588193 magnetization 

 Broyden mixing:
  rms(total) = 0.26865E-01    rms(broyden)= 0.26865E-01
  rms(prec ) = 0.31434E-01
  weight for this iteration     100.00

 eigenvalues of (default mixing * dielectric matrix)
  average eigenvalue GAMMA=   1.7809
  2.5926  1.8262  1.8262  0.8785

 Free energy of the ion-electron system (eV)
  ---------------------------------------------------
  alpha Z        PSCENC =       210.77028614
  Ewald energy   TEWEN  =    -14471.81209609
  -Hartree energ DENC   =     -1001.34573083
  -exchange      EXHF   =         0.00000000
  -V(xc)+E(xc)   XCENC  =     -1155.74541495
  PAW double counting   =      4740.65269005    -2502.59781202
  entropy T*S    EENTRO =        -0.00000000
  eigenvalues    EBANDS =       308.27274238
  atomic energy  EATOM  =     13192.48085998
  Solvation  Ediel_sol  =         0.00000000
  ---------------------------------------------------
  free energy    TOTEN  =      -679.32447533 eV

  energy without entropy =     -679.32447533  energy(sigma->0) =     -679.32447533


--------------------------------------------------------------------------------------------------------




--------------------------------------- Iteration      1(  10)  ---------------------------------------


    POTLOK:  cpu time    0.4899: real time    0.4911
    SETDIJ:  cpu time    0.5122: real time    0.5122
     EDDAV:  cpu time   77.5190: real time   77.5388
       DOS:  cpu time    0.0014: real time    0.0014
    CHARGE:  cpu time    3.1397: real time    3.1401
    MIXING:  cpu time    0.0373: real time    0.0373
    --------------------------------------------
      LOOP:  cpu time   81.6994: real time   81.7209

 eigenvalue-minimisations  :  5960
 total energy-change (2. order) :-0.2453963E-02  (-0.7411011E-03)
 number of electron     511.9999998 magnetization 
 augmentation part      -29.4668754 magnetization 

 Broyden mixing:
  rms(total) = 0.11149E-01    rms(broyden)= 0.11149E-01
  rms(prec ) = 0.13432E-01
  weight for this iteration     100.00

 eigenvalues of (default mixing * dielectric matrix)
  average eigenvalue GAMMA=   1.8457
  2.6592  2.6592  1.4975  1.4975  0.9148

 Free energy of the ion-electron system (eV)
  ---------------------------------------------------
  alpha Z        PSCENC =       210.77028614
  Ewald energy   TEWEN  =    -14471.81209609
  -Hartree energ DENC   =     -1000.45339180
  -exchange      EXHF   =         0.00000000
  -V(xc)+E(xc)   XCENC  =     -1155.88415511
  PAW double counting   =      4734.37366942    -2496.16565583
  entropy T*S    EENTRO =        -0.00000000
  eigenvalues    EBANDS =       307.36355399
  atomic energy  EATOM  =     13192.48085998
  Solvation  Ediel_sol  =         0.00000000
  ---------------------------------------------------
  free energy    TOTEN  =      -679.32692929 eV

  energy without entropy =     -679.32692929  energy(sigma->0) =     -679.32692929


--------------------------------------------------------------------------------------------------------




--------------------------------------- Iteration      1(  11)  ---------------------------------------


    POTLOK:  cpu time    0.4883: real time    0.4917
    SETDIJ:  cpu time    0.5137: real time    0.5137
     EDDAV:  cpu time   76.1275: real time   76.1515
       DOS:  cpu time    0.0012: real time    0.0012
    CHARGE:  cpu time    3.1050: real time    3.1057
    MIXING:  cpu time    0.0257: real time    0.0257
    --------------------------------------------
      LOOP:  cpu time   80.2614: real time   80.2895

 eigenvalue-minimisations  :  5840
 total energy-change (2. order) :-0.1493254E-02  (-0.2295807E-03)
 number of electron     511.9999998 magnetization 
 augmentation part      -29.4693444 magnetization 

 Broyden mixing:
  rms(total) = 0.34430E-02    rms(broyden)= 0.34430E-02
  rms(prec ) = 0.48618E-02
  weight for this iteration     100.00

 eigenvalues of (default mixing * dielectric matrix)
  average eigenvalue GAMMA=   1.7700
  2.8482  2.1178  1.8853  1.6492  1.2363  0.8833

 Free energy of the ion-electron system (eV)
  ---------------------------------------------------
  alpha Z        PSCENC =       210.77028614
  Ewald energy   TEWEN  =    -14471.81209609
  -Hartree energ DENC   =     -1000.46623321
  -exchange      EXHF   =         0.00000000
  -V(xc)+E(xc)   XCENC  =     -1155.88010016
  PAW double counting   =      4730.35471381    -2492.05506802
  entropy T*S    EENTRO =        -0.00000000
  eigenvalues    EBANDS =       307.27921500
  atomic energy  EATOM  =     13192.48085998
  Solvation  Ediel_sol  =         0.00000000
  ---------------------------------------------------
  free energy    TOTEN  =      -679.32842254 eV

  energy without entropy =     -679.32842254  energy(sigma->0) =     -679.32842254


--------------------------------------------------------------------------------------------------------




--------------------------------------- Iteration      1(  12)  ---------------------------------------


    POTLOK:  cpu time    0.4890: real time    0.4926
    SETDIJ:  cpu time    0.5113: real time    0.5113
     EDDAV:  cpu time   79.0449: real time   79.0757
       DOS:  cpu time    0.0010: real time    0.0010
    CHARGE:  cpu time    3.1022: real time    3.1027
    MIXING:  cpu time    0.0364: real time    0.0364
    --------------------------------------------
      LOOP:  cpu time   83.1848: real time   83.2197

 eigenvalue-minimisations  :  6136
 total energy-change (2. order) :-0.8660070E-04  (-0.3905145E-04)
 number of electron     511.9999998 magnetization 
 augmentation part      -29.4676641 magnetization 

 Broyden mixing:
  rms(total) = 0.17297E-02    rms(broyden)= 0.17297E-02
  rms(prec ) = 0.20798E-02
  weight for this iteration     100.00

 eigenvalues of (default mixing * dielectric matrix)
  average eigenvalue GAMMA=   1.8296
  3.1430  2.6895  1.7575  1.7575  0.8950  1.2822  1.2822

 Free energy of the ion-electron system (eV)
  ---------------------------------------------------
  alpha Z        PSCENC =       210.77028614
  Ewald energy   TEWEN  =    -14471.81209609
  -Hartree energ DENC   =     -1001.00947428
  -exchange      EXHF   =         0.00000000
  -V(xc)+E(xc)   XCENC  =     -1155.82067134
  PAW double counting   =      4731.38959433    -2493.12690371
  entropy T*S    EENTRO =        -0.00000000
  eigenvalues    EBANDS =       307.79989583
  atomic energy  EATOM  =     13192.48085998
  Solvation  Ediel_sol  =         0.00000000
  ---------------------------------------------------
  free energy    TOTEN  =      -679.32850914 eV

  energy without entropy =     -679.32850914  energy(sigma->0) =     -679.32850914


--------------------------------------------------------------------------------------------------------




--------------------------------------- Iteration      1(  13)  ---------------------------------------


    POTLOK:  cpu time    0.4883: real time    0.4919
    SETDIJ:  cpu time    0.5122: real time    0.5122
     EDDAV:  cpu time   75.3563: real time   75.3748
       DOS:  cpu time    0.0010: real time    0.0010
    CHARGE:  cpu time    3.1118: real time    3.1121
    MIXING:  cpu time    0.0285: real time    0.0285
    --------------------------------------------
      LOOP:  cpu time   79.4982: real time   79.5206

 eigenvalue-minimisations  :  5760
 total energy-change (2. order) :-0.2732536E-04  (-0.9881654E-05)
 number of electron     511.9999998 magnetization 
 augmentation part      -29.4676727 magnetization 

 Broyden mixing:
  rms(total) = 0.61038E-03    rms(broyden)= 0.61036E-03
  rms(prec ) = 0.79189E-03
  weight for this iteration     100.00

 eigenvalues of (default mixing * dielectric matrix)
  average eigenvalue GAMMA=   1.7738
  3.1445  2.5399  1.8994  1.8994  1.4000  1.4000  0.9538  0.9538

 Free energy of the ion-electron system (eV)
  ---------------------------------------------------
  alpha Z        PSCENC =       210.77028614
  Ewald energy   TEWEN  =    -14471.81209609
  -Hartree energ DENC   =     -1001.00295518
  -exchange      EXHF   =         0.00000000
  -V(xc)+E(xc)   XCENC  =     -1155.83123980
  PAW double counting   =      4730.85714448    -2492.58407529
  entropy T*S    EENTRO =        -0.00000000
  eigenvalues    EBANDS =       307.79353929
  atomic energy  EATOM  =     13192.48085998
  Solvation  Ediel_sol  =         0.00000000
  ---------------------------------------------------
  free energy    TOTEN  =      -679.32853647 eV

  energy without entropy =     -679.32853647  energy(sigma->0) =     -679.32853647


--------------------------------------------------------------------------------------------------------




--------------------------------------- Iteration      1(  14)  ---------------------------------------


    POTLOK:  cpu time    0.4913: real time    0.4926
    SETDIJ:  cpu time    0.5129: real time    0.5129
     EDDAV:  cpu time   78.9977: real time   79.0223
       DOS:  cpu time    0.0010: real time    0.0010
    CHARGE:  cpu time    3.2196: real time    3.2201
    MIXING:  cpu time    0.0378: real time    0.0378
    --------------------------------------------
      LOOP:  cpu time   83.2603: real time   83.2868

 eigenvalue-minimisations  :  6128
 total energy-change (2. order) :-0.5861717E-05  (-0.9503405E-06)
 number of electron     511.9999998 magnetization 
 augmentation part      -29.4674663 magnetization 

 Broyden mixing:
  rms(total) = 0.16633E-03    rms(broyden)= 0.16626E-03
  rms(prec ) = 0.22584E-03
  weight for this iteration     100.00

 eigenvalues of (default mixing * dielectric matrix)
  average eigenvalue GAMMA=   1.7726
  3.2108  2.5927  2.2329  1.6571  1.6571  1.3359  1.3359  0.9983  0.9330

 Free energy of the ion-electron system (eV)
  ---------------------------------------------------
  alpha Z        PSCENC =       210.77028614
  Ewald energy   TEWEN  =    -14471.81209609
  -Hartree energ DENC   =     -1001.06565899
  -exchange      EXHF   =         0.00000000
  -V(xc)+E(xc)   XCENC  =     -1155.82306933
  PAW double counting   =      4731.04532999    -2492.77675010
  entropy T*S    EENTRO =        -0.00000000
  eigenvalues    EBANDS =       307.85255606
  atomic energy  EATOM  =     13192.48085998
  Solvation  Ediel_sol  =         0.00000000
  ---------------------------------------------------
  free energy    TOTEN  =      -679.32854233 eV

  energy without entropy =     -679.32854233  energy(sigma->0) =     -679.32854233


--------------------------------------------------------------------------------------------------------




--------------------------------------- Iteration      1(  15)  ---------------------------------------


    POTLOK:  cpu time    0.4873: real time    0.4909
    SETDIJ:  cpu time    0.5120: real time    0.5120
     EDDAV:  cpu time   79.7264: real time   79.7465
       DOS:  cpu time    0.0011: real time    0.0011
    CHARGE:  cpu time    3.2274: real time    3.2278
    MIXING:  cpu time    0.0238: real time    0.0238
    --------------------------------------------
      LOOP:  cpu time   83.9779: real time   84.0020

 eigenvalue-minimisations  :  6208
 total energy-change (2. order) :-0.2861329E-05  (-0.1260106E-06)
 number of electron     511.9999998 magnetization 
 augmentation part      -29.4673633 magnetization 

 Broyden mixing:
  rms(total) = 0.63310E-04    rms(broyden)= 0.63129E-04
  rms(prec ) = 0.83195E-04
  weight for this iteration     100.00

 eigenvalues of (default mixing * dielectric matrix)
  average eigenvalue GAMMA=   1.7343
  3.2627  2.6070  2.0439  1.7032  1.7032  1.5081  1.5081  0.9415  0.9415  1.1236

 Free energy of the ion-electron system (eV)
  ---------------------------------------------------
  alpha Z        PSCENC =       210.77028614
  Ewald energy   TEWEN  =    -14471.81209609
  -Hartree energ DENC   =     -1001.08531984
  -exchange      EXHF   =         0.00000000
  -V(xc)+E(xc)   XCENC  =     -1155.82207841
  PAW double counting   =      4731.10063360    -2492.83370655
  entropy T*S    EENTRO =        -0.00000000
  eigenvalues    EBANDS =       307.87287597
  atomic energy  EATOM  =     13192.48085998
  Solvation  Ediel_sol  =         0.00000000
  ---------------------------------------------------
  free energy    TOTEN  =      -679.32854519 eV

  energy without entropy =     -679.32854519  energy(sigma->0) =     -679.32854519


--------------------------------------------------------------------------------------------------------




--------------------------------------- Iteration      1(  16)  ---------------------------------------


    POTLOK:  cpu time    0.4923: real time    0.4931
    SETDIJ:  cpu time    0.5143: real time    0.5143
     EDDAV:  cpu time   77.8755: real time   77.8917
       DOS:  cpu time    0.0011: real time    0.0011
    CHARGE:  cpu time    3.0889: real time    3.0901
    MIXING:  cpu time    0.0366: real time    0.0366
    --------------------------------------------
      LOOP:  cpu time   82.0087: real time   82.0269

 eigenvalue-minimisations  :  6016
 total energy-change (2. order) : 0.5513812E-06  (-0.2054929E-07)
 number of electron     511.9999998 magnetization 
 augmentation part      -29.4673687 magnetization 

 Broyden mixing:
  rms(total) = 0.24291E-04    rms(broyden)= 0.23816E-04
  rms(prec ) = 0.30482E-04
  weight for this iteration     100.00

 eigenvalues of (default mixing * dielectric matrix)
  average eigenvalue GAMMA=   1.7077
  3.2832  2.6303  2.0539  2.0539  1.4739  1.4739  1.4350  1.4350  0.9132  1.0163
  1.0163

 Free energy of the ion-electron system (eV)
  ---------------------------------------------------
  alpha Z        PSCENC =       210.77028614
  Ewald energy   TEWEN  =    -14471.81209609
  -Hartree energ DENC   =     -1001.08367636
  -exchange      EXHF   =         0.00000000
  -V(xc)+E(xc)   XCENC  =     -1155.82218740
  PAW double counting   =      4731.09258022    -2492.82519221
  entropy T*S    EENTRO =        -0.00000000
  eigenvalues    EBANDS =       307.87088108
  atomic energy  EATOM  =     13192.48085998
  Solvation  Ediel_sol  =         0.00000000
  ---------------------------------------------------
  free energy    TOTEN  =      -679.32854464 eV

  energy without entropy =     -679.32854464  energy(sigma->0) =     -679.32854464


--------------------------------------------------------------------------------------------------------




--------------------------------------- Iteration      1(  17)  ---------------------------------------


    POTLOK:  cpu time    0.4900: real time    0.4931
    SETDIJ:  cpu time    0.5179: real time    0.5182
     EDDAV:  cpu time   55.2989: real time   55.3087
       DOS:  cpu time    0.0015: real time    0.0015
    CHARGE:  cpu time    3.1096: real time    3.1123
    MIXING:  cpu time    0.0530: real time    0.0530
    --------------------------------------------
      LOOP:  cpu time   59.4710: real time   59.4868

 eigenvalue-minimisations  :  3720
 total energy-change (2. order) :-0.2779780E-07  (-0.2129910E-08)
 number of electron     511.9999998 magnetization 
 augmentation part      -29.4673672 magnetization 

 Broyden mixing:
  rms(total) = 0.12671E-04    rms(broyden)= 0.11734E-04
  rms(prec ) = 0.14572E-04
  weight for this iteration     100.00

 eigenvalues of (default mixing * dielectric matrix)
  average eigenvalue GAMMA=   1.7281
  3.2948  2.5986  2.4230  1.8795  1.8795  1.4579  1.4579  1.5020  0.9239  1.2180
  1.0508  1.0508

 Free energy of the ion-electron system (eV)
  ---------------------------------------------------
  alpha Z        PSCENC =       210.77028614
  Ewald energy   TEWEN  =    -14471.81209609
  -Hartree energ DENC   =     -1001.08378686
  -exchange      EXHF   =         0.00000000
  -V(xc)+E(xc)   XCENC  =     -1155.82216474
  PAW double counting   =      4731.09585776    -2492.82844479
  entropy T*S    EENTRO =        -0.00000000
  eigenvalues    EBANDS =       307.87094392
  atomic energy  EATOM  =     13192.48085998
  Solvation  Ediel_sol  =         0.00000000
  ---------------------------------------------------
  free energy    TOTEN  =      -679.32854467 eV

  energy without entropy =     -679.32854467  energy(sigma->0) =     -679.32854467


--------------------------------------------------------------------------------------------------------




--------------------------------------- Iteration      1(  18)  ---------------------------------------


    POTLOK:  cpu time    0.4894: real time    0.4927
    SETDIJ:  cpu time    0.5102: real time    0.5103
     EDDAV:  cpu time   51.4264: real time   51.4401
       DOS:  cpu time    0.0010: real time    0.0010
    CHARGE:  cpu time    3.0917: real time    3.0922
    MIXING:  cpu time    0.0416: real time    0.0416
    --------------------------------------------
      LOOP:  cpu time   55.5604: real time   55.5779

 eigenvalue-minimisations  :  3328
 total energy-change (2. order) :-0.9165524E-07  (-0.6090002E-09)
 number of electron     511.9999998 magnetization 
 augmentation part      -29.4673630 magnetization 

 Broyden mixing:
  rms(total) = 0.63995E-05    rms(broyden)= 0.42530E-05
  rms(prec ) = 0.62744E-05
  weight for this iteration     100.00
  WARNING: grid for Broyden might be to small

 eigenvalues of (default mixing * dielectric matrix)
  average eigenvalue GAMMA=   1.7189
  3.2606  2.6580  2.3519  2.3519  1.7260  1.7260  1.4034  1.4034  1.2703  1.2703
  0.9253  0.9994  0.9994

 Free energy of the ion-electron system (eV)
  ---------------------------------------------------
  alpha Z        PSCENC =       210.77028614
  Ewald energy   TEWEN  =    -14471.81209609
  -Hartree energ DENC   =     -1001.08461085
  -exchange      EXHF   =         0.00000000
  -V(xc)+E(xc)   XCENC  =     -1155.82205552
  PAW double counting   =      4731.09970699    -2492.83234322
  entropy T*S    EENTRO =        -0.00000000
  eigenvalues    EBANDS =       307.87170779
  atomic energy  EATOM  =     13192.48085998
  Solvation  Ediel_sol  =         0.00000000
  ---------------------------------------------------
  free energy    TOTEN  =      -679.32854476 eV

  energy without entropy =     -679.32854476  energy(sigma->0) =     -679.32854476


--------------------------------------------------------------------------------------------------------




--------------------------------------- Iteration      1(  19)  ---------------------------------------


    POTLOK:  cpu time    0.4898: real time    0.4932
    SETDIJ:  cpu time    0.5121: real time    0.5121
     EDDAV:  cpu time   50.5989: real time   50.6117
       DOS:  cpu time    0.0013: real time    0.0013
    CHARGE:  cpu time    3.0908: real time    3.0912
    MIXING:  cpu time    0.0225: real time    0.0225
    --------------------------------------------
      LOOP:  cpu time   54.7153: real time   54.7320

 eigenvalue-minimisations  :  3240
 total energy-change (2. order) : 0.4670619E-07  (-0.1241795E-09)
 number of electron     511.9999998 magnetization 
 augmentation part      -29.4673649 magnetization 

 Broyden mixing:
  rms(total) = 0.51613E-05    rms(broyden)= 0.19425E-05
  rms(prec ) = 0.26673E-05
  weight for this iteration     100.00
  WARNING: grid for Broyden might be to small

 eigenvalues of (default mixing * dielectric matrix)
  average eigenvalue GAMMA=   1.6918
  3.3079  2.6859  2.3285  2.3285  1.7372  1.7372  1.5404  1.5404  1.3192  1.3192
  1.0098  1.0098  0.9103  0.9103

 Free energy of the ion-electron system (eV)
  ---------------------------------------------------
  alpha Z        PSCENC =       210.77028614
  Ewald energy   TEWEN  =    -14471.81209609
  -Hartree energ DENC   =     -1001.08421606
  -exchange      EXHF   =         0.00000000
  -V(xc)+E(xc)   XCENC  =     -1155.82209142
  PAW double counting   =      4731.09912901    -2492.83172652
  entropy T*S    EENTRO =        -0.00000000
  eigenvalues    EBANDS =       307.87131025
  atomic energy  EATOM  =     13192.48085998
  Solvation  Ediel_sol  =         0.00000000
  ---------------------------------------------------
  free energy    TOTEN  =      -679.32854471 eV

  energy without entropy =     -679.32854471  energy(sigma->0) =     -679.32854471


--------------------------------------------------------------------------------------------------------




--------------------------------------- Iteration      1(  20)  ---------------------------------------


    POTLOK:  cpu time    0.4899: real time    0.4934
    SETDIJ:  cpu time    0.5143: real time    0.5143
     EDDAV:  cpu time   49.8771: real time   49.8889
       DOS:  cpu time    0.0010: real time    0.0010
    --------------------------------------------
      LOOP:  cpu time   50.8822: real time   50.8975

 eigenvalue-minimisations  :  3168
 total energy-change (2. order) :-0.2490196E-08  (-0.4277154E-10)
 number of electron     511.9999998 magnetization 
 augmentation part      -29.4673649 magnetization 

 Free energy of the ion-electron system (eV)
  ---------------------------------------------------
  alpha Z        PSCENC =       210.77028614
  Ewald energy   TEWEN  =    -14471.81209609
  -Hartree energ DENC   =     -1001.08434159
  -exchange      EXHF   =         0.00000000
  -V(xc)+E(xc)   XCENC  =     -1155.82207845
  PAW double counting   =      4731.09922568    -2492.83182600
  entropy T*S    EENTRO =        -0.00000000
  eigenvalues    EBANDS =       307.87142560
  atomic energy  EATOM  =     13192.48085998
  Solvation  Ediel_sol  =         0.00000000
  ---------------------------------------------------
  free energy    TOTEN  =      -679.32854472 eV

  energy without entropy =     -679.32854472  energy(sigma->0) =     -679.32854472


--------------------------------------------------------------------------------------------------------




 average (electrostatic) potential at core
  the test charge radii are     0.9892
  (the norm of the test charge is              1.0000)
       1 -83.5193       2 -83.4304       3 -83.5114       4 -83.4316       5 -83.6271
       6 -83.6181       7 -83.5389       8 -83.4931       9 -83.6429      10 -83.6274
      11 -83.6885      12 -83.4547      13 -83.5807      14 -83.4991      15 -83.5776
      16 -83.4025      17 -83.5154      18 -83.4274      19 -83.5346      20 -83.4733
      21 -83.4841      22 -83.4732      23 -83.5550      24 -83.4127      25 -83.5440
      26 -83.5717      27 -83.6061      28 -83.4478      29 -83.4728      30 -83.4343
      31 -83.5905      32 -83.4070      33 -83.5134      34 -83.5659      35 -83.4658
      36 -83.5338      37 -83.5207      38 -83.5314      39 -83.4492      40 -83.4356
      41 -83.5866      42 -83.4774      43 -83.5664      44 -83.5514      45 -83.4116
      46 -83.4424      47 -83.5057      48 -83.5372      49 -83.4637      50 -83.5539
      51 -83.5032      52 -83.5037      53 -83.5730      54 -83.5528      55 -83.6351
      56 -83.4876      57 -83.5092      58 -83.5050      59 -83.5113      60 -83.5496
      61 -83.5251      62 -83.6081      63 -83.4601      64 -83.4070      65 -83.5979
      66 -83.5702      67 -83.5450      68 -83.4675      69 -83.6710      70 -83.5504
      71 -83.5572      72 -83.5924      73 -83.5703      74 -83.5482      75 -83.6041
      76 -83.4388      77 -83.4973      78 -83.4079      79 -83.6264      80 -83.5201
      81 -83.3862      82 -83.4538      83 -83.5255      84 -83.3352      85 -83.5640
      86 -83.5237      87 -83.5638      88 -83.4624      89 -83.6027      90 -83.5938
      91 -83.5561      92 -83.4443      93 -83.4966      94 -83.5105      95 -83.5151
      96 -83.4708      97 -83.5407      98 -83.4403      99 -83.5133     100 -83.4234
     101 -83.6229     102 -83.4780     103 -83.6241     104 -83.4075     105 -83.5132
     106 -83.5100     107 -83.5013     108 -83.4865     109 -83.5503     110 -83.4580
     111 -83.5032     112 -83.5218     113 -83.5253     114 -83.4849     115 -83.5288
     116 -83.3898     117 -83.5943     118 -83.5691     119 -83.5962     120 -83.4470
     121 -83.5899     122 -83.5198     123 -83.6168     124 -83.3337     125 -83.5238
     126 -83.5854     127 -83.5098     128 -83.4046
 
 
 
 E-fermi :   5.9159     XC(G=0):  -9.3327     alpha+bet :-11.7321


 k-point     1 :       0.0000    0.0000    0.0000
  band No.  band energies     occupation 
      1      -6.2993      2.00000
      2      -5.7149      2.00000
      3      -5.6704      2.00000
      4      -5.6120      2.00000
      5      -5.5371      2.00000
      6      -5.5029      2.00000
      7      -5.4700      2.00000
      8      -5.4320      2.00000
      9      -5.3644      2.00000
     10      -5.3295      2.00000
     11      -5.2403      2.00000
     12      -5.2237      2.00000
     13      -5.1898      2.00000
     14      -5.1250      2.00000
     15      -5.1093      2.00000
     16      -4.5725      2.00000
     17      -4.4844      2.00000
     18      -4.4280      2.00000
     19      -4.3790      2.00000
     20      -4.3446      2.00000
     21      -4.3170      2.00000
     22      -4.2721      2.00000
     23      -4.2485      2.00000
     24      -4.2226      2.00000
     25      -4.2116      2.00000
     26      -4.1699      2.00000
     27      -4.1529      2.00000
     28      -4.0628      2.00000
     29      -3.9916      2.00000
     30      -3.9719      2.00000
     31      -3.9069      2.00000
     32      -3.8634      2.00000
     33      -3.8102      2.00000
     34      -3.7837      2.00000
     35      -3.7701      2.00000
     36      -3.7321      2.00000
     37      -3.7154      2.00000
     38      -3.6964      2.00000
     39      -3.6724      2.00000
     40      -3.6388      2.00000
     41      -3.6194      2.00000
     42      -3.5918      2.00000
     43      -3.5629      2.00000
     44      -3.5232      2.00000
     45      -3.5165      2.00000
     46      -3.5063      2.00000
     47      -3.4551      2.00000
     48      -3.4423      2.00000
     49      -3.4291      2.00000
     50      -3.4117      2.00000
     51      -3.4022      2.00000
     52      -3.3297      2.00000
     53      -3.3093      2.00000
     54      -3.2582      2.00000
     55      -3.1855      2.00000
     56      -2.3515      2.00000
     57      -2.3394      2.00000
     58      -2.2638      2.00000
     59      -2.2286      2.00000
     60      -2.1723      2.00000
     61      -2.1605      2.00000
     62      -2.1256      2.00000
     63      -2.1034      2.00000
     64      -2.0774      2.00000
     65      -2.0658      2.00000
     66      -2.0378      2.00000
     67      -1.9834      2.00000
     68      -1.9716      2.00000
     69      -1.9280      2.00000
     70      -1.8999      2.00000
     71      -1.8531      2.00000
     72      -1.8372      2.00000
     73      -1.8034      2.00000
     74      -1.4128      2.00000
     75      -1.3057      2.00000
     76      -1.2751      2.00000
     77      -1.2112      2.00000
     78      -1.0537      2.00000
     79      -0.9745      2.00000
     80      -0.9498      2.00000
     81      -0.9077      2.00000
     82      -0.8925      2.00000
     83      -0.8891      2.00000
     84      -0.8503      2.00000
     85      -0.8349      2.00000
     86      -0.7845      2.00000
     87      -0.7604      2.00000
     88      -0.7479      2.00000
     89      -0.7154      2.00000
     90      -0.7002      2.00000
     91      -0.6764      2.00000
     92      -0.6708      2.00000
     93      -0.6276      2.00000
     94      -0.6198      2.00000
     95      -0.5996      2.00000
     96      -0.5963      2.00000
     97      -0.5554      2.00000
     98      -0.5270      2.00000
     99      -0.4703      2.00000
    100      -0.4302      2.00000
    101      -0.4055      2.00000
    102      -0.0194      2.00000
    103       0.0338      2.00000
[...]
   0.114E+01 -.654E+01 0.389E+01   -.914E+00 0.577E+01 -.526E+01   -.338E+00 0.172E+01 0.156E+01   0.358E-05 -.460E-06 0.216E-05
   0.597E-01 -.260E+01 0.171E+01   0.311E+00 0.269E+01 -.806E+00   -.759E+00 0.951E+00 -.187E+01   -.598E-06 -.120E-05 -.465E-05
   0.194E+01 -.162E+01 0.857E+00   -.131E+01 0.145E+01 -.110E+01   -.554E-01 0.138E-01 -.569E+00   -.733E-06 0.209E-05 0.209E-05
   -.390E+01 0.897E+01 0.136E+02   0.351E+01 -.803E+01 -.124E+02   0.226E+00 -.250E+01 -.378E+01   -.378E-05 0.111E-05 0.363E-05
   -.193E+01 -.484E+01 -.570E+01   0.255E+01 0.477E+01 0.494E+01   -.132E+01 -.199E+00 0.636E+00   -.163E-05 -.330E-05 -.274E-06
   0.137E+02 0.103E+00 0.213E+01   -.133E+02 0.128E+00 -.193E+01   -.190E+01 0.164E+00 -.628E-01   0.498E-06 0.136E-05 -.397E-05
   -.109E+01 -.277E+01 -.178E+01   0.222E+00 0.218E+01 0.137E+01   0.638E+00 0.254E+01 0.165E+01   0.348E-05 0.324E-05 -.604E-06
   0.967E+01 -.643E+00 0.208E+01   -.934E+01 0.994E+00 -.193E+01   -.199E+01 -.700E+00 -.324E+00   -.171E-06 0.342E-05 -.117E-05
   0.318E+01 -.505E+01 0.978E+01   -.312E+01 0.420E+01 -.835E+01   -.737E+00 0.104E+01 -.344E+01   0.304E-05 0.227E-05 -.447E-05
   -.283E+01 0.141E+01 -.103E+02   0.226E+01 -.125E+01 0.923E+01   0.362E+00 -.723E+00 0.386E+01   0.538E-05 0.257E-05 -.408E-06
   -.509E+01 -.263E+01 0.769E+01   0.458E+01 0.240E+01 -.714E+01   0.125E+00 0.982E+00 -.230E+01   0.355E-05 0.192E-05 -.262E-05
   0.580E+01 0.354E+01 -.495E+01   -.547E+01 -.321E+01 0.489E+01   -.163E+01 -.134E+00 -.116E+00   -.218E-05 0.275E-05 -.164E-05
   0.290E+01 0.218E+01 -.117E+01   -.272E+01 -.246E+01 0.119E+01   -.151E+01 0.260E+00 -.667E+00   0.270E-05 -.887E-06 -.118E-05
   -.251E+01 -.352E+01 0.226E+00   0.273E+01 0.306E+01 -.550E+00   0.115E+00 -.116E+01 0.790E+00   -.667E-06 0.435E-06 -.481E-06
   -.829E+00 0.947E+00 -.230E+01   0.143E+01 -.646E+00 0.238E+01   0.329E+00 -.217E-01 -.194E-01   -.911E-07 -.140E-06 -.268E-05
   -.291E+01 -.481E+01 0.206E+01   0.244E+01 0.423E+01 -.211E+01   0.819E-01 0.359E+01 0.214E-02   -.954E-06 0.329E-05 0.378E-05
   -.110E+02 -.433E+01 0.111E+02   0.103E+02 0.432E+01 -.101E+02   0.262E+01 -.109E+01 -.338E+01   0.443E-06 -.120E-05 -.224E-05
   -.599E+01 0.173E+01 -.367E+01   0.492E+01 -.134E+01 0.326E+01   0.147E+01 -.855E+00 0.781E+00   0.347E-05 -.920E-06 -.203E-05
   0.384E+01 0.205E+01 0.210E+01   -.308E+01 -.235E+01 -.235E+01   -.130E+01 0.843E+00 0.389E+00   -.119E-05 0.430E-06 0.742E-06
   -.232E+01 0.830E-01 -.365E+00   0.258E+01 0.416E+00 0.692E+00   -.626E+00 -.150E+01 -.377E+00   -.114E-05 0.679E-06 0.198E-05
   -.317E+01 0.355E+01 0.570E+01   0.282E+01 -.326E+01 -.552E+01   -.434E+00 -.692E+00 -.155E+01   0.231E-05 -.373E-06 -.228E-05
   -.196E+01 -.456E+00 -.776E+01   0.163E+01 0.754E+00 0.686E+01   0.106E+01 -.134E+01 0.190E+01   0.166E-05 -.676E-06 -.664E-07
   0.178E+00 0.387E+01 0.960E+01   0.530E+00 -.366E+01 -.850E+01   -.230E+01 0.847E+00 -.233E+01   -.192E-05 -.327E-05 0.232E-06
   0.786E+01 -.306E+01 -.576E+00   -.686E+01 0.317E+01 0.215E+00   -.161E+01 0.341E+00 0.127E+01   -.292E-05 0.228E-05 0.246E-05
   -.329E+01 -.207E+02 0.480E+01   0.323E+01 0.183E+02 -.408E+01   0.593E+00 0.700E+01 -.153E+01   0.113E-05 -.287E-06 -.386E-05
   -.161E+01 -.680E+01 -.128E+02   0.149E+01 0.587E+01 0.122E+02   0.492E+00 0.144E+01 0.297E+01   -.357E-05 -.768E-06 0.560E-06
   -.138E+02 0.714E+01 0.535E+01   0.128E+02 -.683E+01 -.479E+01   0.332E+01 -.181E+01 -.226E+01   -.326E-06 -.843E-06 -.903E-06
   -.529E+01 -.245E+01 -.963E+00   0.463E+01 0.272E+01 0.845E+00   -.761E-01 -.270E+00 -.588E+00   -.557E-05 0.136E-05 0.163E-06
   0.628E+00 0.189E+01 0.796E+01   -.313E-01 -.176E+01 -.709E+01   -.718E+00 -.846E+00 -.312E+01   -.366E-05 0.978E-06 -.769E-06
   0.772E+01 0.973E+00 0.104E+02   -.755E+01 -.767E+00 -.892E+01   -.129E+01 -.363E-01 -.287E+01   -.563E-06 0.943E-06 -.177E-05
   0.681E+01 0.105E+01 -.154E+01   -.652E+01 -.183E+01 0.186E+01   -.149E+01 0.102E+01 -.390E+00   -.179E-05 -.779E-06 -.251E-05
   -.283E+01 -.275E+01 -.104E+02   0.247E+01 0.279E+01 0.902E+01   0.812E+00 0.621E+00 0.155E+01   -.321E-05 -.387E-06 0.597E-05
   0.537E+01 0.424E+01 0.793E+01   -.464E+01 -.412E+01 -.735E+01   -.286E+01 -.705E+00 -.186E+01   0.192E-06 -.295E-05 -.428E-07
   0.926E+00 0.725E-01 -.869E+01   -.149E+01 -.734E+00 0.807E+01   0.945E-01 0.209E+01 0.192E+01   0.499E-05 -.541E-06 -.638E-06
   0.156E+00 0.261E+01 0.581E+01   -.824E+00 -.247E+01 -.540E+01   0.108E+00 -.843E+00 -.147E+01   0.312E-05 -.363E-05 0.152E-05
   0.111E+02 -.837E+01 -.278E+01   -.105E+02 0.816E+01 0.273E+01   -.270E+01 0.899E+00 0.349E+00   -.175E-05 -.145E-06 0.541E-05
   0.662E+01 0.416E+01 0.149E+01   -.656E+01 -.367E+01 -.182E+01   -.895E+00 0.126E+01 0.275E+00   0.284E-05 -.221E-05 0.131E-05
   0.138E+01 -.509E+01 -.192E+00   -.119E+01 0.522E+01 -.338E-01   -.694E+00 0.690E+00 -.703E+00   -.262E-05 -.306E-05 -.130E-05
   -.427E+01 -.728E+01 0.285E+01   0.396E+01 0.687E+01 -.297E+01   0.814E+00 0.194E+01 -.134E+00   -.164E-06 0.128E-05 0.326E-05
   0.319E+01 0.104E+02 -.371E+01   -.297E+01 -.905E+01 0.324E+01   -.180E+01 -.245E+01 0.139E+01   -.514E-05 0.261E-05 0.174E-05
   -.487E+01 0.807E+01 -.764E+01   0.465E+01 -.774E+01 0.687E+01   0.112E+01 -.148E+01 0.138E+01   -.408E-05 -.171E-05 -.217E-05
   0.517E+01 0.560E+01 -.579E+01   -.553E+01 -.505E+01 0.549E+01   0.216E+00 -.107E+01 0.148E+01   0.223E-06 -.245E-05 0.291E-05
   0.914E+01 -.647E+01 -.287E+00   -.828E+01 0.613E+01 -.858E-01   -.381E+01 0.181E+01 -.348E+00   -.330E-05 -.159E-05 0.142E-06
   -.289E+01 -.320E+01 -.222E+01   0.254E+01 0.228E+01 0.217E+01   0.863E+00 0.175E+01 0.370E+00   -.439E-05 0.355E-05 0.689E-06
   -.258E+01 0.305E+01 0.390E+01   0.252E+01 -.311E+01 -.372E+01   0.366E+00 -.307E+00 -.106E+01   0.616E-06 -.683E-06 -.224E-05
   0.602E+01 -.825E+00 -.332E+01   -.600E+01 0.393E+00 0.310E+01   -.117E+01 0.405E+00 0.357E+00   0.231E-05 -.355E-05 0.390E-06
   0.647E+00 -.158E+02 -.444E+01   -.110E+01 0.146E+02 0.468E+01   0.112E+01 0.278E+01 0.827E+00   0.179E-05 -.864E-06 -.209E-05
   0.401E+01 -.633E+01 0.363E+01   -.352E+01 0.548E+01 -.344E+01   -.139E+01 0.177E+01 -.127E+01   -.626E-06 0.363E-05 0.300E-05
   0.506E+01 0.132E+02 0.119E+02   -.467E+01 -.122E+02 -.111E+02   -.191E+00 -.260E+01 -.260E+01   0.129E-05 -.152E-05 0.950E-06
   0.181E+01 -.134E+01 -.115E+02   -.132E+01 0.127E+01 0.109E+02   -.147E+01 0.294E+00 0.794E+00   0.125E-05 -.525E-05 -.104E-05
   -.668E+01 0.116E+01 0.882E+01   0.605E+01 -.136E+00 -.833E+01   0.178E+01 -.536E+00 -.200E+01   0.109E-05 -.212E-05 -.517E-06
   0.252E+01 -.930E+00 0.206E+00   -.236E+01 0.930E+00 -.287E+00   -.697E-01 0.300E+00 0.882E+00   -.358E-06 0.153E-05 0.454E-05
   0.171E+01 0.102E+02 -.447E+01   -.179E+01 -.981E+01 0.423E+01   0.620E+00 -.151E+01 0.918E+00   0.350E-05 -.395E-06 0.126E-05
 -----------------------------------------------------------------------------------------------
   -.416E+00 -.917E+00 -.669E+00   0.146E-12 0.187E-12 0.329E-13   0.416E+00 0.917E+00 0.669E+00   0.394E-05 -.131E-05 -.225E-05
 
 
 POSITION                                       TOTAL-FORCE (eV/Angst)
 -----------------------------------------------------------------------------------
     10.87923      0.10011     10.80642         1.045386     -1.220292      1.963092
     10.90523      2.80364     13.57284        -0.764351     -0.330875      1.512963
     10.88335      5.56670     16.42627         1.833064     -0.428735      0.114479
     10.99382     19.12333      8.25315        -0.189062     -0.229146     -0.865488
     13.59583     10.94127      2.79395         0.553729      1.199069      0.562564
     13.58356     13.57162      5.39350         1.845221      1.212021      0.494666
      2.80323      5.47278      8.18151        -0.158046     -1.252643      1.740167
      2.80619      8.15044     10.94848        -1.494963      1.641333      1.094928
      5.50208     10.89644     16.35619        -0.048122     -0.532606     -0.727122
      5.53249      2.66024      8.16287        -1.528072      0.389834     -0.270664
      5.45064      5.52685     10.86564        -0.240807     -0.606195      0.675749
     16.46882     19.09477     13.77965        -1.381979      0.171394     -0.892417
     18.96565     10.94173      8.19836         1.775897     -0.497020      0.167837
      8.25864      2.76410     10.86749        -1.123796     -0.377385      0.696591
     19.15569     16.43437     13.71913         0.573875      0.326876      0.837596
     19.15022     19.06183     16.42260        -0.295595      2.043190      1.308303
     13.59500     13.53160     21.77500         0.506789      1.651786      0.964707
     13.65129      5.61686     13.69260        -0.622904     -2.753373     -0.761093
     13.65439      8.19011     16.39926         0.951772     -0.482632      0.506475
      2.72413     10.92289      8.25734         1.274530      0.147583      0.033409
      5.45182      2.81272      2.79798         0.677442     -0.768803     -1.428478
      5.42651      5.54307      5.47505         1.661977      0.096395     -0.953829
      5.49065      8.22343      8.22226        -0.131070     -0.031358      0.731017
      5.36895     10.90353     10.86985         1.242522     -0.319680      2.173760
      8.23177      2.67296      5.63805        -1.725855      1.308116     -0.441552
      7.99498      5.32828      8.17607         1.782393      1.588908      0.182910
      8.27856      8.47390     10.87701        -0.925737     -3.295898      0.173779
      8.21420     10.81705     13.68671         0.633577      0.419833      0.132326
     10.96497     13.69336     19.03468        -0.965844     -0.081024      0.476721
     10.94268      5.36805     10.84325        -1.007226      0.827619      0.601779
     10.87736      8.21417     13.73420         1.975684     -1.123676      0.215828
     10.87743     10.83063     16.35234         0.067750      1.584080      1.042477
      5.58654      5.48819      0.12063        -0.710684     -0.579057     -0.860966
     16.34368      8.30777     13.69281         0.623958     -0.128610      0.203561
      5.53549     10.93198      5.45945         0.276431     -0.161066     -0.049867
      5.68545     13.77321      8.32669        -2.623868     -2.488108     -2.014466
      8.22348     16.38290     13.70918        -0.968956      1.899565     -0.801736
      8.09865      8.31865      5.58783         1.813623     -2.055058      0.522727
      8.15258     11.00515      8.22809         0.154487      1.161404      1.249913
      8.11957     13.70098     10.84890         2.620748     -1.600671      2.680445
     10.92183     16.25853     16.51383         0.510216      2.379286     -1.354301
     10.97714      8.17730      8.12893        -1.308507      0.439947      0.777927
     10.91692     10.96108     10.96189         0.270310     -1.248935     -0.188224
     10.79476     13.71050     13.44946         0.936481     -0.903923      2.887730
     13.61710      5.59070      8.22374         1.348029     -2.316022     -0.226039
     13.62408      8.19956     10.89175         1.587870     -0.661120      0.397055
     13.68031     10.81873     13.79839         0.495506      1.485917     -0.475543
     13.46931     13.70028     16.30289         2.924434     -1.827879      1.006893
      8.20735     19.10464     10.91758         0.484371      1.034285      0.728090
     19.09201     10.97527     13.70877         0.356526     -1.050951     -0.419030
     19.02361     13.66495     16.49641         1.479243      0.804841     -1.145551
     19.25432     16.55239     19.06100        -1.020872     -1.245982      0.518105
     11.08723     19.17312     13.63654        -1.130207     -0.070312      0.308615
     10.96753     10.94262      5.44832        -0.561234     -0.414933      0.734741
     10.91994     13.62682      8.04996         0.845361     -0.332448      0.261399
     10.97126     16.42063     11.02491        -0.537765      0.037142     -1.220215
     13.73489      8.24250      5.52742        -0.761826      0.906400      0.466725
     13.64739     10.92323      8.21259         1.028339     -2.062789      0.140015
     13.61418     13.53555     11.06273         0.261855      0.442716     -0.630122
     13.58204     16.43321     13.65672         2.011195      0.416437      0.691207
     16.47788     19.13182     19.10013        -0.190485      0.126477      0.784042
     16.24787     10.97934     10.78612         0.948640     -0.732581      0.906337
     16.49937     13.67833     13.62467        -0.311270     -0.067843      0.613917
     16.39635     16.44664     16.50112        -0.471358     -1.242439     -0.473997
      1.40917      1.43397      1.50525        -0.891776     -0.492653     -1.800632
      1.23910      4.05213      4.20586         0.455419      0.998667     -1.289935
      1.45365      6.70981      6.94693        -1.162543      1.664768     -1.358832
      1.34176      9.52146      9.55616         0.612811      0.649301      0.902828
      4.20632      1.37895      4.06956        -1.179106     -0.306473      0.306523
      4.21740      4.26942      6.83967        -1.021990     -2.603186     -0.073752
      3.99958      6.91436      9.58210         1.653113     -0.800673     -0.911800
      3.92838      9.67209     12.41658         2.163312     -1.671165     -1.205595
      6.74136      1.24386      6.80239         0.603537      1.126305     -0.043679
      6.76481      4.07659      9.47531        -0.382001     -1.044648      2.037656
      6.84643      6.77694     12.37798         0.049735      1.209569     -1.283651
      6.90939      9.44391     15.04346        -0.117556      0.945905      0.189638
      9.53867      1.34545      9.50453        -0.389206      1.039790     -0.969821
      9.49565      4.15928     12.32257         0.574513     -0.158732     -0.816807
      9.62704      6.99315     15.23996        -0.163425     -1.569592     -2.531312
      9.59887      9.56112     17.83985        -0.709823     -0.271572     -0.123706
      4.15057      4.06920      1.32489        -1.444486      0.395598      0.128691
      4.15075      6.75045      3.99092        -0.227040      1.939669      1.241611
      4.24341      9.62812      6.85328        -1.667041     -0.348852     -0.178698
      4.19964     12.34230      9.66739        -0.676303      0.189344     -2.011785
      6.85184      4.15441      3.97710        -0.203520     -0.557311      2.811128
      6.79904      6.80174      6.97180        -0.380586      0.751955     -1.746418
      6.87564      9.63358      9.55836        -1.296674      0.189583     -0.181803
      6.93738     12.27796     12.37500        -1.338957     -0.020925     -0.652756
      9.47770      4.20522      6.86423         0.337113     -1.622345      0.465865
      9.41714      6.79455      9.51365         0.926128      0.279099      0.054820
      9.66770      9.37614     12.32139        -0.391314      3.018033     -0.041539
      9.39256     12.33386     15.20629         1.908662     -1.103767     -2.390969
     12.28857      4.10387      9.46451         0.395827     -0.466905      0.365402
     12.27101      6.79033     12.24190        -0.534922      0.546950      0.145351
     12.30345      9.57813     15.08821        -0.366353     -0.997521     -0.049822
     12.34934     12.27560     17.82798        -0.787630     -0.402953     -1.364127
      6.77300      7.01924      1.34556         0.731276     -1.043843      1.008972
      6.93900      9.51908      4.17287        -1.589953      1.052183     -1.232974
      6.84740     12.27312      6.82783        -0.610800      0.451268      0.905341
      6.82637     14.91189      9.70802         0.534215      4.603397     -0.800716
      9.61012      6.83285      3.94396         0.367152      0.511773      2.371017
      9.42185      9.70977      6.98852         2.282940     -1.499837     -1.704337
      9.62831     12.36367      9.61151        -0.728063      0.000391     -0.706090
      9.49226     15.16048     12.35740        -0.120567     -0.714948     -2.246026
     12.37886      6.85089      6.87191        -1.118627      0.169572     -1.351539
     12.34363      9.54811      9.55980        -1.200769      0.239439     -0.071141
     12.24253     12.15020     12.40268         0.443805      0.661155      0.193390
     12.35543     15.14201     15.06395        -2.129156     -0.579701     -1.287557
     15.19807      6.65907      9.45287        -0.474249      1.424196      1.306826
     15.01421      9.64954     12.33189        -0.560143     -0.696956     -1.058051
     15.23960     12.25844     14.98906        -2.164702      0.691935      0.299325
     15.08617     14.81510     17.79045        -0.839354      1.749087     -0.054857
      9.62268      9.54596      1.42353        -0.497508      0.821093     -0.929617
      9.50851     12.24202      4.14891         0.505780      1.535567     -0.258739
      9.64851     15.13755      6.73623        -1.584005     -1.110513      0.923451
      9.55668     17.87741      9.55118         0.897253     -1.146005      0.606152
     12.32756      9.58387      4.09327        -0.144204     -0.522216      1.184648
     12.54360     12.13478      6.79517        -2.952029      1.470355     -0.720488
     12.25395     14.89143      9.56352         0.507416      0.825690      0.314506
     12.32772     17.80908     12.32244         0.308037     -0.362586     -0.887371
     15.17048      9.60461      6.86366        -1.155149     -0.026809      0.143945
     14.90981     12.27934      9.43784         0.666127      1.571252      1.071048
     15.07986     14.96664     12.38335        -0.899885      0.927874     -1.085803
     15.04857     17.88574     15.22204         0.200387     -1.574418     -1.761762
     17.81124      9.53316      9.60277        -0.979388      0.219126      0.161051
     17.64441     12.21203     12.31564         1.151177      0.485289     -1.511580
     17.75391     15.05608     15.01342         0.089602      0.300712      0.800375
     17.75277     17.85392     17.71242         0.536692     -1.159174      0.673663
 -----------------------------------------------------------------------------------
    total drift:                               -0.000006     -0.000004     -0.000001


--------------------------------------------------------------------------------------------------------



  FREE ENERGIE OF THE ION-ELECTRON SYSTEM (eV)
  ---------------------------------------------------
  free  energy   TOTEN  =      -679.32854472 eV

  energy  without entropy=     -679.32854472  energy(sigma->0) =     -679.32854472
 


--------------------------------------------------------------------------------------------------------


    POTLOK:  cpu time    0.9981: real time    0.9984


--------------------------------------------------------------------------------------------------------


     LOOP+:  cpu time 1629.7521: real time 1630.2321
    4ORBIT:  cpu time    0.0000: real time    0.0000

 total amount of memory used by VASP MPI-rank0   221701. kBytes
=======================================================================

   base      :      30000. kBytes
   nonl-proj :      10690. kBytes
   fftplans  :      66746. kBytes
   grid      :      26864. kBytes
   one-center:         24. kBytes
   wavefun   :      87377. kBytes
 
  
  
 General timing and accounting informations for this job:
 ========================================================
  
                  Total CPU time used (sec):     1654.012
                            User time (sec):     1652.945
                          System time (sec):        1.068
                         Elapsed time (sec):     1655.524
  
                   Maximum memory used (kb):      338020.
                   Average memory used (kb):           0.
  
                          Minor page faults:       141537
                          Major page faults:            0
                 Voluntary context switches:         1318
