<?xml version="1.0" encoding="ISO-8859-1"?>
<modeling>
 <generator>
  <i name="program" type="string">vasp </i>
  <i name="version" type="string">5.4.4.18Apr17-6-g9f103f2a35  </i>
  <i name="subversion" type="string">(build Nov 08 2017 09:05:29) complex            parallel </i>
  <i name="platform" type="string">Intel_17.33 </i>
  <i name="date" type="string">2020 07 18 </i>
  <i name="time" type="string">23:17:19 </i>
 </generator>
 <incar>
  <i type="string" name="SYSTEM">potpaw_PBE@./ARUN.APL1ZEROSTATE</i>
  <i type="string" name="PREC">accurate</i>
  <i type="string" name="ALGO">Normal</i>
  <i type="int" name="NSIM">     4</i>
  <i type="logical" name="ADDGRID"> T  </i>
  <i type="int" name="NELM">   120</i>
  <i type="int" name="NELMIN">     4</i>
  <i name="EDIFF">      0.00000001</i>
  <i type="int" name="NSW">     0</i>
  <i type="int" name="ISYM">     2</i>
  <i name="ENMAX">    500.00000000</i>
  <i type="logical" name="LREAL"> F  </i>
  <i type="logical" name="LPLANE"> T  </i>
  <i type="int" name="ISMEAR">     0</i>
  <i name="SIGMA">      0.01000000</i>
  <i type="logical" name="LWAVE"> F  </i>
  <i type="logical" name="LCHARG"> F  </i>
  <i type="logical" name="LELF"> F  </i>
  <i type="logical" name="LAECHG"> F  </i>
  <v type="int" name="KPOINT_BSE">    -1     0     0     0</v>
  <i type="int" name="NELM">   120</i>
 </incar>
 <structure name="primitive_cell" >
  <crystal>
   <varray name="basis" >
    <v>       0.00000000      10.93733369      10.93733369 </v>
    <v>      10.93733369       0.00000000      10.93733369 </v>
    <v>      10.93733369      10.93733369       0.00000000 </v>
   </varray>
   <i name="volume">   2616.76295363 </i>
   <varray name="rec_basis" >
    <v>      -0.04571498       0.04571498       0.04571498 </v>
    <v>       0.04571498      -0.04571498       0.04571498 </v>
    <v>       0.04571498       0.04571498      -0.04571498 </v>
   </varray>
  </crystal>
  <varray name="positions" >
   <v>       0.00124828      -0.01321737       0.00790499 </v>
   <v>       0.05994656      -0.19094755       0.06306765 </v>
   <v>      -0.18920542       0.06292470       0.05975220 </v>
   <v>       0.06156941       0.06858367      -0.18878253 </v>
   <v>       0.06994611       0.06767841       0.06116168 </v>
   <v>      -0.00745472      -0.00165794       0.24464824 </v>
   <v>       0.24562423      -0.25200970       0.00709706 </v>
   <v>      -0.24770966       0.00267812       0.24638910 </v>
   <v>      -0.00510177      -0.25455772       0.25708483 </v>
   <v>      -0.25106715       0.00565192      -0.00048736 </v>
   <v>       0.00797439      -0.25839908      -0.00757209 </v>
   <v>       0.25011775      -0.00915370       0.00621859 </v>
   <v>      -0.00273362       0.00092757      -0.25052990 </v>
   <v>       0.25563975      -0.00224701      -0.25217117 </v>
   <v>      -0.00695928       0.25374769      -0.24004304 </v>
   <v>       0.00637194       0.24907837      -0.00601198 </v>
   <v>      -0.25517806       0.25619759       0.00037230 </v>
   <v>      -0.18836512      -0.18162297       0.31072262 </v>
   <v>      -0.18617741      -0.18272559       0.06035002 </v>
   <v>       0.06055824      -0.18257704      -0.18894175 </v>
   <v>       0.05850639      -0.19316652       0.31671027 </v>
   <v>      -0.18298565       0.05625001      -0.18248324 </v>
   <v>      -0.16980294       0.30505003       0.05412133 </v>
   <v>       0.31937371      -0.19272206       0.06090931 </v>
   <v>       0.31466809      -0.18864986      -0.19812227 </v>
   <v>      -0.18581406       0.06970285       0.31426983 </v>
   <v>       0.31462985       0.06470468      -0.19534198 </v>
   <v>      -0.18609932       0.31273985      -0.18561698 </v>
   <v>       0.06169613       0.31255172      -0.18544312 </v>
   <v>       0.24085506      -0.24945740       0.24994591 </v>
   <v>      -0.25459256      -0.25031351       0.24483641 </v>
   <v>      -0.25007170       0.24390212       0.24698117 </v>
   <v>      -0.24687894       0.25488566      -0.25178382 </v>
   <v>       0.25223678      -0.26606231      -0.24839595 </v>
   <v>       0.24793107       0.25020864      -0.24744740 </v>
   <v>       0.07276682      -0.44517051       0.31171624 </v>
   <v>       0.05965289      -0.43771090       0.05407355 </v>
   <v>       0.31027184      -0.44394479       0.06245066 </v>
   <v>      -0.42870558       0.30479699       0.06088487 </v>
   <v>       0.07276946       0.05025519      -0.43100022 </v>
   <v>       0.05684716       0.06428760       0.31519926 </v>
   <v>       0.05333530       0.30726089      -0.42860798 </v>
   <v>      -0.44213631       0.07729392       0.05561353 </v>
   <v>       0.32086820       0.06367314       0.04961759 </v>
   <v>      -0.44054026       0.06713564       0.32083917 </v>
   <v>       0.30871124       0.07281443      -0.43838196 </v>
   <v>       0.05678687       0.31529279       0.06929091 </v>
   <v>       0.00362233      -0.48813569       0.24076629 </v>
   <v>       0.24186081      -0.49552999       0.00136499 </v>
   <v>       0.25186094       0.49567653       0.23530391 </v>
   <v>      -0.25214510      -0.00510828      -0.23447013 </v>
   <v>       0.49388735      -0.24818466      -0.24327824 </v>
   <v>      -0.24415459      -0.26527282       0.49677110 </v>
   <v>      -0.00551293      -0.24816253      -0.24526559 </v>
   <v>      -0.25328203      -0.24520057      -0.00389585 </v>
   <v>       0.24601794       0.24711001      -0.00516542 </v>
   <v>       0.00902130      -0.25712501      -0.49786385 </v>
   <v>       0.49989248      -0.00050872       0.24892921 </v>
   <v>      -0.49723535      -0.24842551      -0.00017080 </v>
   <v>      -0.49919038       0.25095162       0.25105836 </v>
   <v>       0.25860526      -0.00667198      -0.49902593 </v>
   <v>       0.49605570       0.25197907       0.00432043 </v>
   <v>      -0.24534203       0.49397539      -0.25217024 </v>
   <v>       0.00726284       0.24855614       0.24990364 </v>
   <v>       0.25866291      -0.00674917       0.25488602 </v>
   <v>      -0.24961424       0.01092288      -0.49110210 </v>
   <v>      -0.17038280      -0.43930630       0.29806753 </v>
   <v>      -0.00027694       0.25370697       0.49816518 </v>
   <v>      -0.49083743      -0.00089617      -0.25977627 </v>
   <v>      -0.19910180      -0.17431839      -0.44635388 </v>
   <v>       0.26550448       0.24539059       0.49506896 </v>
   <v>       0.00160164      -0.49622955      -0.24799019 </v>
   <v>      -0.25001813      -0.49010901      -0.00414757 </v>
   <v>      -0.43483107      -0.18565462       0.31055891 </v>
   <v>       0.31502494      -0.44519220       0.30620070 </v>
   <v>       0.30908921      -0.18981265       0.31175027 </v>
   <v>      -0.18565256      -0.19490157      -0.18196381 </v>
   <v>      -0.43699273      -0.19033055      -0.18643011 </v>
   <v>       0.31850632      -0.19100234      -0.43624923 </v>
   <v>      -0.17595907       0.30579586      -0.43791860 </v>
   <v>       0.31119937      -0.44829761      -0.18849948 </v>
   <v>      -0.43696052       0.31088066       0.31775871 </v>
   <v>       0.29195149       0.32933020      -0.18246888 </v>
   <v>      -0.19013255       0.32157807       0.31270621 </v>
   <v>      -0.17442347      -0.43382605      -0.19028372 </v>
   <v>      -0.44223132       0.31662358      -0.19624577 </v>
   <v>       0.33264193       0.30631795      -0.44487820 </v>
   <v>      -0.00110352      -0.48903768       0.48761993 </v>
   <v>      -0.00567368      -0.49888058       0.00193514 </v>
   <v>      -0.49212401      -0.00602303       0.00108733 </v>
   <v>       0.00101850       0.01001034      -0.49923325 </v>
   <v>      -0.49979366       0.49323829       0.00511335 </v>
   <v>       0.49627892       0.00287794      -0.49676839 </v>
   <v>      -0.42371378      -0.18289767       0.06309748 </v>
   <v>       0.05932820      -0.43178374      -0.18117951 </v>
   <v>      -0.45105930      -0.17849153      -0.42815205 </v>
   <v>      -0.19642251      -0.42815415       0.05987929 </v>
   <v>       0.06143793      -0.43313967      -0.43506161 </v>
   <v>      -0.43907150      -0.42871923      -0.19252955 </v>
   <v>      -0.43731773      -0.43096412       0.05693317 </v>
   <v>       0.04177722      -0.17750209      -0.43293860 </v>
   <v>      -0.18656881       0.07417273      -0.45003777 </v>
   <v>      -0.18396290      -0.43874034      -0.43160340 </v>
   <v>      -0.44112174       0.05701541      -0.17485288 </v>
   <v>      -0.43982910       0.06409761      -0.43804024 </v>
   <v>       0.49997583      -0.23839002       0.48918042 </v>
   <v>      -0.25532325      -0.49330128       0.24432565 </v>
   <v>      -0.49388870      -0.25039350       0.24491005 </v>
   <v>       0.24361944       0.49960865      -0.49596879 </v>
   <v>       0.24993426      -0.25410196       0.49975092 </v>
   <v>       0.25090362       0.49997330      -0.25219312 </v>
   <v>      -0.49786242      -0.49067284      -0.26458318 </v>
   <v>       0.49174858       0.24425884      -0.24584937 </v>
   <v>      -0.24888844       0.24080281      -0.49843114 </v>
   <v>      -0.49344745       0.24574174       0.49964814 </v>
   <v>      -0.25186494       0.48154861      -0.49458433 </v>
   <v>      -0.49382762       0.48831205       0.26859614 </v>
   <v>       0.31883912       0.31859269       0.30304368 </v>
   <v>       0.31505313       0.31029722       0.07529980 </v>
   <v>       0.30129006       0.06359983       0.31590319 </v>
   <v>       0.05850059       0.30512588       0.32133717 </v>
   <v>      -0.24335294      -0.24795058      -0.25293160 </v>
   <v>       0.25562066       0.24496289       0.25118230 </v>
   <v>      -0.45005670      -0.42339901       0.30731657 </v>
   <v>      -0.43723214      -0.42879113      -0.45187513 </v>
   <v>       0.30922912      -0.43517667      -0.43624616 </v>
   <v>      -0.43556306       0.31434316      -0.43402692 </v>
   <v>      -0.49685862       0.49910371       0.49902952 </v>
  </varray>
 </structure>
 <varray name="primitive_index" >
  <v type="int" >        1 </v>
  <v type="int" >       77 </v>
  <v type="int" >       68 </v>
  <v type="int" >      113 </v>
  <v type="int" >       65 </v>
  <v type="int" >       17 </v>
  <v type="int" >       14 </v>
  <v type="int" >       20 </v>
  <v type="int" >       29 </v>
  <v type="int" >        4 </v>
  <v type="int" >       13 </v>
  <v type="int" >        2 </v>
  <v type="int" >       49 </v>
  <v type="int" >       50 </v>
  <v type="int" >       53 </v>
  <v type="int" >        5 </v>
  <v type="int" >        8 </v>
  <v type="int" >       96 </v>
  <v type="int" >       80 </v>
  <v type="int" >      125 </v>
  <v type="int" >       93 </v>
  <v type="int" >      116 </v>
  <v type="int" >       72 </v>
  <v type="int" >       78 </v>
  <v type="int" >      126 </v>
  <v type="int" >       84 </v>
  <v type="int" >      114 </v>
  <v type="int" >      120 </v>
  <v type="int" >      117 </v>
  <v type="int" >       30 </v>
  <v type="int" >       32 </v>
  <v type="int" >       24 </v>
  <v type="int" >       56 </v>
  <v type="int" >       62 </v>
  <v type="int" >       54 </v>
  <v type="int" >       89 </v>
  <v type="int" >       73 </v>
  <v type="int" >       74 </v>
  <v type="int" >       71 </v>
  <v type="int" >       97 </v>
  <v type="int" >       81 </v>
  <v type="int" >      101 </v>
  <v type="int" >       67 </v>
  <v type="int" >       66 </v>
  <v type="int" >       83 </v>
  <v type="int" >       98 </v>
  <v type="int" >       69 </v>
  <v type="int" >       25 </v>
  <v type="int" >       10 </v>
  <v type="int" >       26 </v>
  <v type="int" >       52 </v>
  <v type="int" >       63 </v>
  <v type="int" >       48 </v>
  <v type="int" >       61 </v>
  <v type="int" >       16 </v>
  <v type="int" >        6 </v>
  <v type="int" >       45 </v>
  <v type="int" >       19 </v>
  <v type="int" >       15 </v>
  <v type="int" >       23 </v>
  <v type="int" >       34 </v>
  <v type="int" >        7 </v>
  <v type="int" >       60 </v>
  <v type="int" >       21 </v>
  <v type="int" >       18 </v>
  <v type="int" >       36 </v>
  <v type="int" >       92 </v>
  <v type="int" >       37 </v>
  <v type="int" >       51 </v>
  <v type="int" >      112 </v>
  <v type="int" >       38 </v>
  <v type="int" >       57 </v>
  <v type="int" >       12 </v>
  <v type="int" >       95 </v>
  <v type="int" >       90 </v>
  <v type="int" >       94 </v>
  <v type="int" >      128 </v>
  <v type="int" >      127 </v>
  <v type="int" >      110 </v>
  <v type="int" >      104 </v>
  <v type="int" >      122 </v>
  <v type="int" >       87 </v>
  <v type="int" >      118 </v>
  <v type="int" >       88 </v>
  <v type="int" >      124 </v>
  <v type="int" >      119 </v>
  <v type="int" >      102 </v>
  <v type="int" >       41 </v>
  <v type="int" >        9 </v>
  <v type="int" >        3 </v>
  <v type="int" >       33 </v>
  <v type="int" >       11 </v>
  <v type="int" >       35 </v>
  <v type="int" >       79 </v>
  <v type="int" >      121 </v>
  <v type="int" >      111 </v>
  <v type="int" >       76 </v>
  <v type="int" >      105 </v>
  <v type="int" >      123 </v>
  <v type="int" >       75 </v>
  <v type="int" >      109 </v>
  <v type="int" >      100 </v>
  <v type="int" >      108 </v>
  <v type="int" >      115 </v>
  <v type="int" >       99 </v>
  <v type="int" >       47 </v>
  <v type="int" >       28 </v>
  <v type="int" >       31 </v>
  <v type="int" >       42 </v>
  <v type="int" >       46 </v>
  <v type="int" >       58 </v>
  <v type="int" >       59 </v>
  <v type="int" >       55 </v>
  <v type="int" >       40 </v>
  <v type="int" >       39 </v>
  <v type="int" >       44 </v>
  <v type="int" >       27 </v>
  <v type="int" >       86 </v>
  <v type="int" >       70 </v>
  <v type="int" >       82 </v>
  <v type="int" >       85 </v>
  <v type="int" >       64 </v>
  <v type="int" >       22 </v>
  <v type="int" >       91 </v>
  <v type="int" >      107 </v>
  <v type="int" >      106 </v>
  <v type="int" >      103 </v>
  <v type="int" >       43 </v>
 </varray>
 <kpoints>
  <generation param="Gamma">
   <v type="int" name="divisions">       2        2        2 </v>
   <v name="usershift">      0.00000000       0.00000000       0.00000000 </v>
   <v name="genvec1">      0.50000000       0.00000000       0.00000000 </v>
   <v name="genvec2">      0.00000000       0.50000000       0.00000000 </v>
   <v name="genvec3">      0.00000000       0.00000000       0.50000000 </v>
   <v name="shift">      0.00000000       0.00000000       0.00000000 </v>
  </generation>
  <varray name="kpointlist" >
   <v>       0.00000000       0.00000000       0.00000000 </v>
   <v>       0.50000000       0.00000000       0.00000000 </v>
   <v>       0.00000000       0.50000000       0.00000000 </v>
   <v>       0.50000000       0.50000000       0.00000000 </v>
   <v>       0.00000000       0.00000000       0.50000000 </v>
   <v>       0.50000000       0.00000000       0.50000000 </v>
   <v>       0.00000000       0.50000000       0.50000000 </v>
   <v>       0.50000000       0.50000000       0.50000000 </v>
  </varray>
  <varray name="weights" >
   <v>       0.12500000 </v>
   <v>       0.12500000 </v>
   <v>       0.12500000 </v>
   <v>       0.12500000 </v>
   <v>       0.12500000 </v>
   <v>       0.12500000 </v>
   <v>       0.12500000 </v>
   <v>       0.12500000 </v>
  </varray>
 </kpoints>
 <parameters>
  <separator name="general" >
   <i type="string" name="SYSTEM">potpaw_PBE@./ARUN.APL1ZEROSTATE</i>
   <i type="logical" name="LCOMPAT"> F  </i>
  </separator>
  <separator name="electronic" >
   <i type="string" name="PREC">accura</i>
   <i name="ENMAX">    500.00000000</i>
   <i name="ENAUG">    322.06900000</i>
   <i name="EDIFF">      0.00000001</i>
   <i type="int" name="IALGO">    38</i>
   <i type="int" name="IWAVPR">    10</i>
   <i type="int" name="NBANDS">   322</i>
   <i name="NELECT">    512.00000000</i>
   <i type="int" name="TURBO">     0</i>
   <i type="int" name="IRESTART">     0</i>
   <i type="int" name="NREBOOT">     0</i>
   <i type="int" name="NMIN">     0</i>
   <i name="EREF">      0.00000000</i>
   <separator name="electronic smearing" >
    <i type="int" name="ISMEAR">     0</i>
    <i name="SIGMA">      0.01000000</i>
    <i name="KSPACING">      0.50000000</i>
    <i type="logical" name="KGAMMA"> T  </i>
   </separator>
   <separator name="electronic projectors" >
    <i type="logical" name="LREAL"> F  </i>
    <v name="ROPT">      0.00000000</v>
    <i type="int" name="LMAXPAW">  -100</i>
    <i type="int" name="LMAXMIX">     2</i>
    <i type="logical" name="NLSPLINE"> F  </i>
   </separator>
   <separator name="electronic startup" >
    <i type="int" name="ISTART">     0</i>
    <i type="int" name="ICHARG">     2</i>
    <i type="int" name="INIWAV">     1</i>
   </separator>
   <separator name="electronic spin" >
    <i type="int" name="ISPIN">     1</i>
    <i type="logical" name="LNONCOLLINEAR"> F  </i>
    <v name="MAGMOM">      1.00000000      1.00000000      1.00000000      1.00000000      1.00000000      1.00000000      1.00000000      1.00000000      1.00000000      1.00000000      1.00000000      1.00000000      1.00000000      1.00000000      1.00000000      1.00000000      1.00000000      1.00000000      1.00000000      1.00000000
      1.00000000      1.00000000      1.00000000      1.00000000      1.00000000      1.00000000      1.00000000      1.00000000      1.00000000      1.00000000      1.00000000      1.00000000      1.00000000      1.00000000      1.00000000      1.00000000      1.00000000      1.00000000      1.00000000      1.00000000
      1.00000000      1.00000000      1.00000000      1.00000000      1.00000000      1.00000000      1.00000000      1.00000000      1.00000000      1.00000000      1.00000000      1.00000000      1.00000000      1.00000000      1.00000000      1.00000000      1.00000000      1.00000000      1.00000000      1.00000000
      1.00000000      1.00000000      1.00000000      1.00000000      1.00000000      1.00000000      1.00000000      1.00000000      1.00000000      1.00000000      1.00000000      1.00000000      1.00000000      1.00000000      1.00000000      1.00000000      1.00000000      1.00000000      1.00000000      1.00000000
      1.00000000      1.00000000      1.00000000      1.00000000      1.00000000      1.00000000      1.00000000      1.00000000      1.00000000      1.00000000      1.00000000      1.00000000      1.00000000      1.00000000      1.00000000      1.00000000      1.00000000      1.00000000      1.00000000      1.00000000
      1.00000000      1.00000000      1.00000000      1.00000000      1.00000000      1.00000000      1.00000000      1.00000000      1.00000000      1.00000000      1.00000000      1.00000000      1.00000000      1.00000000      1.00000000      1.00000000      1.00000000      1.00000000      1.00000000      1.00000000
      1.00000000      1.00000000      1.00000000      1.00000000      1.00000000      1.00000000      1.00000000      1.00000000</v>
    <i name="NUPDOWN">     -1.00000000</i>
    <i type="logical" name="LSORBIT"> F  </i>
    <v name="SAXIS">      0.00000000      0.00000000      1.00000000</v>
    <i type="logical" name="LSPIRAL"> F  </i>
    <v name="QSPIRAL">      0.00000000      0.00000000      0.00000000</v>
    <i type="logical" name="LZEROZ"> F  </i>
   </separator>
   <separator name="electronic exchange-correlation" >
    <i type="logical" name="LASPH"> F  </i>
    <i type="logical" name="LMETAGGA"> F  </i>
   </separator>
   <separator name="electronic convergence" >
    <i type="int" name="NELM">   120</i>
    <i type="int" name="NELMDL">    -5</i>
    <i type="int" name="NELMIN">     4</i>
    <i name="ENINI">    500.00000000</i>
    <separator name="electronic convergence detail" >
     <i type="logical" name="LDIAG"> T  </i>
     <i type="logical" name="LSUBROT"> F  </i>
     <i name="WEIMIN">      0.00000000</i>
     <i name="EBREAK">      0.00000000</i>
     <i name="DEPER">      0.30000000</i>
     <i type="int" name="NRMM">     4</i>
     <i name="TIME">      0.40000000</i>
    </separator>
   </separator>
   <separator name="electronic mixer" >
    <i name="AMIX">      0.40000000</i>
    <i name="BMIX">      1.00000000</i>
    <i name="AMIN">      0.10000000</i>
    <i name="AMIX_MAG">      1.60000000</i>
    <i name="BMIX_MAG">      1.00000000</i>
    <separator name="electronic mixer details" >
     <i type="int" name="IMIX">     4</i>
     <i type="logical" name="MIXFIRST"> F  </i>
     <i type="int" name="MAXMIX">   -45</i>
     <i name="WC">    100.00000000</i>
     <i type="int" name="INIMIX">     1</i>
     <i type="int" name="MIXPRE">     1</i>
     <i type="int" name="MREMOVE">     5</i>
    </separator>
   </separator>
   <separator name="electronic dipolcorrection" >
    <i type="logical" name="LDIPOL"> F  </i>
    <i type="logical" name="LMONO"> F  </i>
    <i type="int" name="IDIPOL">     0</i>
    <i name="EPSILON">      1.00000000</i>
    <v name="DIPOL">   -100.00000000   -100.00000000   -100.00000000</v>
    <i name="EFIELD">      0.00000000</i>
   </separator>
  </separator>
  <separator name="grids" >
   <i type="int" name="NGX">   120</i>
   <i type="int" name="NGY">   120</i>
   <i type="int" name="NGZ">   120</i>
   <i type="int" name="NGXF">   240</i>
   <i type="int" name="NGYF">   240</i>
   <i type="int" name="NGZF">   240</i>
   <i type="logical" name="ADDGRID"> T  </i>
  </separator>
  <separator name="ionic" >
   <i type="int" name="NSW">     0</i>
   <i type="int" name="IBRION">    -1</i>
   <i type="int" name="MDALGO">     0</i>
   <i type="int" name="ISIF">     2</i>
   <i name="PSTRESS">      0.00000000</i>
   <i name="EDIFFG">      0.00000010</i>
   <i type="int" name="NFREE">     0</i>
   <i name="POTIM">      0.50000000</i>
   <i name="SMASS">     -3.00000000</i>
   <i name="SCALEE">      1.00000000</i>
  </separator>
  <separator name="ionic md" >
   <i name="TEBEG">      0.00010000</i>
   <i name="TEEND">      0.00010000</i>
   <i type="int" name="NBLOCK">     1</i>
   <i type="int" name="KBLOCK">     1</i>
   <i type="int" name="NPACO">   256</i>
   <i name="APACO">     16.00000000</i>
  </separator>
  <separator name="symmetry" >
   <i type="int" name="ISYM">     2</i>
   <i name="SYMPREC">      0.00001000</i>
  </separator>
  <separator name="dos" >
   <i type="int" name="LORBIT">     0</i>
   <v name="RWIGS">     -1.00000000</v>
   <i type="int" name="NEDOS">   301</i>
   <i name="EMIN">     10.00000000</i>
   <i name="EMAX">    -10.00000000</i>
   <i name="EFERMI">      0.00000000</i>
  </separator>
  <separator name="writing" >
   <i type="int" name="NWRITE">     2</i>
   <i type="logical" name="LWAVE"> F  </i>
   <i type="logical" name="LDOWNSAMPLE"> F  </i>
   <i type="logical" name="LCHARG"> F  </i>
   <i type="logical" name="LPARD"> F  </i>
   <i type="logical" name="LVTOT"> F  </i>
   <i type="logical" name="LVHAR"> F  </i>
   <i type="logical" name="LELF"> F  </i>
   <i type="logical" name="LOPTICS"> F  </i>
   <v name="STM">      0.00000000      0.00000000      0.00000000      0.00000000      0.00000000      0.00000000      0.00000000</v>
  </separator>
  <separator name="performance" >
   <i type="int" name="NPAR">     2</i>
   <i type="int" name="NSIM">     4</i>
   <i type="int" name="NBLK">    -1</i>
   <i type="logical" name="LPLANE"> T  </i>
   <i type="logical" name="LSCALAPACK"> T  </i>
   <i type="logical" name="LSCAAWARE"> F  </i>
   <i type="logical" name="LSCALU"> F  </i>
   <i type="logical" name="LASYNC"> F  </i>
   <i type="logical" name="LORBITALREAL"> F  </i>
  </separator>
  <separator name="miscellaneous" >
   <i type="int" name="IDIOT">     3</i>
   <i type="int" name="ISPECIAL">     0</i>
   <i type="logical" name="LMUSIC"> F  </i>
   <v name="POMASS">     28.08500000</v>
   <v name="DARWINR">      0.00000000</v>
   <v name="DARWINV">      1.00000000</v>
   <i type="logical" name="LCORR"> T  </i>
  </separator>
  <i type="logical" name="GGA_COMPAT"> T  </i>
  <i type="logical" name="LBERRY"> F  </i>
  <i type="int" name="ICORELEVEL">     0</i>
  <i type="logical" name="LDAU"> F  </i>
  <i type="int" name="I_CONSTRAINED_M">     0</i>
  <separator name="electronic exchange-correlation" >
   <i type="string" name="GGA">--</i>
   <i type="int" name="VOSKOWN">     0</i>
   <i type="logical" name="LHFCALC"> F  </i>
   <i type="string" name="PRECFOCK"></i>
   <i type="logical" name="LSYMGRAD"> F  </i>
   <i type="logical" name="LHFONE"> F  </i>
   <i type="logical" name="LRHFCALC"> F  </i>
   <i type="logical" name="LTHOMAS"> F  </i>
   <i type="logical" name="LMODELHF"> F  </i>
   <i name="ENCUT4O">     -1.00000000</i>
   <i type="int" name="EXXOEP">     0</i>
   <i type="int" name="FOURORBIT">     0</i>
   <i name="AEXX">      0.00000000</i>
   <i name="HFALPHA">      0.00000000</i>
   <i name="MCALPHA">      0.00000000</i>
   <i name="ALDAX">      1.00000000</i>
   <i name="AGGAX">      1.00000000</i>
   <i name="ALDAC">      1.00000000</i>
   <i name="AGGAC">      1.00000000</i>
   <i type="int" name="NKREDX">     1</i>
   <i type="int" name="NKREDY">     1</i>
   <i type="int" name="NKREDZ">     1</i>
   <i type="logical" name="SHIFTRED"> F  </i>
   <i type="logical" name="ODDONLY"> F  </i>
   <i type="logical" name="EVENONLY"> F  </i>
   <i type="int" name="LMAXFOCK">     0</i>
   <i type="int" name="NMAXFOCKAE">     0</i>
   <i type="logical" name="LFOCKAEDFT"> F  </i>
   <i name="HFSCREEN">      0.00000000</i>
   <i name="HFSCREENC">      0.00000000</i>
   <i type="int" name="NBANDSGWLOW">     0</i>
  </separator>
  <separator name="vdW DFT" >
   <i type="logical" name="LUSE_VDW"> F  </i>
   <i name="Zab_VDW">     -0.84910000</i>
   <i name="PARAM1">      0.12340000</i>
   <i name="PARAM2">      1.00000000</i>
   <i name="PARAM3">      0.00000000</i>
  </separator>
  <separator name="model GW" >
   <i type="int" name="MODEL_GW">     0</i>
   <i name="MODEL_EPS0">     12.26607635</i>
   <i name="MODEL_ALPHA">      1.00000000</i>
  </separator>
  <separator name="linear response parameters" >
   <i type="logical" name="LEPSILON"> F  </i>
   <i type="logical" name="LRPA"> F  </i>
   <i type="logical" name="LNABLA"> F  </i>
   <i type="logical" name="LVEL"> F  </i>
   <i type="int" name="KINTER">     0</i>
   <i name="CSHIFT">      0.10000000</i>
   <i name="OMEGAMAX">     -1.00000000</i>
   <i name="DEG_THRESHOLD">      0.00200000</i>
   <i name="RTIME">     -0.10000000</i>
   <i name="WPLASMAI">      0.00000000</i>
   <v name="DFIELD">      0.00000000      0.00000000      0.00000000</v>
   <v name="WPLASMA">      0.00000000      0.00000000      0.00000000      0.00000000      0.00000000      0.00000000      0.00000000      0.00000000      0.00000000</v>
  </separator>
  <separator name="orbital magnetization" >
   <i type="logical" name="NUCIND"> F  </i>
   <v name="MAGPOS">      0.00000000      0.00000000      0.00000000</v>
   <i type="logical" name="LNICSALL"> T  </i>
   <i type="logical" name="ORBITALMAG"> F  </i>
   <i type="logical" name="LMAGBLOCH"> F  </i>
   <i type="logical" name="LCHIMAG"> F  </i>
   <i type="logical" name="LGAUGE"> T  </i>
   <i type="int" name="MAGATOM">     0</i>
   <v name="MAGDIPOL">      0.00000000      0.00000000      0.00000000</v>
   <v name="AVECCONST">      0.00000000      0.00000000      0.00000000</v>
  </separator>
  <separator name="response functions" >
   <i type="logical" name="LADDER"> F  </i>
   <i type="logical" name="LRPAFORCE"> F  </i>
   <i type="logical" name="LFXC"> F  </i>
   <i type="logical" name="LHARTREE"> T  </i>
   <i type="int" name="IBSE">     0</i>
   <v type="int" name="KPOINT">    -1     0     0     0</v>
   <i type="logical" name="LTCTE"> F  </i>
   <i type="logical" name="LTETE"> F  </i>
   <i type="logical" name="LTRIPLET"> F  </i>
   <i type="logical" name="LFXCEPS"> F  </i>
   <i type="logical" name="LFXHEG"> F  </i>
   <i type="int" name="NATURALO">     2</i>
   <i type="logical" name="L2ORDER"> F  </i>
   <i type="logical" name="LMP2LT"> F  </i>
   <i type="logical" name="LUSEW"> F  </i>
   <i name="ENCUTGW">     -2.00000000</i>
   <i name="ENCUTGWSOFT">     -2.00000000</i>
   <i name="ENCUTLF">     -1.00000000</i>
   <i type="int" name="LMAXMP2">    -1</i>
   <i name="SCISSOR">      0.00000000</i>
   <i type="int" name="NOMEGA">     0</i>
   <i type="int" name="NOMEGAR">     0</i>
   <i type="int" name="NBANDSGW">    -1</i>
   <i type="int" name="NBANDSO">    -1</i>
   <i type="int" name="NBANDSV">    -1</i>
   <i type="int" name="NELM">   120</i>
   <i type="int" name="NELMHF">     1</i>
   <i type="int" name="DIM">     3</i>
   <i type="int" name="ANTIRES">     0</i>
   <i name="OMEGAMAX">    -30.00000000</i>
   <i name="OMEGAMIN">    -30.00000000</i>
   <i name="OMEGATL">   -200.00000000</i>
   <i type="int" name="OMEGAGRID">   140</i>
   <i name="CSHIFT">     -0.10000000</i>
   <i type="logical" name="SELFENERGY"> F  </i>
   <i type="logical" name="LSPECTRAL"> F  </i>
   <i type="logical" name="LSPECTRALGW"> F  </i>
   <i type="logical" name="LSINGLES"> F  </i>
   <i type="logical" name="LFERMIGW"> F  </i>
   <i type="logical" name="ODDONLYGW"> F  </i>
   <i type="logical" name="EVENONLYGW"> F  </i>
   <i type="int" name="NKREDLFX">     1</i>
   <i type="int" name="NKREDLFY">     1</i>
   <i type="int" name="NKREDLFZ">     1</i>
   <i type="int" name="MAXMEM">  2800</i>
   <i type="int" name="TELESCOPE">     0</i>
   <i type="int" name="TAUPAR">     1</i>
   <i type="int" name="OMEGAPAR">    -1</i>
   <i name="LAMBDA">      1.00000000</i>
  </separator>
  <separator name="External order field" >
   <i name="OFIELD_KAPPA">      0.00000000</i>
   <v name="OFIELD_K">      0.00000000      0.00000000      0.00000000</v>
   <i name="OFIELD_Q6_NEAR">      0.00000000</i>
   <i name="OFIELD_Q6_FAR">      0.00000000</i>
   <i name="OFIELD_A">      0.00000000</i>
  </separator>
 </parameters>
 <atominfo>
  <atoms>     128 </atoms>
  <types>       1 </types>
  <array name="atoms" >
   <dimension dim="1">ion</dimension>
   <field type="string">element</field>
   <field type="int">atomtype</field>
   <set>
    <rc><c>Si</c><c>   1</c></rc>
    <rc><c>Si</c><c>   1</c></rc>
    <rc><c>Si</c><c>   1</c></rc>
    <rc><c>Si</c><c>   1</c></rc>
    <rc><c>Si</c><c>   1</c></rc>
    <rc><c>Si</c><c>   1</c></rc>
    <rc><c>Si</c><c>   1</c></rc>
    <rc><c>Si</c><c>   1</c></rc>
    <rc><c>Si</c><c>   1</c></rc>
    <rc><c>Si</c><c>   1</c></rc>
    <rc><c>Si</c><c>   1</c></rc>
    <rc><c>Si</c><c>   1</c></rc>
    <rc><c>Si</c><c>   1</c></rc>
    <rc><c>Si</c><c>   1</c></rc>
    <rc><c>Si</c><c>   1</c></rc>
    <rc><c>Si</c><c>   1</c></rc>
    <rc><c>Si</c><c>   1</c></rc>
    <rc><c>Si</c><c>   1</c></rc>
    <rc><c>Si</c><c>   1</c></rc>
    <rc><c>Si</c><c>   1</c></rc>
    <rc><c>Si</c><c>   1</c></rc>
    <rc><c>Si</c><c>   1</c></rc>
    <rc><c>Si</c><c>   1</c></rc>
    <rc><c>Si</c><c>   1</c></rc>
    <rc><c>Si</c><c>   1</c></rc>
    <rc><c>Si</c><c>   1</c></rc>
    <rc><c>Si</c><c>   1</c></rc>
    <rc><c>Si</c><c>   1</c></rc>
    <rc><c>Si</c><c>   1</c></rc>
    <rc><c>Si</c><c>   1</c></rc>
    <rc><c>Si</c><c>   1</c></rc>
    <rc><c>Si</c><c>   1</c></rc>
    <rc><c>Si</c><c>   1</c></rc>
    <rc><c>Si</c><c>   1</c></rc>
    <rc><c>Si</c><c>   1</c></rc>
    <rc><c>Si</c><c>   1</c></rc>
    <rc><c>Si</c><c>   1</c></rc>
    <rc><c>Si</c><c>   1</c></rc>
    <rc><c>Si</c><c>   1</c></rc>
    <rc><c>Si</c><c>   1</c></rc>
    <rc><c>Si</c><c>   1</c></rc>
    <rc><c>Si</c><c>   1</c></rc>
    <rc><c>Si</c><c>   1</c></rc>
    <rc><c>Si</c><c>   1</c></rc>
    <rc><c>Si</c><c>   1</c></rc>
    <rc><c>Si</c><c>   1</c></rc>
    <rc><c>Si</c><c>   1</c></rc>
    <rc><c>Si</c><c>   1</c></rc>
    <rc><c>Si</c><c>   1</c></rc>
    <rc><c>Si</c><c>   1</c></rc>
    <rc><c>Si</c><c>   1</c></rc>
    <rc><c>Si</c><c>   1</c></rc>
    <rc><c>Si</c><c>   1</c></rc>
    <rc><c>Si</c><c>   1</c></rc>
    <rc><c>Si</c><c>   1</c></rc>
    <rc><c>Si</c><c>   1</c></rc>
    <rc><c>Si</c><c>   1</c></rc>
    <rc><c>Si</c><c>   1</c></rc>
    <rc><c>Si</c><c>   1</c></rc>
    <rc><c>Si</c><c>   1</c></rc>
    <rc><c>Si</c><c>   1</c></rc>
    <rc><c>Si</c><c>   1</c></rc>
    <rc><c>Si</c><c>   1</c></rc>
    <rc><c>Si</c><c>   1</c></rc>
    <rc><c>Si</c><c>   1</c></rc>
    <rc><c>Si</c><c>   1</c></rc>
    <rc><c>Si</c><c>   1</c></rc>
    <rc><c>Si</c><c>   1</c></rc>
    <rc><c>Si</c><c>   1</c></rc>
    <rc><c>Si</c><c>   1</c></rc>
    <rc><c>Si</c><c>   1</c></rc>
    <rc><c>Si</c><c>   1</c></rc>
    <rc><c>Si</c><c>   1</c></rc>
    <rc><c>Si</c><c>   1</c></rc>
    <rc><c>Si</c><c>   1</c></rc>
    <rc><c>Si</c><c>   1</c></rc>
    <rc><c>Si</c><c>   1</c></rc>
    <rc><c>Si</c><c>   1</c></rc>
    <rc><c>Si</c><c>   1</c></rc>
    <rc><c>Si</c><c>   1</c></rc>
    <rc><c>Si</c><c>   1</c></rc>
    <rc><c>Si</c><c>   1</c></rc>
    <rc><c>Si</c><c>   1</c></rc>
    <rc><c>Si</c><c>   1</c></rc>
    <rc><c>Si</c><c>   1</c></rc>
    <rc><c>Si</c><c>   1</c></rc>
    <rc><c>Si</c><c>   1</c></rc>
    <rc><c>Si</c><c>   1</c></rc>
    <rc><c>Si</c><c>   1</c></rc>
    <rc><c>Si</c><c>   1</c></rc>
    <rc><c>Si</c><c>   1</c></rc>
    <rc><c>Si</c><c>   1</c></rc>
    <rc><c>Si</c><c>   1</c></rc>
    <rc><c>Si</c><c>   1</c></rc>
    <rc><c>Si</c><c>   1</c></rc>
    <rc><c>Si</c><c>   1</c></rc>
    <rc><c>Si</c><c>   1</c></rc>
    <rc><c>Si</c><c>   1</c></rc>
    <rc><c>Si</c><c>   1</c></rc>
    <rc><c>Si</c><c>   1</c></rc>
    <rc><c>Si</c><c>   1</c></rc>
    <rc><c>Si</c><c>   1</c></rc>
    <rc><c>Si</c><c>   1</c></rc>
    <rc><c>Si</c><c>   1</c></rc>
    <rc><c>Si</c><c>   1</c></rc>
    <rc><c>Si</c><c>   1</c></rc>
    <rc><c>Si</c><c>   1</c></rc>
    <rc><c>Si</c><c>   1</c></rc>
    <rc><c>Si</c><c>   1</c></rc>
    <rc><c>Si</c><c>   1</c></rc>
    <rc><c>Si</c><c>   1</c></rc>
    <rc><c>Si</c><c>   1</c></rc>
    <rc><c>Si</c><c>   1</c></rc>
    <rc><c>Si</c><c>   1</c></rc>
    <rc><c>Si</c><c>   1</c></rc>
    <rc><c>Si</c><c>   1</c></rc>
    <rc><c>Si</c><c>   1</c></rc>
    <rc><c>Si</c><c>   1</c></rc>
    <rc><c>Si</c><c>   1</c></rc>
    <rc><c>Si</c><c>   1</c></rc>
    <rc><c>Si</c><c>   1</c></rc>
    <rc><c>Si</c><c>   1</c></rc>
    <rc><c>Si</c><c>   1</c></rc>
    <rc><c>Si</c><c>   1</c></rc>
    <rc><c>Si</c><c>   1</c></rc>
    <rc><c>Si</c><c>   1</c></rc>
    <rc><c>Si</c><c>   1</c></rc>
    <rc><c>Si</c><c>   1</c></rc>
   </set>
  </array>
  <array name="atomtypes" >
   <dimension dim="1">type</dimension>
   <field type="int">atomspertype</field>
   <field type="string">element</field>
   <field>mass</field>
   <field>valence</field>
   <field type="string">pseudopotential</field>
   <set>
    <rc><c> 128</c><c>Si</c><c>     28.08500000</c><c>      4.00000000</c><c> PAW_PBE Si 05Jan2001                   </c></rc>
   </set>
  </array>
 </atominfo>
 <structure name="initialpos" >
  <crystal>
   <varray name="basis" >
    <v>       0.00000000      10.93733369      10.93733369 </v>
    <v>      10.93733369       0.00000000      10.93733369 </v>
    <v>      10.93733369      10.93733369       0.00000000 </v>
   </varray>
   <i name="volume">   2616.76295363 </i>
   <varray name="rec_basis" >
    <v>      -0.04571498       0.04571498       0.04571498 </v>
    <v>       0.04571498      -0.04571498       0.04571498 </v>
    <v>       0.04571498       0.04571498      -0.04571498 </v>
   </varray>
  </crystal>
  <varray name="positions" >
   <v>       0.00124828       0.98678263       0.00790499 </v>
   <v>       0.25011775       0.99084630       0.00621859 </v>
   <v>       0.50787599       0.99397697       0.00108733 </v>
   <v>       0.74893285       0.00565192       0.99951264 </v>
   <v>       0.00637194       0.24907837       0.99398802 </v>
   <v>       0.24601794       0.24711001       0.99483458 </v>
   <v>       0.49605570       0.25197907       0.00432043 </v>
   <v>       0.74482194       0.25619759       0.00037230 </v>
   <v>       0.99432632       0.50111942       0.00193514 </v>
   <v>       0.24186081       0.50447001       0.00136499 </v>
   <v>       0.50020634       0.49323829       0.00511335 </v>
   <v>       0.74998187       0.50989099       0.99585243 </v>
   <v>       0.00797439       0.74160092       0.99242791 </v>
   <v>       0.24562423       0.74799030       0.00709706 </v>
   <v>       0.50276465       0.75157449       0.99982920 </v>
   <v>       0.74671797       0.75479943       0.99610415 </v>
   <v>       0.99254528       0.99834206       0.24464824 </v>
   <v>       0.25866291       0.99325083       0.25488602 </v>
   <v>       0.49989248       0.99949128       0.24892921 </v>
   <v>       0.75229034       0.00267812       0.24638910 </v>
   <v>       0.00726284       0.24855614       0.24990364 </v>
   <v>       0.25562066       0.24496289       0.25118230 </v>
   <v>       0.50080962       0.25095162       0.25105836 </v>
   <v>       0.74992830       0.24390212       0.24698117 </v>
   <v>       0.00362233       0.51186431       0.24076629 </v>
   <v>       0.25186094       0.49567653       0.23530391 </v>
   <v>       0.50617238       0.48831205       0.26859614 </v>
   <v>       0.74467675       0.50669872       0.24432565 </v>
   <v>       0.99489823       0.74544228       0.25708483 </v>
   <v>       0.24085506       0.75054260       0.24994591 </v>
   <v>       0.50611130       0.74960650       0.24491005 </v>
   <v>       0.74540744       0.74968649       0.24483641 </v>
   <v>       0.00101850       0.01001034       0.50076675 </v>
   <v>       0.25860526       0.99332802       0.50097407 </v>
   <v>       0.49627892       0.00287794       0.50323161 </v>
   <v>       0.75038576       0.01092288       0.50889790 </v>
   <v>       0.99972306       0.25370697       0.49816518 </v>
   <v>       0.26550448       0.24539059       0.49506896 </v>
   <v>       0.50655255       0.24574174       0.49964814 </v>
   <v>       0.75111156       0.24080281       0.50156886 </v>
   <v>       0.99889648       0.51096232       0.48761993 </v>
   <v>       0.24361944       0.49960865       0.50403121 </v>
   <v>       0.50314138       0.49910371       0.49902952 </v>
   <v>       0.74813506       0.48154861       0.50541567 </v>
   <v>       0.00902130       0.74287499       0.50213615 </v>
   <v>       0.24993426       0.74589804       0.49975092 </v>
   <v>       0.49997583       0.76160998       0.48918042 </v>
   <v>       0.75584541       0.73472718       0.49677110 </v>
   <v>       0.99726638       0.00092757       0.74947010 </v>
   <v>       0.25563975       0.99775299       0.74782883 </v>
   <v>       0.50916257       0.99910383       0.74022373 </v>
   <v>       0.74785490       0.99489172       0.76552987 </v>
   <v>       0.99304072       0.25374769       0.75995696 </v>
   <v>       0.24793107       0.25020864       0.75255260 </v>
   <v>       0.49174858       0.24425884       0.75415063 </v>
   <v>       0.75312106       0.25488566       0.74821618 </v>
   <v>       0.00160164       0.50377045       0.75200981 </v>
   <v>       0.25090362       0.49997330       0.74780688 </v>
   <v>       0.50213758       0.50932716       0.73541682 </v>
   <v>       0.75465797       0.49397539       0.74782976 </v>
   <v>       0.99448707       0.75183747       0.75473441 </v>
   <v>       0.25223678       0.73393769       0.75160405 </v>
   <v>       0.49388735       0.75181534       0.75672176 </v>
   <v>       0.75664706       0.75204942       0.74706840 </v>
   <v>       0.06994611       0.06767841       0.06116168 </v>
   <v>       0.32086820       0.06367314       0.04961759 </v>
   <v>       0.55786369       0.07729392       0.05561353 </v>
   <v>       0.81079458       0.06292470       0.05975220 </v>
   <v>       0.05678687       0.31529279       0.06929091 </v>
   <v>       0.31505313       0.31029722       0.07529980 </v>
   <v>       0.57129442       0.30479699       0.06088487 </v>
   <v>       0.83019706       0.30505003       0.05412133 </v>
   <v>       0.05965289       0.56228910       0.05407355 </v>
   <v>       0.31027184       0.55605521       0.06245066 </v>
   <v>       0.56268227       0.56903588       0.05693317 </v>
   <v>       0.80357749       0.57184585       0.05987929 </v>
   <v>       0.05994656       0.80905245       0.06306765 </v>
   <v>       0.31937371       0.80727794       0.06090931 </v>
   <v>       0.57628622       0.81710233       0.06309748 </v>
   <v>       0.81382259       0.81727441       0.06035002 </v>
   <v>       0.05684716       0.06428760       0.31519926 </v>
   <v>       0.30129006       0.06359983       0.31590319 </v>
   <v>       0.55945974       0.06713564       0.32083917 </v>
   <v>       0.81418594       0.06970285       0.31426983 </v>
   <v>       0.05850059       0.30512588       0.32133717 </v>
   <v>       0.31883912       0.31859269       0.30304368 </v>
   <v>       0.56303948       0.31088066       0.31775871 </v>
   <v>       0.80986745       0.32157807       0.31270621 </v>
   <v>       0.07276682       0.55482949       0.31171624 </v>
   <v>       0.31502494       0.55480780       0.30620070 </v>
   <v>       0.54994330       0.57660099       0.30731657 </v>
   <v>       0.82961720       0.56069370       0.29806753 </v>
   <v>       0.05850639       0.80683348       0.31671027 </v>
   <v>       0.30908921       0.81018735       0.31175027 </v>
   <v>       0.56516893       0.81434538       0.31055891 </v>
   <v>       0.81163488       0.81837703       0.31072262 </v>
   <v>       0.07276946       0.05025519       0.56899978 </v>
   <v>       0.30871124       0.07281443       0.56161804 </v>
   <v>       0.56017090       0.06409761       0.56195976 </v>
   <v>       0.81343119       0.07417273       0.54996223 </v>
   <v>       0.05333530       0.30726089       0.57139202 </v>
   <v>       0.33264193       0.30631795       0.55512180 </v>
   <v>       0.56443694       0.31434316       0.56597308 </v>
   <v>       0.82404093       0.30579586       0.56208140 </v>
   <v>       0.06143793       0.56686033       0.56493839 </v>
   <v>       0.30922912       0.56482333       0.56375384 </v>
   <v>       0.56276786       0.57120887       0.54812487 </v>
   <v>       0.81603710       0.56125966       0.56839660 </v>
   <v>       0.04177722       0.82249791       0.56706140 </v>
   <v>       0.31850632       0.80899766       0.56375077 </v>
   <v>       0.54894070       0.82150847       0.57184795 </v>
   <v>       0.80089820       0.82568161       0.55364612 </v>
   <v>       0.06156941       0.06858367       0.81121747 </v>
   <v>       0.31462985       0.06470468       0.80465802 </v>
   <v>       0.55887826       0.05701541       0.82514712 </v>
   <v>       0.81701435       0.05625001       0.81751676 </v>
   <v>       0.06169613       0.31255172       0.81455688 </v>
   <v>       0.29195149       0.32933020       0.81753112 </v>
   <v>       0.55776868       0.31662358       0.80375423 </v>
   <v>       0.81390068       0.31273985       0.81438302 </v>
   <v>       0.05932820       0.56821626       0.81882049 </v>
   <v>       0.31119937       0.55170239       0.81150052 </v>
   <v>       0.56092850       0.57128077       0.80747045 </v>
   <v>       0.82557653       0.56617395       0.80971628 </v>
   <v>       0.06055824       0.81742296       0.81105825 </v>
   <v>       0.31466809       0.81135014       0.80187773 </v>
   <v>       0.56300727       0.80966945       0.81356989 </v>
   <v>       0.81434744       0.80509843       0.81803619 </v>
  </varray>
 </structure>
 <calculation>
  <scstep>
   <time name="dav">   69.55   69.56</time>
   <time name="total">   70.55   70.58</time>
   <energy>
    <i name="alphaZ">    210.77028614 </i>
    <i name="ewald"> -14471.81209609 </i>
    <i name="hartreedc">   -755.92482026 </i>
    <i name="XCdc">  -1195.33990349 </i>
    <i name="pawpsdc">   4221.13331941 </i>
    <i name="pawaedc">  -1969.18571412 </i>
    <i name="eentropy">     -0.00026879 </i>
    <i name="bandstr">   2151.05411712 </i>
    <i name="atom">  13192.48085998 </i>
    <i name="e_fr_energy">   1383.17577991 </i>
    <i name="e_wo_entrp">   1383.17604870 </i>
    <i name="e_0_energy">   1383.17591431 </i>
   </energy>
  </scstep>
  <scstep>
   <time name="dav">   79.09   79.10</time>
   <time name="total">   79.09   79.10</time>
   <energy>
    <i name="e_fr_energy">   -537.01757319 </i>
    <i name="e_wo_entrp">   -537.01757319 </i>
    <i name="e_0_energy">   -537.01757319 </i>
   </energy>
  </scstep>
  <scstep>
   <time name="dav">   80.98   81.01</time>
   <time name="total">   80.99   81.01</time>
   <energy>
    <i name="e_fr_energy">   -686.83180500 </i>
    <i name="e_wo_entrp">   -686.83180500 </i>
    <i name="e_0_energy">   -686.83180500 </i>
   </energy>
  </scstep>
  <scstep>
   <time name="dav">   80.03   80.04</time>
   <time name="total">   80.03   80.04</time>
   <energy>
    <i name="e_fr_energy">   -691.01724881 </i>
    <i name="e_wo_entrp">   -691.01724881 </i>
    <i name="e_0_energy">   -691.01724881 </i>
   </energy>
  </scstep>
  <scstep>
   <time name="dav">   80.60   80.63</time>
   <time name="total">   83.82   83.85</time>
   <energy>
    <i name="e_fr_energy">   -691.15946363 </i>
    <i name="e_wo_entrp">   -691.15946363 </i>
    <i name="e_0_energy">   -691.15946363 </i>
   </energy>
  </scstep>
  <scstep>
   <time name="dav">   76.86   76.88</time>
   <time name="total">   81.05   81.08</time>
   <energy>
    <i name="e_fr_energy">   -682.76973393 </i>
    <i name="e_wo_entrp">   -682.76973393 </i>
    <i name="e_0_energy">   -682.76973393 </i>
   </energy>
  </scstep>
  <scstep>
   <time name="dav">   75.74   75.76</time>
   <time name="total">   79.92   79.94</time>
   <energy>
    <i name="e_fr_energy">   -679.24648415 </i>
    <i name="e_wo_entrp">   -679.24648415 </i>
    <i name="e_0_energy">   -679.24648415 </i>
   </energy>
  </scstep>
  <scstep>
   <time name="dav">   75.69   75.72</time>
   <time name="total">   79.86   79.89</time>
   <energy>
    <i name="e_fr_energy">   -679.30116787 </i>
    <i name="e_wo_entrp">   -679.30116787 </i>
    <i name="e_0_energy">   -679.30116787 </i>
   </energy>
  </scstep>
  <scstep>
   <time name="dav">   79.23   79.26</time>
   <time name="total">   83.38   83.41</time>
   <energy>
    <i name="e_fr_energy">   -679.32447533 </i>
    <i name="e_wo_entrp">   -679.32447533 </i>
    <i name="e_0_energy">   -679.32447533 </i>
   </energy>
  </scstep>
  <scstep>
   <time name="dav">   77.52   77.54</time>
   <time name="total">   81.70   81.72</time>
   <energy>
    <i name="e_fr_energy">   -679.32692929 </i>
    <i name="e_wo_entrp">   -679.32692929 </i>
    <i name="e_0_energy">   -679.32692929 </i>
   </energy>
  </scstep>
  <scstep>
   <time name="dav">   76.13   76.15</time>
   <time name="total">   80.26   80.29</time>
   <energy>
    <i name="e_fr_energy">   -679.32842254 </i>
    <i name="e_wo_entrp">   -679.32842254 </i>
    <i name="e_0_energy">   -679.32842254 </i>
   </energy>
  </scstep>
  <scstep>
   <time name="dav">   79.04   79.08</time>
   <time name="total">   83.18   83.22</time>
   <energy>
    <i name="e_fr_energy">   -679.32850914 </i>
    <i name="e_wo_entrp">   -679.32850914 </i>
    <i name="e_0_energy">   -679.32850914 </i>
   </energy>
  </scstep>
  <scstep>
   <time name="dav">   75.36   75.37</time>
   <time name="total">   79.50   79.52</time>
   <energy>
    <i name="e_fr_energy">   -679.32853647 </i>
    <i name="e_wo_entrp">   -679.32853647 </i>
    <i name="e_0_energy">   -679.32853647 </i>
   </energy>
  </scstep>
  <scstep>
   <time name="dav">   79.00   79.02</time>
   <time name="total">   83.26   83.29</time>
   <energy>
    <i name="e_fr_energy">   -679.32854233 </i>
    <i name="e_wo_entrp">   -679.32854233 </i>
    <i name="e_0_energy">   -679.32854233 </i>
   </energy>
  </scstep>
  <scstep>
   <time name="dav">   79.73   79.75</time>
   <time name="total">   83.98   84.00</time>
   <energy>
    <i name="e_fr_energy">   -679.32854519 </i>
    <i name="e_wo_entrp">   -679.32854519 </i>
    <i name="e_0_energy">   -679.32854519 </i>
   </energy>
  </scstep>
  <scstep>
   <time name="dav">   77.88   77.89</time>
   <time name="total">   82.01   82.03</time>
   <energy>
    <i name="e_fr_energy">   -679.32854464 </i>
    <i name="e_wo_entrp">   -679.32854464 </i>
    <i name="e_0_energy">   -679.32854464 </i>
   </energy>
  </scstep>
  <scstep>
   <time name="dav">   55.30   55.31</time>
   <time name="total">   59.47   59.49</time>
   <energy>
    <i name="e_fr_energy">   -679.32854467 </i>
    <i name="e_wo_entrp">   -679.32854467 </i>
    <i name="e_0_energy">   -679.32854467 </i>
   </energy>
  </scstep>
  <scstep>
   <time name="dav">   51.43   51.44</time>
   <time name="total">   55.56   55.58</time>
   <energy>
    <i name="e_fr_energy">   -679.32854476 </i>
    <i name="e_wo_entrp">   -679.32854476 </i>
    <i name="e_0_energy">   -679.32854476 </i>
   </energy>
  </scstep>
  <scstep>
   <time name="dav">   50.60   50.61</time>
   <time name="total">   54.72   54.73</time>
   <energy>
    <i name="e_fr_energy">   -679.32854471 </i>
    <i name="e_wo_entrp">   -679.32854471 </i>
    <i name="e_0_energy">   -679.32854471 </i>
   </energy>
  </scstep>
  <scstep>
   <time name="dav">   49.88   49.89</time>
   <time name="total">   50.88   50.90</time>
   <energy>
    <i name="alphaZ">    210.77028614 </i>
    <i name="ewald"> -14471.81209609 </i>
    <i name="hartreedc">  -1001.08434159 </i>
    <i name="XCdc">  -1155.82207845 </i>
    <i name="pawpsdc">   4731.09922568 </i>
    <i name="pawaedc">  -2492.83182600 </i>
    <i name="eentropy">     -0.00000000 </i>
    <i name="bandstr">    307.87142560 </i>
    <i name="atom">  13192.48085998 </i>
    <i name="e_fr_energy">   -679.32854472 </i>
    <i name="e_wo_entrp">   -679.32854472 </i>
    <i name="e_0_energy">   -679.32854472 </i>
   </energy>
  </scstep>
  <structure>
   <crystal>
    <varray name="basis" >
     <v>       0.00000000      10.93733369      10.93733369 </v>
     <v>      10.93733369       0.00000000      10.93733369 </v>
     <v>      10.93733369      10.93733369       0.00000000 </v>
    </varray>
    <i name="volume">   2616.76295363 </i>
    <varray name="rec_basis" >
     <v>      -0.04571498       0.04571498       0.04571498 </v>
     <v>       0.04571498      -0.04571498       0.04571498 </v>
     <v>       0.04571498       0.04571498      -0.04571498 </v>
    </varray>
   </crystal>
   <varray name="positions" >
    <v>       0.00124828       0.98678263       0.00790499 </v>
    <v>       0.25011775       0.99084630       0.00621859 </v>
    <v>       0.50787599       0.99397697       0.00108733 </v>
    <v>       0.74893285       0.00565192       0.99951264 </v>
    <v>       0.00637194       0.24907837       0.99398802 </v>
    <v>       0.24601794       0.24711001       0.99483458 </v>
    <v>       0.49605570       0.25197907       0.00432043 </v>
    <v>       0.74482194       0.25619759       0.00037230 </v>
    <v>       0.99432632       0.50111942       0.00193514 </v>
    <v>       0.24186081       0.50447001       0.00136499 </v>
    <v>       0.50020634       0.49323829       0.00511335 </v>
    <v>       0.74998187       0.50989099       0.99585243 </v>
    <v>       0.00797439       0.74160092       0.99242791 </v>
    <v>       0.24562423       0.74799030       0.00709706 </v>
    <v>       0.50276465       0.75157449       0.99982920 </v>
    <v>       0.74671797       0.75479943       0.99610415 </v>
    <v>       0.99254528       0.99834206       0.24464824 </v>
    <v>       0.25866291       0.99325083       0.25488602 </v>
    <v>       0.49989248       0.99949128       0.24892921 </v>
    <v>       0.75229034       0.00267812       0.24638910 </v>
    <v>       0.00726284       0.24855614       0.24990364 </v>
    <v>       0.25562066       0.24496289       0.25118230 </v>
    <v>       0.50080962       0.25095162       0.25105836 </v>
    <v>       0.74992830       0.24390212       0.24698117 </v>
    <v>       0.00362233       0.51186431       0.24076629 </v>
    <v>       0.25186094       0.49567653       0.23530391 </v>
    <v>       0.50617238       0.48831205       0.26859614 </v>
    <v>       0.74467675       0.50669872       0.24432565 </v>
    <v>       0.99489823       0.74544228       0.25708483 </v>
    <v>       0.24085506       0.75054260       0.24994591 </v>
    <v>       0.50611130       0.74960650       0.24491005 </v>
    <v>       0.74540744       0.74968649       0.24483641 </v>
    <v>       0.00101850       0.01001034       0.50076675 </v>
    <v>       0.25860526       0.99332802       0.50097407 </v>
    <v>       0.49627892       0.00287794       0.50323161 </v>
    <v>       0.75038576       0.01092288       0.50889790 </v>
    <v>       0.99972306       0.25370697       0.49816518 </v>
    <v>       0.26550448       0.24539059       0.49506896 </v>
    <v>       0.50655255       0.24574174       0.49964814 </v>
    <v>       0.75111156       0.24080281       0.50156886 </v>
    <v>       0.99889648       0.51096232       0.48761993 </v>
    <v>       0.24361944       0.49960865       0.50403121 </v>
    <v>       0.50314138       0.49910371       0.49902952 </v>
    <v>       0.74813506       0.48154861       0.50541567 </v>
    <v>       0.00902130       0.74287499       0.50213615 </v>
    <v>       0.24993426       0.74589804       0.49975092 </v>
    <v>       0.49997583       0.76160998       0.48918042 </v>
    <v>       0.75584541       0.73472718       0.49677110 </v>
    <v>       0.99726638       0.00092757       0.74947010 </v>
    <v>       0.25563975       0.99775299       0.74782883 </v>
    <v>       0.50916257       0.99910383       0.74022373 </v>
    <v>       0.74785490       0.99489172       0.76552987 </v>
    <v>       0.99304072       0.25374769       0.75995696 </v>
    <v>       0.24793107       0.25020864       0.75255260 </v>
    <v>       0.49174858       0.24425884       0.75415063 </v>
    <v>       0.75312106       0.25488566       0.74821618 </v>
    <v>       0.00160164       0.50377045       0.75200981 </v>
    <v>       0.25090362       0.49997330       0.74780688 </v>
    <v>       0.50213758       0.50932716       0.73541682 </v>
    <v>       0.75465797       0.49397539       0.74782976 </v>
    <v>       0.99448707       0.75183747       0.75473441 </v>
    <v>       0.25223678       0.73393769       0.75160405 </v>
    <v>       0.49388735       0.75181534       0.75672176 </v>
    <v>       0.75664706       0.75204942       0.74706840 </v>
    <v>       0.06994611       0.06767841       0.06116168 </v>
    <v>       0.32086820       0.06367314       0.04961759 </v>
    <v>       0.55786369       0.07729392       0.05561353 </v>
    <v>       0.81079458       0.06292470       0.05975220 </v>
    <v>       0.05678687       0.31529279       0.06929091 </v>
    <v>       0.31505313       0.31029722       0.07529980 </v>
    <v>       0.57129442       0.30479699       0.06088487 </v>
    <v>       0.83019706       0.30505003       0.05412133 </v>
    <v>       0.05965289       0.56228910       0.05407355 </v>
    <v>       0.31027184       0.55605521       0.06245066 </v>
    <v>       0.56268227       0.56903588       0.05693317 </v>
    <v>       0.80357749       0.57184585       0.05987929 </v>
    <v>       0.05994656       0.80905245       0.06306765 </v>
    <v>       0.31937371       0.80727794       0.06090931 </v>
    <v>       0.57628622       0.81710233       0.06309748 </v>
    <v>       0.81382259       0.81727441       0.06035002 </v>
    <v>       0.05684716       0.06428760       0.31519926 </v>
    <v>       0.30129006       0.06359983       0.31590319 </v>
    <v>       0.55945974       0.06713564       0.32083917 </v>
    <v>       0.81418594       0.06970285       0.31426983 </v>
    <v>       0.05850059       0.30512588       0.32133717 </v>
    <v>       0.31883912       0.31859269       0.30304368 </v>
    <v>       0.56303948       0.31088066       0.31775871 </v>
    <v>       0.80986745       0.32157807       0.31270621 </v>
    <v>       0.07276682       0.55482949       0.31171624 </v>
    <v>       0.31502494       0.55480780       0.30620070 </v>
    <v>       0.54994330       0.57660099       0.30731657 </v>
    <v>       0.82961720       0.56069370       0.29806753 </v>
    <v>       0.05850639       0.80683348       0.31671027 </v>
    <v>       0.30908921       0.81018735       0.31175027 </v>
    <v>       0.56516893       0.81434538       0.31055891 </v>
    <v>       0.81163488       0.81837703       0.31072262 </v>
    <v>       0.07276946       0.05025519       0.56899978 </v>
    <v>       0.30871124       0.07281443       0.56161804 </v>
    <v>       0.56017090       0.06409761       0.56195976 </v>
    <v>       0.81343119       0.07417273       0.54996223 </v>
    <v>       0.05333530       0.30726089       0.57139202 </v>
    <v>       0.33264193       0.30631795       0.55512180 </v>
    <v>       0.56443694       0.31434316       0.56597308 </v>
    <v>       0.82404093       0.30579586       0.56208140 </v>
    <v>       0.06143793       0.56686033       0.56493839 </v>
    <v>       0.30922912       0.56482333       0.56375384 </v>
    <v>       0.56276786       0.57120887       0.54812487 </v>
    <v>       0.81603710       0.56125966       0.56839660 </v>
    <v>       0.04177722       0.82249791       0.56706140 </v>
    <v>       0.31850632       0.80899766       0.56375077 </v>
    <v>       0.54894070       0.82150847       0.57184795 </v>
    <v>       0.80089820       0.82568161       0.55364612 </v>
    <v>       0.06156941       0.06858367       0.81121747 </v>
    <v>       0.31462985       0.06470468       0.80465802 </v>
    <v>       0.55887826       0.05701541       0.82514712 </v>
    <v>       0.81701435       0.05625001       0.81751676 </v>
    <v>       0.06169613       0.31255172       0.81455688 </v>
    <v>       0.29195149       0.32933020       0.81753112 </v>
    <v>       0.55776868       0.31662358       0.80375423 </v>
    <v>       0.81390068       0.31273985       0.81438302 </v>
    <v>       0.05932820       0.56821626       0.81882049 </v>
    <v>       0.31119937       0.55170239       0.81150052 </v>
    <v>       0.56092850       0.57128077       0.80747045 </v>
    <v>       0.82557653       0.56617395       0.80971628 </v>
    <v>       0.06055824       0.81742296       0.81105825 </v>
    <v>       0.31466809       0.81135014       0.80187773 </v>
    <v>       0.56300727       0.80966945       0.81356989 </v>
    <v>       0.81434744       0.80509843       0.81803619 </v>
   </varray>
  </structure>
  <varray name="forces" >
   <v>       1.04538620      -1.22029191       1.96309209 </v>
   <v>      -0.76435100      -0.33087514       1.51296329 </v>
   <v>       1.83306399      -0.42873464       0.11447942 </v>
   <v>      -0.18906217      -0.22914567      -0.86548825 </v>
   <v>       0.55372879       1.19906874       0.56256403 </v>
   <v>       1.84522103       1.21202110       0.49466575 </v>
   <v>      -0.15804645      -1.25264305       1.74016667 </v>
   <v>      -1.49496299       1.64133332       1.09492839 </v>
   <v>      -0.04812160      -0.53260562      -0.72712201 </v>
   <v>      -1.52807152       0.38983380      -0.27066404 </v>
   <v>      -0.24080657      -0.60619548       0.67574860 </v>
   <v>      -1.38197886       0.17139384      -0.89241727 </v>
   <v>       1.77589746      -0.49702034       0.16783736 </v>
   <v>      -1.12379553      -0.37738541       0.69659058 </v>
   <v>       0.57387500       0.32687578       0.83759616 </v>
   <v>      -0.29559537       2.04318980       1.30830301 </v>
   <v>       0.50678946       1.65178584       0.96470694 </v>
   <v>      -0.62290364      -2.75337281      -0.76109307 </v>
   <v>       0.95177218      -0.48263168       0.50647472 </v>
   <v>       1.27453001       0.14758294       0.03340896 </v>
   <v>       0.67744222      -0.76880277      -1.42847778 </v>
   <v>       1.66197715       0.09639509      -0.95382892 </v>
   <v>      -0.13107040      -0.03135794       0.73101701 </v>
   <v>       1.24252160      -0.31968002       2.17375977 </v>
   <v>      -1.72585472       1.30811627      -0.44155184 </v>
   <v>       1.78239275       1.58890802       0.18291035 </v>
   <v>      -0.92573712      -3.29589807       0.17377918 </v>
   <v>       0.63357712       0.41983327       0.13232553 </v>
   <v>      -0.96584381      -0.08102428       0.47672094 </v>
   <v>      -1.00722609       0.82761860       0.60177914 </v>
   <v>       1.97568428      -1.12367580       0.21582847 </v>
   <v>       0.06775003       1.58408032       1.04247721 </v>
   <v>      -0.71068353      -0.57905711      -0.86096574 </v>
   <v>       0.62395762      -0.12861002       0.20356067 </v>
   <v>       0.27643098      -0.16106626      -0.04986691 </v>
   <v>      -2.62386782      -2.48810752      -2.01446592 </v>
   <v>      -0.96895639       1.89956462      -0.80173614 </v>
   <v>       1.81362262      -2.05505772       0.52272690 </v>
   <v>       0.15448686       1.16140441       1.24991279 </v>
   <v>       2.62074792      -1.60067128       2.68044535 </v>
   <v>       0.51021628       2.37928624      -1.35430116 </v>
   <v>      -1.30850676       0.43994720       0.77792716 </v>
   <v>       0.27031015      -1.24893513      -0.18822420 </v>
   <v>       0.93648144      -0.90392338       2.88772983 </v>
   <v>       1.34802900      -2.31602214      -0.22603886 </v>
   <v>       1.58787008      -0.66111967       0.39705507 </v>
   <v>       0.49550613       1.48591733      -0.47554259 </v>
   <v>       2.92443354      -1.82787868       1.00689278 </v>
   <v>       0.48437072       1.03428502       0.72808951 </v>
   <v>       0.35652609      -1.05095121      -0.41903028 </v>
   <v>       1.47924334       0.80484087      -1.14555050 </v>
   <v>      -1.02087204      -1.24598212       0.51810459 </v>
   <v>      -1.13020682      -0.07031249       0.30861507 </v>
   <v>      -0.56123378      -0.41493342       0.73474120 </v>
   <v>       0.84536129      -0.33244755       0.26139861 </v>
   <v>      -0.53776536       0.03714178      -1.22021500 </v>
   <v>      -0.76182626       0.90640006       0.46672546 </v>
   <v>       1.02833903      -2.06278900       0.14001513 </v>
   <v>       0.26185467       0.44271552      -0.63012181 </v>
   <v>       2.01119540       0.41643671       0.69120722 </v>
   <v>      -0.19048452       0.12647730       0.78404184 </v>
   <v>       0.94863999      -0.73258117       0.90633665 </v>
   <v>      -0.31127031      -0.06784251       0.61391672 </v>
   <v>      -0.47135829      -1.24243870      -0.47399745 </v>
   <v>      -0.89177599      -0.49265299      -1.80063163 </v>
   <v>       0.45541865       0.99866750      -1.28993546 </v>
   <v>      -1.16254322       1.66476849      -1.35883206 </v>
   <v>       0.61281108       0.64930073       0.90282756 </v>
   <v>      -1.17910600      -0.30647344       0.30652311 </v>
   <v>      -1.02198991      -2.60318554      -0.07375213 </v>
   <v>       1.65311296      -0.80067282      -0.91180050 </v>
   <v>       2.16331197      -1.67116458      -1.20559498 </v>
   <v>       0.60353673       1.12630492      -0.04367943 </v>
   <v>      -0.38200061      -1.04464836       2.03765589 </v>
   <v>       0.04973506       1.20956949      -1.28365140 </v>
   <v>      -0.11755638       0.94590519       0.18963850 </v>
   <v>      -0.38920617       1.03979010      -0.96982096 </v>
   <v>       0.57451320      -0.15873225      -0.81680701 </v>
   <v>      -0.16342479      -1.56959191      -2.53131186 </v>
   <v>      -0.70982282      -0.27157177      -0.12370555 </v>
   <v>      -1.44448610       0.39559848       0.12869130 </v>
   <v>      -0.22703974       1.93966928       1.24161070 </v>
   <v>      -1.66704094      -0.34885166      -0.17869786 </v>
   <v>      -0.67630276       0.18934404      -2.01178469 </v>
   <v>      -0.20351991      -0.55731075       2.81112831 </v>
   <v>      -0.38058644       0.75195534      -1.74641824 </v>
   <v>      -1.29667351       0.18958299      -0.18180336 </v>
   <v>      -1.33895688      -0.02092481      -0.65275596 </v>
   <v>       0.33711298      -1.62234501       0.46586470 </v>
   <v>       0.92612795       0.27909896       0.05481978 </v>
   <v>      -0.39131377       3.01803335      -0.04153882 </v>
   <v>       1.90866163      -1.10376692      -2.39096929 </v>
   <v>       0.39582691      -0.46690463       0.36540185 </v>
   <v>      -0.53492230       0.54694952       0.14535138 </v>
   <v>      -0.36635281      -0.99752090      -0.04982196 </v>
   <v>      -0.78762978      -0.40295313      -1.36412661 </v>
   <v>       0.73127604      -1.04384281       1.00897207 </v>
   <v>      -1.58995308       1.05218295      -1.23297427 </v>
   <v>      -0.61079977       0.45126792       0.90534073 </v>
   <v>       0.53421454       4.60339737      -0.80071638 </v>
   <v>       0.36715215       0.51177276       2.37101690 </v>
   <v>       2.28293984      -1.49983671      -1.70433745 </v>
   <v>      -0.72806328       0.00039144      -0.70608995 </v>
   <v>      -0.12056721      -0.71494835      -2.24602616 </v>
   <v>      -1.11862739       0.16957178      -1.35153858 </v>
   <v>      -1.20076937       0.23943861      -0.07114074 </v>
   <v>       0.44380524       0.66115507       0.19338964 </v>
   <v>      -2.12915591      -0.57970060      -1.28755699 </v>
   <v>      -0.47424918       1.42419588       1.30682639 </v>
   <v>      -0.56014255      -0.69695587      -1.05805143 </v>
   <v>      -2.16470163       0.69193465       0.29932495 </v>
   <v>      -0.83935352       1.74908670      -0.05485682 </v>
   <v>      -0.49750820       0.82109278      -0.92961703 </v>
   <v>       0.50578031       1.53556682      -0.25873906 </v>
   <v>      -1.58400472      -1.11051325       0.92345110 </v>
   <v>       0.89725346      -1.14600507       0.60615164 </v>
   <v>      -0.14420361      -0.52221568       1.18464801 </v>
   <v>      -2.95202934       1.47035485      -0.72048787 </v>
   <v>       0.50741632       0.82569001       0.31450616 </v>
   <v>       0.30803714      -0.36258584      -0.88737080 </v>
   <v>      -1.15514901      -0.02680909       0.14394480 </v>
   <v>       0.66612707       1.57125196       1.07104753 </v>
   <v>      -0.89988531       0.92787406      -1.08580296 </v>
   <v>       0.20038749      -1.57441785      -1.76176200 </v>
   <v>      -0.97938840       0.21912563       0.16105072 </v>
   <v>       1.15117715       0.48528890      -1.51157972 </v>
   <v>       0.08960188       0.30071199       0.80037503 </v>
   <v>       0.53669184      -1.15917402       0.67366284 </v>
  </varray>
  <varray name="stress" >
   <v>      12.29319179      -7.44804474       3.24178857 </v>
   <v>      -7.44804475      11.61489504      -7.26831898 </v>
   <v>       3.24178857      -7.26831899      13.79276889 </v>
  </varray>
  <energy>
   <i name="e_fr_energy">   -679.32854472 </i>
   <i name="e_wo_entrp">   -679.32854472 </i>
   <i name="e_0_energy">     -0.00000000 </i>
  </energy>
  <time name="totalsc"> 1629.75 1630.23</time>
  <eigenvalues>
   <array>
    <dimension dim="1">band</dimension>
    <dimension dim="2">kpoint</dimension>
    <dimension dim="3">spin</dimension>
    <field>eigene</field>
    <field>occ</field>
    <set>
     <set comment="spin 1">
      <set comment="kpoint 1">
       <r>   -6.2993    1.0000 </r>
       <r>   -5.7149    1.0000 </r>
       <r>   -5.6704    1.0000 </r>
       <r>   -5.6120    1.0000 </r>
       <r>   -5.5371    1.0000 </r>
       <r>   -5.5029    1.0000 </r>
       <r>   -5.4700    1.0000 </r>
       <r>   -5.4320    1.0000 </r>
       <r>   -5.3644    1.0000 </r>
       <r>   -5.3295    1.0000 </r>
       <r>   -5.2403    1.0000 </r>
       <r>   -5.2237    1.0000 </r>
       <r>   -5.1898    1.0000 </r>
       <r>   -5.1250    1.0000 </r>
       <r>   -5.1093    1.0000 </r>
       <r>   -4.5725    1.0000 </r>
       <r>   -4.4844    1.0000 </r>
       <r>   -4.4280    1.0000 </r>
       <r>   -4.3790    1.0000 </r>
       <r>   -4.3446    1.0000 </r>
       <r>   -4.3170    1.0000 </r>
       <r>   -4.2721    1.0000 </r>
       <r>   -4.2485    1.0000 </r>
       <r>   -4.2226    1.0000 </r>
       <r>   -4.2116    1.0000 </r>
       <r>   -4.1699    1.0000 </r>
       <r>   -4.1529    1.0000 </r>
       <r>   -4.0628    1.0000 </r>
       <r>   -3.9916    1.0000 </r>
       <r>   -3.9719    1.0000 </r>
       <r>   -3.9069    1.0000 </r>
       <r>   -3.8634    1.0000 </r>
       <r>   -3.8102    1.0000 </r>
       <r>   -3.7837    1.0000 </r>
       <r>   -3.7701    1.0000 </r>
       <r>   -3.7321    1.0000 </r>
       <r>   -3.7154    1.0000 </r>
       <r>   -3.6964    1.0000 </r>
       <r>   -3.6724    1.0000 </r>
       <r>   -3.6388    1.0000 </r>
       <r>   -3.6194    1.0000 </r>
       <r>   -3.5918    1.0000 </r>
       <r>   -3.5629    1.0000 </r>
       <r>   -3.5232    1.0000 </r>
       <r>   -3.5165    1.0000 </r>
       <r>   -3.5063    1.0000 </r>
       <r>   -3.4551    1.0000 </r>
       <r>   -3.4423    1.0000 </r>
       <r>   -3.4291    1.0000 </r>
       <r>   -3.4117    1.0000 </r>
       <r>   -3.4022    1.0000 </r>
       <r>   -3.3297    1.0000 </r>
       <r>   -3.3093    1.0000 </r>
       <r>   -3.2582    1.0000 </r>
       <r>   -3.1855    1.0000 </r>
       <r>   -2.3515    1.0000 </r>
       <r>   -2.3394    1.0000 </r>
       <r>   -2.2638    1.0000 </r>
       <r>   -2.2286    1.0000 </r>
       <r>   -2.1723    1.0000 </r>
       <r>   -2.1605    1.0000 </r>
       <r>   -2.1256    1.0000 </r>
       <r>   -2.1034    1.0000 </r>
       <r>   -2.0774    1.0000 </r>
       <r>   -2.0658    1.0000 </r>
       <r>   -2.0378    1.0000 </r>
       <r>   -1.9834    1.0000 </r>
       <r>   -1.9716    1.0000 </r>
       <r>   -1.9280    1.0000 </r>
       <r>   -1.8999    1.0000 </r>
       <r>   -1.8531    1.0000 </r>
       <r>   -1.8372    1.0000 </r>
       <r>   -1.8034    1.0000 </r>
       <r>   -1.4128    1.0000 </r>
       <r>   -1.3057    1.0000 </r>
       <r>   -1.2751    1.0000 </r>
       <r>   -1.2112    1.0000 </r>
       <r>   -1.0537    1.0000 </r>
       <r>   -0.9745    1.0000 </r>
       <r>   -0.9498    1.0000 </r>
       <r>   -0.9077    1.0000 </r>
       <r>   -0.8925    1.0000 </r>
       <r>   -0.8891    1.0000 </r>
       <r>   -0.8503    1.0000 </r>
       <r>   -0.8349    1.0000 </r>
       <r>   -0.7845    1.0000 </r>
       <r>   -0.7604    1.0000 </r>
       <r>   -0.7479    1.0000 </r>
       <r>   -0.7154    1.0000 </r>
       <r>   -0.7002    1.0000 </r>
       <r>   -0.6764    1.0000 </r>
       <r>   -0.6708    1.0000 </r>
       <r>   -0.6276    1.0000 </r>
       <r>   -0.6198    1.0000 </r>
       <r>   -0.5996    1.0000 </r>
       <r>   -0.5963    1.0000 </r>
       <r>   -0.5554    1.0000 </r>
       <r>   -0.5270    1.0000 </r>
       <r>   -0.4703    1.0000 </r>
       <r>   -0.4302    1.0000 </r>
       <r>   -0.4055    1.0000 </r>
       <r>   -0.0194    1.0000 </r>
       <r>    0.0338    1.0000 </r>
       <r>    0.0658    1.0000 </r>
       <r>    0.0957    1.0000 </r>
       <r>    0.1317    1.0000 </r>
       <r>    0.1853    1.0000 </r>
       <r>    0.2015    1.0000 </r>
       <r>    0.2152    1.0000 </r>
       <r>    0.2982    1.0000 </r>
       <r>    0.3022    1.0000 </r>
       <r>    0.3409    1.0000 </r>
       <r>    0.3694    1.0000 </r>
       <r>    1.4330    1.0000 </r>
       <r>    1.4517    1.0000 </r>
       <r>    1.5048    1.0000 </r>
       <r>    1.5204    1.0000 </r>
       <r>    1.5403    1.0000 </r>
       <r>    1.5622    1.0000 </r>
       <r>    1.5924    1.0000 </r>
       <r>    1.6091    1.0000 </r>
       <r>    1.6470    1.0000 </r>
       <r>    1.6662    1.0000 </r>
       <r>    1.6939    1.0000 </r>
       <r>    1.7025    1.0000 </r>
       <r>    1.7113    1.0000 </r>
       <r>    1.7450    1.0000 </r>
       <r>    1.7506    1.0000 </r>
       <r>    1.7573    1.0000 </r>
       <r>    1.7673    1.0000 </r>
       <r>    1.7781    1.0000 </r>
       <r>    1.7916    1.0000 </r>
       <r>    1.8219    1.0000 </r>
       <r>    1.8246    1.0000 </r>
       <r>    1.8476    1.0000 </r>
       <r>    1.8525    1.0000 </r>
       <r>    1.8750    1.0000 </r>
       <r>    1.8754    1.0000 </r>
       <r>    1.8999    1.0000 </r>
       <r>    1.9081    1.0000 </r>
       <r>    1.9268    1.0000 </r>
       <r>    1.9473    1.0000 </r>
       <r>    1.9524    1.0000 </r>
       <r>    1.9742    1.0000 </r>
       <r>    1.9819    1.0000 </r>
       <r>    1.9904    1.0000 </r>
       <r>    2.0152    1.0000 </r>
       <r>    2.0209    1.0000 </r>
       <r>    2.0338    1.0000 </r>
       <r>    2.0579    1.0000 </r>
       <r>    2.0674    1.0000 </r>
       <r>    2.0759    1.0000 </r>
       <r>    2.0985    1.0000 </r>
       <r>    2.1063    1.0000 </r>
       <r>    2.1147    1.0000 </r>
       <r>    2.1299    1.0000 </r>
       <r>    2.1331    1.0000 </r>
       <r>    2.1547    1.0000 </r>
       <r>    2.1687    1.0000 </r>
       <r>    2.1859    1.0000 </r>
       <r>    2.1977    1.0000 </r>
       <r>    2.2065    1.0000 </r>
       <r>    2.2273    1.0000 </r>
       <r>    2.2357    1.0000 </r>
       <r>    2.2573    1.0000 </r>
       <r>    2.2660    1.0000 </r>
       <r>    2.2958    1.0000 </r>
       <r>    2.3336    1.0000 </r>
       <r>    2.3550    1.0000 </r>
       <r>    2.3613    1.0000 </r>
       <r>    2.3865    1.0000 </r>
       <r>    2.3964    1.0000 </r>
       <r>    2.4286    1.0000 </r>
       <r>    2.4386    1.0000 </r>
       <r>    2.5323    1.0000 </r>
       <r>    2.7560    1.0000 </r>
       <r>    2.8081    1.0000 </r>
       <r>    2.8104    1.0000 </r>
       <r>    2.8603    1.0000 </r>
       <r>    2.8725    1.0000 </r>
       <r>    2.9019    1.0000 </r>
       <r>    3.1855    1.0000 </r>
       <r>    3.2331    1.0000 </r>
       <r>    3.2446    1.0000 </r>
       <r>    3.2698    1.0000 </r>
       <r>    3.3018    1.0000 </r>
       <r>    3.3198    1.0000 </r>
       <r>    3.3354    1.0000 </r>
       <r>    3.3422    1.0000 </r>
       <r>    3.3601    1.0000 </r>
       <r>    3.3680    1.0000 </r>
       <r>    3.3908    1.0000 </r>
       <r>    3.4127    1.0000 </r>
       <r>    3.4159    1.0000 </r>
       <r>    3.4352    1.0000 </r>
       <r>    3.4429    1.0000 </r>
       <r>    3.4747    1.0000 </r>
       <r>    3.4883    1.0000 </r>
       <r>    3.5251    1.0000 </r>
       <r>    3.5438    1.0000 </r>
       <r>    3.5675    1.0000 </r>
       <r>    3.5749    1.0000 </r>
       <r>    3.6048    1.0000 </r>
       <r>    3.6333    1.0000 </r>
       <r>    3.6535    1.0000 </r>
       <r>    3.6684    1.0000 </r>
       <r>    3.7027    1.0000 </r>
       <r>    3.7442    1.0000 </r>
       <r>    3.7629    1.0000 </r>
       <r>    3.7871    1.0000 </r>
       <r>    3.8055    1.0000 </r>
       <r>    3.8083    1.0000 </r>
       <r>    3.8596    1.0000 </r>
       <r>    3.8714    1.0000 </r>
       <r>    3.9048    1.0000 </r>
       <r>    3.9500    1.0000 </r>
       <r>    3.9985    1.0000 </r>
       <r>    4.1227    1.0000 </r>
       <r>    4.1814    1.0000 </r>
       <r>    4.1964    1.0000 </r>
       <r>    4.2042    1.0000 </r>
       <r>    4.2381    1.0000 </r>
       <r>    4.2629    1.0000 </r>
       <r>    4.3057    1.0000 </r>
       <r>    4.3233    1.0000 </r>
       <r>    4.3418    1.0000 </r>
       <r>    4.3778    1.0000 </r>
       <r>    4.3883    1.0000 </r>
       <r>    4.4085    1.0000 </r>
       <r>    4.4293    1.0000 </r>
       <r>    4.4350    1.0000 </r>
       <r>    4.4759    1.0000 </r>
       <r>    4.4810    1.0000 </r>
       <r>    4.5346    1.0000 </r>
       <r>    4.5944    1.0000 </r>
       <r>    4.6299    1.0000 </r>
       <r>    4.6681    1.0000 </r>
       <r>    4.7302    1.0000 </r>
       <r>    4.7716    1.0000 </r>
       <r>    4.8117    1.0000 </r>
       <r>    4.8732    1.0000 </r>
       <r>    4.8963    1.0000 </r>
       <r>    4.9181    1.0000 </r>
       <r>    4.9352    1.0000 </r>
       <r>    4.9723    1.0000 </r>
       <r>    5.0165    1.0000 </r>
       <r>    5.0329    1.0000 </r>
       <r>    5.0822    1.0000 </r>
       <r>    5.1112    1.0000 </r>
       <r>    5.1292    1.0000 </r>
       <r>    5.1643    1.0000 </r>
       <r>    5.2502    1.0000 </r>
       <r>    5.3366    1.0000 </r>
       <r>    5.5749    1.0000 </r>
       <r>    5.7944    1.0000 </r>
       <r>    5.8557    1.0000 </r>
       <r>    6.1637    0.0000 </r>
       <r>    6.1786    0.0000 </r>
       <r>    6.2434    0.0000 </r>
       <r>    6.2766    0.0000 </r>
       <r>    6.3237    0.0000 </r>
       <r>    6.3443    0.0000 </r>
       <r>    6.5655    0.0000 </r>
       <r>    6.5846    0.0000 </r>
       <r>    6.6073    0.0000 </r>
       <r>    6.6472    0.0000 </r>
       <r>    6.6830    0.0000 </r>
       <r>    6.6992    0.0000 </r>
       <r>    6.8129    0.0000 </r>
       <r>    6.8458    0.0000 </r>
       <r>    6.8775    0.0000 </r>
       <r>    6.9008    0.0000 </r>
       <r>    6.9056    0.0000 </r>
       <r>    6.9208    0.0000 </r>
       <r>    6.9366    0.0000 </r>
       <r>    6.9585    0.0000 </r>
       <r>    6.9643    0.0000 </r>
       <r>    6.9785    0.0000 </r>
       <r>    6.9947    0.0000 </r>
       <r>    7.0066    0.0000 </r>
       <r>    7.0236    0.0000 </r>
       <r>    7.0491    0.0000 </r>
       <r>    7.0841    0.0000 </r>
       <r>    7.1008    0.0000 </r>
       <r>    7.1082    0.0000 </r>
       <r>    7.1162    0.0000 </r>
       <r>    7.1377    0.0000 </r>
       <r>    7.1547    0.0000 </r>
       <r>    7.1873    0.0000 </r>
       <r>    7.2057    0.0000 </r>
       <r>    7.2260    0.0000 </r>
       <r>    7.2560    0.0000 </r>
       <r>    7.2682    0.0000 </r>
       <r>    7.2870    0.0000 </r>
       <r>    7.3040    0.0000 </r>
       <r>    7.3387    0.0000 </r>
       <r>    7.4413    0.0000 </r>
       <r>    7.4473    0.0000 </r>
       <r>    7.4669    0.0000 </r>
       <r>    7.5046    0.0000 </r>
       <r>    7.5402    0.0000 </r>
       <r>    7.5711    0.0000 </r>
       <r>    7.6003    0.0000 </r>
       <r>    7.6266    0.0000 </r>
       <r>    7.8350    0.0000 </r>
       <r>    7.8424    0.0000 </r>
       <r>    7.8586    0.0000 </r>
       <r>    7.9326    0.0000 </r>
       <r>    7.9439    0.0000 </r>
       <r>    7.9744    0.0000 </r>
       <r>    8.0021    0.0000 </r>
       <r>    8.0142    0.0000 </r>
       <r>    8.0533    0.0000 </r>
       <r>    8.0551    0.0000 </r>
       <r>    8.0668    0.0000 </r>
       <r>    8.1099    0.0000 </r>
       <r>    8.1617    0.0000 </r>
       <r>    8.1799    0.0000 </r>
       <r>    8.2650    0.0000 </r>
       <r>    8.5353    0.0000 </r>
       <r>    8.5809    0.0000 </r>
       <r>    8.5988    0.0000 </r>
      </set>
      <set comment="kpoint 2">
       <r>   -6.1233    1.0000 </r>
       <r>   -6.1007    1.0000 </r>
       <r>   -5.6971    1.0000 </r>
       <r>   -5.6682    1.0000 </r>
       <r>   -5.5935    1.0000 </r>
       <r>   -5.5565    1.0000 </r>
       <r>   -5.4997    1.0000 </r>
       <r>   -5.4715    1.0000 </r>
       <r>   -5.1942    1.0000 </r>
       <r>   -5.1151    1.0000 </r>
       <r>   -5.0920    1.0000 </r>
       <r>   -5.0729    1.0000 </r>
       <r>   -5.0388    1.0000 </r>
       <r>   -4.9755    1.0000 </r>
       <r>   -4.7129    1.0000 </r>
[...]
       <r>    -3.1111    34.8490    99.9958 </r>
       <r>    -3.0565    49.7281   102.7123 </r>
       <r>    -3.0019    60.4592   106.0150 </r>
       <r>    -2.9472    44.1486   108.4266 </r>
       <r>    -2.8926    24.7911   109.7809 </r>
       <r>    -2.8380    37.2031   111.8132 </r>
       <r>    -2.7834    29.3682   113.4175 </r>
       <r>    -2.7287    31.3834   115.1319 </r>
       <r>    -2.6741    34.4482   117.0137 </r>
       <r>    -2.6195    43.4892   119.3893 </r>
       <r>    -2.5649    32.0922   121.1424 </r>
       <r>    -2.5102    19.3352   122.1986 </r>
       <r>    -2.4556     5.8976   122.5208 </r>
       <r>    -2.4010     4.1959   122.7500 </r>
       <r>    -2.3464     4.2424   122.9817 </r>
       <r>    -2.2917     4.9108   123.2500 </r>
       <r>    -2.2371    15.0385   124.0715 </r>
       <r>    -2.1825    21.8909   125.2674 </r>
       <r>    -2.1279    24.1370   126.5859 </r>
       <r>    -2.0732    31.4607   128.3045 </r>
       <r>    -2.0186    28.6029   129.8669 </r>
       <r>    -1.9640    32.6066   131.6481 </r>
       <r>    -1.9093    11.4099   132.2714 </r>
       <r>    -1.8547     6.0928   132.6043 </r>
       <r>    -1.8001    10.3483   133.1696 </r>
       <r>    -1.7455     1.4727   133.2500 </r>
       <r>    -1.6908     0.2768   133.2651 </r>
       <r>    -1.6362    16.3393   134.1577 </r>
       <r>    -1.5816    16.0635   135.0352 </r>
       <r>    -1.5270    40.8137   137.2647 </r>
       <r>    -1.4723    46.2476   139.7911 </r>
       <r>    -1.4177    38.8573   141.9137 </r>
       <r>    -1.3631    40.2981   144.1150 </r>
       <r>    -1.3085    50.2751   146.8614 </r>
       <r>    -1.2538    66.7445   150.5075 </r>
       <r>    -1.1992    59.8919   153.7792 </r>
       <r>    -1.1446    61.8102   157.1557 </r>
       <r>    -1.0900    63.1991   160.6080 </r>
       <r>    -1.0353    62.8102   164.0391 </r>
       <r>    -0.9807    65.6121   167.6233 </r>
       <r>    -0.9261    53.3693   170.5387 </r>
       <r>    -0.8714    78.4708   174.8253 </r>
       <r>    -0.8168    65.1845   178.3861 </r>
       <r>    -0.7622    48.9400   181.0596 </r>
       <r>    -0.7076    47.8215   183.6719 </r>
       <r>    -0.6529    45.1617   186.1389 </r>
       <r>    -0.5983    39.8668   188.3167 </r>
       <r>    -0.5437    23.8285   189.6184 </r>
       <r>    -0.4891    16.1550   190.5009 </r>
       <r>    -0.4344     8.7090   190.9766 </r>
       <r>    -0.3798    59.7305   194.2395 </r>
       <r>    -0.3252    33.6359   196.0769 </r>
       <r>    -0.2706    46.0476   198.5924 </r>
       <r>    -0.2159    54.6243   201.5763 </r>
       <r>    -0.1613    49.1393   204.2606 </r>
       <r>    -0.1067    40.0079   206.4461 </r>
       <r>    -0.0520    40.6394   208.6661 </r>
       <r>     0.0026    45.4416   211.1485 </r>
       <r>     0.0572    19.7334   212.2264 </r>
       <r>     0.1118    27.8496   213.7477 </r>
       <r>     0.1665     4.6354   214.0010 </r>
       <r>     0.2211    15.6925   214.8582 </r>
       <r>     0.2757    17.7409   215.8273 </r>
       <r>     0.3303    21.4240   216.9976 </r>
       <r>     0.3850    30.9251   218.6870 </r>
       <r>     0.4396    24.4584   220.0230 </r>
       <r>     0.4942    17.4741   220.9776 </r>
       <r>     0.5488    22.5791   222.2111 </r>
       <r>     0.6035    24.1580   223.5307 </r>
       <r>     0.6581    25.9589   224.9488 </r>
       <r>     0.7127    15.2540   225.7821 </r>
       <r>     0.7673    22.0417   226.9861 </r>
       <r>     0.8220     4.8363   227.2503 </r>
       <r>     0.8766    14.8620   228.0622 </r>
       <r>     0.9312    18.2508   229.0592 </r>
       <r>     0.9859    19.4805   230.1233 </r>
       <r>     1.0405    29.8821   231.7557 </r>
       <r>     1.0951    27.5792   233.2623 </r>
       <r>     1.1497    24.8408   234.6192 </r>
       <r>     1.2044    23.6229   235.9097 </r>
       <r>     1.2590    29.2247   237.5061 </r>
       <r>     1.3136    21.8059   238.6973 </r>
       <r>     1.3682    32.2699   240.4601 </r>
       <r>     1.4229    35.3273   242.3899 </r>
       <r>     1.4775    62.1791   245.7865 </r>
       <r>     1.5321    83.3013   250.3370 </r>
       <r>     1.5867    92.1979   255.3734 </r>
       <r>     1.6414    98.9800   260.7804 </r>
       <r>     1.6960    70.5571   264.6347 </r>
       <r>     1.7506    54.4635   267.6098 </r>
       <r>     1.8052    56.2151   270.6807 </r>
       <r>     1.8599    28.0588   272.2134 </r>
       <r>     1.9145    22.8065   273.4593 </r>
       <r>     1.9691    15.6858   274.3161 </r>
       <r>     2.0238    23.8729   275.6202 </r>
       <r>     2.0784    69.8912   279.4381 </r>
       <r>     2.1330    97.9161   284.7870 </r>
       <r>     2.1876   125.1043   291.6210 </r>
       <r>     2.2423   109.2695   297.5901 </r>
       <r>     2.2969   112.0191   303.7093 </r>
       <r>     2.3515   115.2671   310.0060 </r>
       <r>     2.4061   109.9647   316.0130 </r>
       <r>     2.4608    87.9745   320.8187 </r>
       <r>     2.5154    29.6618   322.4391 </r>
       <r>     2.5700    31.1629   324.1414 </r>
       <r>     2.6246    36.2735   326.1229 </r>
       <r>     2.6793    71.5597   330.0319 </r>
       <r>     2.7339    66.0634   333.6408 </r>
       <r>     2.7885   106.6415   339.4662 </r>
       <r>     2.8432    87.1622   344.2277 </r>
       <r>     2.8978    89.1462   349.0974 </r>
       <r>     2.9524   102.2541   354.6832 </r>
       <r>     3.0070   102.6472   360.2904 </r>
       <r>     3.0617    88.9777   365.1510 </r>
       <r>     3.1163    87.1368   369.9110 </r>
       <r>     3.1709    75.5168   374.0362 </r>
       <r>     3.2255    69.7094   377.8442 </r>
       <r>     3.2802    98.1410   383.2053 </r>
       <r>     3.3348    99.7528   388.6544 </r>
       <r>     3.3894    98.7171   394.0470 </r>
       <r>     3.4440    98.7208   399.4398 </r>
       <r>     3.4987    89.0570   404.3047 </r>
       <r>     3.5533    70.5748   408.1600 </r>
       <r>     3.6079    74.6863   412.2398 </r>
       <r>     3.6625    79.9308   416.6062 </r>
       <r>     3.7172    69.7317   420.4154 </r>
       <r>     3.7718    85.2374   425.0716 </r>
       <r>     3.8264    90.5574   430.0185 </r>
       <r>     3.8811    86.3922   434.7378 </r>
       <r>     3.9357    69.2727   438.5220 </r>
       <r>     3.9903    55.0418   441.5288 </r>
       <r>     4.0449    61.1981   444.8718 </r>
       <r>     4.0996    78.2996   449.1491 </r>
       <r>     4.1542    70.4281   452.9963 </r>
       <r>     4.2088    73.1768   456.9937 </r>
       <r>     4.2634    76.0233   461.1467 </r>
       <r>     4.3181    57.0409   464.2626 </r>
       <r>     4.3727    77.6781   468.5059 </r>
       <r>     4.4273    89.3058   473.3843 </r>
       <r>     4.4819    59.7856   476.6502 </r>
       <r>     4.5366    68.8041   480.4087 </r>
       <r>     4.5912    50.2796   483.1554 </r>
       <r>     4.6458    56.2621   486.2288 </r>
       <r>     4.7004    48.9031   488.9002 </r>
       <r>     4.7551    24.4540   490.2361 </r>
       <r>     4.8097    31.1481   491.9376 </r>
       <r>     4.8643    33.6452   493.7755 </r>
       <r>     4.9190    28.7071   495.3437 </r>
       <r>     4.9736    38.7223   497.4589 </r>
       <r>     5.0282    39.6441   499.6246 </r>
       <r>     5.0828    20.9263   500.7677 </r>
       <r>     5.1375    32.5429   502.5454 </r>
       <r>     5.1921    22.0499   503.7500 </r>
       <r>     5.2467     1.4424   503.8288 </r>
       <r>     5.3013     7.9648   504.2639 </r>
       <r>     5.3560    28.7794   505.8360 </r>
       <r>     5.4106    19.6329   506.9085 </r>
       <r>     5.4652    18.1858   507.9019 </r>
       <r>     5.5198    18.8661   508.9325 </r>
       <r>     5.5745    17.2186   509.8731 </r>
       <r>     5.6291    23.5497   511.1596 </r>
       <r>     5.6837     6.2299   511.4999 </r>
       <r>     5.7384     0.0023   511.5000 </r>
       <r>     5.7930     1.9181   511.6048 </r>
       <r>     5.8476     3.2391   511.7817 </r>
       <r>     5.9022     3.9959   512.0000 </r>
       <r>     5.9569     0.0000   512.0000 </r>
       <r>     6.0115     0.0000   512.0000 </r>
       <r>     6.0661     0.0000   512.0000 </r>
       <r>     6.1207     0.0002   512.0000 </r>
       <r>     6.1754    19.1743   513.0474 </r>
       <r>     6.2300    17.5703   514.0073 </r>
       <r>     6.2846     8.4312   514.4678 </r>
       <r>     6.3392    20.7920   515.6036 </r>
       <r>     6.3939    28.0267   517.1346 </r>
       <r>     6.4485    26.1462   518.5629 </r>
       <r>     6.5031    19.9771   519.6542 </r>
       <r>     6.5577    23.5020   520.9380 </r>
       <r>     6.6124    13.7758   521.6906 </r>
       <r>     6.6670    20.5031   522.8106 </r>
       <r>     6.7216    28.6469   524.3755 </r>
       <r>     6.7763    27.4299   525.8739 </r>
       <r>     6.8309    30.0340   527.5145 </r>
       <r>     6.8855    35.3430   529.4452 </r>
       <r>     6.9401    32.6743   531.2301 </r>
       <r>     6.9948    48.9689   533.9051 </r>
       <r>     7.0494    45.4889   536.3900 </r>
       <r>     7.1040    41.8661   538.6770 </r>
       <r>     7.1586    21.9666   539.8770 </r>
       <r>     7.2133    15.0985   540.7018 </r>
       <r>     7.2679    57.5698   543.8466 </r>
       <r>     7.3225    80.2410   548.2299 </r>
       <r>     7.3771    62.9543   551.6689 </r>
       <r>     7.4318    85.7187   556.3514 </r>
       <r>     7.4864    97.7163   561.6893 </r>
       <r>     7.5410    64.6051   565.2185 </r>
       <r>     7.5956    98.7076   570.6106 </r>
       <r>     7.6503    86.9297   575.3593 </r>
       <r>     7.7049    90.9017   580.3250 </r>
       <r>     7.7595    84.1147   584.9198 </r>
       <r>     7.8142    87.3465   589.6913 </r>
       <r>     7.8688   107.9564   595.5886 </r>
       <r>     7.9234    83.9363   600.1738 </r>
       <r>     7.9780   107.3752   606.0393 </r>
       <r>     8.0327    91.2517   611.0241 </r>
       <r>     8.0873    76.3410   615.1944 </r>
       <r>     8.1419    73.3676   619.2022 </r>
       <r>     8.1965    92.8747   624.2756 </r>
       <r>     8.2512    79.3614   628.6109 </r>
       <r>     8.3058    92.2639   633.6509 </r>
       <r>     8.3604    73.2928   637.6547 </r>
       <r>     8.4150    72.5156   641.6159 </r>
       <r>     8.4697    25.7023   643.0200 </r>
       <r>     8.5243     4.4811   643.2648 </r>
       <r>     8.5789     6.1096   643.5985 </r>
       <r>     8.6336     7.3497   644.0000 </r>
       <r>     8.6882     0.0000   644.0000 </r>
       <r>     8.7428     0.0000   644.0000 </r>
       <r>     8.7974     0.0000   644.0000 </r>
       <r>     8.8521     0.0000   644.0000 </r>
       <r>     8.9067     0.0000   644.0000 </r>
       <r>     8.9613     0.0000   644.0000 </r>
       <r>     9.0159     0.0000   644.0000 </r>
       <r>     9.0706     0.0000   644.0000 </r>
       <r>     9.1252     0.0000   644.0000 </r>
       <r>     9.1798     0.0000   644.0000 </r>
       <r>     9.2344     0.0000   644.0000 </r>
       <r>     9.2891     0.0000   644.0000 </r>
       <r>     9.3437     0.0000   644.0000 </r>
      </set>
     </set>
    </array>
   </total>
  </dos>
 </calculation>
 <structure name="finalpos" >
  <crystal>
   <varray name="basis" >
    <v>       0.00000000      10.93733369      10.93733369 </v>
    <v>      10.93733369       0.00000000      10.93733369 </v>
    <v>      10.93733369      10.93733369       0.00000000 </v>
   </varray>
   <i name="volume">   2616.76295363 </i>
   <varray name="rec_basis" >
    <v>      -0.04571498       0.04571498       0.04571498 </v>
    <v>       0.04571498      -0.04571498       0.04571498 </v>
    <v>       0.04571498       0.04571498      -0.04571498 </v>
   </varray>
  </crystal>
  <varray name="positions" >
   <v>       0.00124828       0.98678263       0.00790499 </v>
   <v>       0.25011775       0.99084630       0.00621859 </v>
   <v>       0.50787599       0.99397697       0.00108733 </v>
   <v>       0.74893285       0.00565192       0.99951264 </v>
   <v>       0.00637194       0.24907837       0.99398802 </v>
   <v>       0.24601794       0.24711001       0.99483458 </v>
   <v>       0.49605570       0.25197907       0.00432043 </v>
   <v>       0.74482194       0.25619759       0.00037230 </v>
   <v>       0.99432632       0.50111942       0.00193514 </v>
   <v>       0.24186081       0.50447001       0.00136499 </v>
   <v>       0.50020634       0.49323829       0.00511335 </v>
   <v>       0.74998187       0.50989099       0.99585243 </v>
   <v>       0.00797439       0.74160092       0.99242791 </v>
   <v>       0.24562423       0.74799030       0.00709706 </v>
   <v>       0.50276465       0.75157449       0.99982920 </v>
   <v>       0.74671797       0.75479943       0.99610415 </v>
   <v>       0.99254528       0.99834206       0.24464824 </v>
   <v>       0.25866291       0.99325083       0.25488602 </v>
   <v>       0.49989248       0.99949128       0.24892921 </v>
   <v>       0.75229034       0.00267812       0.24638910 </v>
   <v>       0.00726284       0.24855614       0.24990364 </v>
   <v>       0.25562066       0.24496289       0.25118230 </v>
   <v>       0.50080962       0.25095162       0.25105836 </v>
   <v>       0.74992830       0.24390212       0.24698117 </v>
   <v>       0.00362233       0.51186431       0.24076629 </v>
   <v>       0.25186094       0.49567653       0.23530391 </v>
   <v>       0.50617238       0.48831205       0.26859614 </v>
   <v>       0.74467675       0.50669872       0.24432565 </v>
   <v>       0.99489823       0.74544228       0.25708483 </v>
   <v>       0.24085506       0.75054260       0.24994591 </v>
   <v>       0.50611130       0.74960650       0.24491005 </v>
   <v>       0.74540744       0.74968649       0.24483641 </v>
   <v>       0.00101850       0.01001034       0.50076675 </v>
   <v>       0.25860526       0.99332802       0.50097407 </v>
   <v>       0.49627892       0.00287794       0.50323161 </v>
   <v>       0.75038576       0.01092288       0.50889790 </v>
   <v>       0.99972306       0.25370697       0.49816518 </v>
   <v>       0.26550448       0.24539059       0.49506896 </v>
   <v>       0.50655255       0.24574174       0.49964814 </v>
   <v>       0.75111156       0.24080281       0.50156886 </v>
   <v>       0.99889648       0.51096232       0.48761993 </v>
   <v>       0.24361944       0.49960865       0.50403121 </v>
   <v>       0.50314138       0.49910371       0.49902952 </v>
   <v>       0.74813506       0.48154861       0.50541567 </v>
   <v>       0.00902130       0.74287499       0.50213615 </v>
   <v>       0.24993426       0.74589804       0.49975092 </v>
   <v>       0.49997583       0.76160998       0.48918042 </v>
   <v>       0.75584541       0.73472718       0.49677110 </v>
   <v>       0.99726638       0.00092757       0.74947010 </v>
   <v>       0.25563975       0.99775299       0.74782883 </v>
   <v>       0.50916257       0.99910383       0.74022373 </v>
   <v>       0.74785490       0.99489172       0.76552987 </v>
   <v>       0.99304072       0.25374769       0.75995696 </v>
   <v>       0.24793107       0.25020864       0.75255260 </v>
   <v>       0.49174858       0.24425884       0.75415063 </v>
   <v>       0.75312106       0.25488566       0.74821618 </v>
   <v>       0.00160164       0.50377045       0.75200981 </v>
   <v>       0.25090362       0.49997330       0.74780688 </v>
   <v>       0.50213758       0.50932716       0.73541682 </v>
   <v>       0.75465797       0.49397539       0.74782976 </v>
   <v>       0.99448707       0.75183747       0.75473441 </v>
   <v>       0.25223678       0.73393769       0.75160405 </v>
   <v>       0.49388735       0.75181534       0.75672176 </v>
   <v>       0.75664706       0.75204942       0.74706840 </v>
   <v>       0.06994611       0.06767841       0.06116168 </v>
   <v>       0.32086820       0.06367314       0.04961759 </v>
   <v>       0.55786369       0.07729392       0.05561353 </v>
   <v>       0.81079458       0.06292470       0.05975220 </v>
   <v>       0.05678687       0.31529279       0.06929091 </v>
   <v>       0.31505313       0.31029722       0.07529980 </v>
   <v>       0.57129442       0.30479699       0.06088487 </v>
   <v>       0.83019706       0.30505003       0.05412133 </v>
   <v>       0.05965289       0.56228910       0.05407355 </v>
   <v>       0.31027184       0.55605521       0.06245066 </v>
   <v>       0.56268227       0.56903588       0.05693317 </v>
   <v>       0.80357749       0.57184585       0.05987929 </v>
   <v>       0.05994656       0.80905245       0.06306765 </v>
   <v>       0.31937371       0.80727794       0.06090931 </v>
   <v>       0.57628622       0.81710233       0.06309748 </v>
   <v>       0.81382259       0.81727441       0.06035002 </v>
   <v>       0.05684716       0.06428760       0.31519926 </v>
   <v>       0.30129006       0.06359983       0.31590319 </v>
   <v>       0.55945974       0.06713564       0.32083917 </v>
   <v>       0.81418594       0.06970285       0.31426983 </v>
   <v>       0.05850059       0.30512588       0.32133717 </v>
   <v>       0.31883912       0.31859269       0.30304368 </v>
   <v>       0.56303948       0.31088066       0.31775871 </v>
   <v>       0.80986745       0.32157807       0.31270621 </v>
   <v>       0.07276682       0.55482949       0.31171624 </v>
   <v>       0.31502494       0.55480780       0.30620070 </v>
   <v>       0.54994330       0.57660099       0.30731657 </v>
   <v>       0.82961720       0.56069370       0.29806753 </v>
   <v>       0.05850639       0.80683348       0.31671027 </v>
   <v>       0.30908921       0.81018735       0.31175027 </v>
   <v>       0.56516893       0.81434538       0.31055891 </v>
   <v>       0.81163488       0.81837703       0.31072262 </v>
   <v>       0.07276946       0.05025519       0.56899978 </v>
   <v>       0.30871124       0.07281443       0.56161804 </v>
   <v>       0.56017090       0.06409761       0.56195976 </v>
   <v>       0.81343119       0.07417273       0.54996223 </v>
   <v>       0.05333530       0.30726089       0.57139202 </v>
   <v>       0.33264193       0.30631795       0.55512180 </v>
   <v>       0.56443694       0.31434316       0.56597308 </v>
   <v>       0.82404093       0.30579586       0.56208140 </v>
   <v>       0.06143793       0.56686033       0.56493839 </v>
   <v>       0.30922912       0.56482333       0.56375384 </v>
   <v>       0.56276786       0.57120887       0.54812487 </v>
   <v>       0.81603710       0.56125966       0.56839660 </v>
   <v>       0.04177722       0.82249791       0.56706140 </v>
   <v>       0.31850632       0.80899766       0.56375077 </v>
   <v>       0.54894070       0.82150847       0.57184795 </v>
   <v>       0.80089820       0.82568161       0.55364612 </v>
   <v>       0.06156941       0.06858367       0.81121747 </v>
   <v>       0.31462985       0.06470468       0.80465802 </v>
   <v>       0.55887826       0.05701541       0.82514712 </v>
   <v>       0.81701435       0.05625001       0.81751676 </v>
   <v>       0.06169613       0.31255172       0.81455688 </v>
   <v>       0.29195149       0.32933020       0.81753112 </v>
   <v>       0.55776868       0.31662358       0.80375423 </v>
   <v>       0.81390068       0.31273985       0.81438302 </v>
   <v>       0.05932820       0.56821626       0.81882049 </v>
   <v>       0.31119937       0.55170239       0.81150052 </v>
   <v>       0.56092850       0.57128077       0.80747045 </v>
   <v>       0.82557653       0.56617395       0.80971628 </v>
   <v>       0.06055824       0.81742296       0.81105825 </v>
   <v>       0.31466809       0.81135014       0.80187773 </v>
   <v>       0.56300727       0.80966945       0.81356989 </v>
   <v>       0.81434744       0.80509843       0.81803619 </v>
  </varray>
 </structure>
</modeling>
