potpaw_PBE@./ARUN.APL1ZEROSTATE         
           1
     0.000000   10.937334   10.937334
    10.937334    0.000000   10.937334
    10.937334   10.937334    0.000000
   Si
 128
Direct configuration=     1
   0.00124828  0.98678263  0.00790499
   0.25011775  0.99084630  0.00621859
   0.50787599  0.99397697  0.00108733
   0.74893285  0.00565192  0.99951264
   0.00637194  0.24907837  0.99398802
   0.24601794  0.24711001  0.99483458
   0.49605570  0.25197907  0.00432043
   0.74482194  0.25619759  0.00037230
   0.99432632  0.50111942  0.00193514
   0.24186081  0.50447001  0.00136499
   0.50020634  0.49323829  0.00511335
   0.74998187  0.50989099  0.99585243
   0.00797439  0.74160092  0.99242791
   0.24562423  0.74799030  0.00709706
   0.50276465  0.75157449  0.99982920
   0.74671797  0.75479943  0.99610415
   0.99254528  0.99834206  0.24464824
   0.25866291  0.99325083  0.25488602
   0.49989248  0.99949128  0.24892921
   0.75229034  0.00267812  0.24638910
   0.00726284  0.24855614  0.24990364
   0.25562066  0.24496289  0.25118230
   0.50080962  0.25095162  0.25105836
   0.74992830  0.24390212  0.24698117
   0.00362233  0.51186431  0.24076629
   0.25186094  0.49567653  0.23530391
   0.50617238  0.48831205  0.26859614
   0.74467675  0.50669872  0.24432565
   0.99489823  0.74544228  0.25708483
   0.24085506  0.75054260  0.24994591
   0.50611130  0.74960650  0.24491005
   0.74540744  0.74968649  0.24483641
   0.00101850  0.01001034  0.50076675
   0.25860526  0.99332802  0.50097407
   0.49627892  0.00287794  0.50323161
   0.75038576  0.01092288  0.50889790
   0.99972306  0.25370697  0.49816518
   0.26550448  0.24539059  0.49506896
   0.50655255  0.24574174  0.49964814
   0.75111156  0.24080281  0.50156886
   0.99889648  0.51096232  0.48761993
   0.24361944  0.49960865  0.50403121
   0.50314138  0.49910371  0.49902952
   0.74813506  0.48154861  0.50541567
   0.00902130  0.74287499  0.50213615
   0.24993426  0.74589804  0.49975092
   0.49997583  0.76160998  0.48918042
   0.75584541  0.73472718  0.49677110
   0.99726638  0.00092757  0.74947010
   0.25563975  0.99775299  0.74782883
   0.50916257  0.99910383  0.74022373
   0.74785490  0.99489172  0.76552987
   0.99304072  0.25374769  0.75995696
   0.24793107  0.25020864  0.75255260
   0.49174858  0.24425884  0.75415063
   0.75312106  0.25488566  0.74821618
   0.00160164  0.50377045  0.75200981
   0.25090362  0.49997330  0.74780688
   0.50213758  0.50932716  0.73541682
   0.75465797  0.49397539  0.74782976
   0.99448707  0.75183747  0.75473441
   0.25223678  0.73393769  0.75160405
   0.49388735  0.75181534  0.75672176
   0.75664706  0.75204942  0.74706840
   0.06994611  0.06767841  0.06116168
   0.32086820  0.06367314  0.04961759
   0.55786369  0.07729392  0.05561353
   0.81079458  0.06292470  0.05975220
   0.05678687  0.31529279  0.06929091
   0.31505313  0.31029722  0.07529980
   0.57129442  0.30479699  0.06088487
   0.83019706  0.30505003  0.05412133
   0.05965289  0.56228910  0.05407355
   0.31027184  0.55605521  0.06245066
   0.56268227  0.56903588  0.05693317
   0.80357749  0.57184585  0.05987929
   0.05994656  0.80905245  0.06306765
   0.31937371  0.80727794  0.06090931
   0.57628622  0.81710233  0.06309748
   0.81382259  0.81727441  0.06035002
   0.05684716  0.06428760  0.31519926
   0.30129006  0.06359983  0.31590319
   0.55945974  0.06713564  0.32083917
   0.81418594  0.06970285  0.31426983
   0.05850059  0.30512588  0.32133717
   0.31883912  0.31859269  0.30304368
   0.56303948  0.31088066  0.31775871
   0.80986745  0.32157807  0.31270621
   0.07276682  0.55482949  0.31171624
   0.31502494  0.55480780  0.30620070
   0.54994330  0.57660099  0.30731657
   0.82961720  0.56069370  0.29806753
   0.05850639  0.80683348  0.31671027
   0.30908921  0.81018735  0.31175027
   0.56516893  0.81434538  0.31055891
   0.81163488  0.81837703  0.31072262
   0.07276946  0.05025519  0.56899978
   0.30871124  0.07281443  0.56161804
   0.56017090  0.06409761  0.56195976
   0.81343119  0.07417273  0.54996223
   0.05333530  0.30726089  0.57139202
   0.33264193  0.30631795  0.55512180
   0.56443694  0.31434316  0.56597308
   0.82404093  0.30579586  0.56208140
   0.06143793  0.56686033  0.56493839
   0.30922912  0.56482333  0.56375384
   0.56276786  0.57120887  0.54812487
   0.81603710  0.56125966  0.56839660
   0.04177722  0.82249791  0.56706140
   0.31850632  0.80899766  0.56375077
   0.54894070  0.82150847  0.57184795
   0.80089820  0.82568161  0.55364612
   0.06156941  0.06858367  0.81121747
   0.31462985  0.06470468  0.80465802
   0.55887826  0.05701541  0.82514712
   0.81701435  0.05625001  0.81751676
   0.06169613  0.31255172  0.81455688
   0.29195149  0.32933020  0.81753112
   0.55776868  0.31662358  0.80375423
   0.81390068  0.31273985  0.81438302
   0.05932820  0.56821626  0.81882049
   0.31119937  0.55170239  0.81150052
   0.56092850  0.57128077  0.80747045
   0.82557653  0.56617395  0.80971628
   0.06055824  0.81742296  0.81105825
   0.31466809  0.81135014  0.80187773
   0.56300727  0.80966945  0.81356989
   0.81434744  0.80509843  0.81803619
