 128 128   0   0
  0.2044346E+02  0.1546773E-08  0.1546773E-08  0.1546773E-08  0.5000000E-15
  1.000000000000000E-004
  CAR 
 potpaw_PBE@./ARUN.APL1ZEROSTATE         
      9.33206774     -7.04219560  301      5.96169853      1.00000000
     -7.042  0.0000E+00  0.0000E+00
     -6.988  0.0000E+00  0.0000E+00
     -6.933  0.0000E+00  0.0000E+00
     -6.878  0.0000E+00  0.0000E+00
     -6.824  0.0000E+00  0.0000E+00
     -6.769  0.0000E+00  0.0000E+00
     -6.715  0.0000E+00  0.0000E+00
     -6.660  0.0000E+00  0.0000E+00
     -6.606  0.0000E+00  0.0000E+00
     -6.551  0.0000E+00  0.0000E+00
     -6.496  0.0000E+00  0.0000E+00
     -6.442  0.0000E+00  0.0000E+00
     -6.387  0.0000E+00  0.0000E+00
     -6.333  0.2064E-05  0.1127E-06
     -6.278  0.4569E+01  0.2494E+00
     -6.223  0.1146E-01  0.2500E+00
     -6.169  0.3894E-01  0.2521E+00
     -6.114  0.1627E+02  0.1140E+01
     -6.060  0.2867E+02  0.2705E+01
     -6.005  0.1561E+02  0.3556E+01
     -5.951  0.3548E+01  0.3750E+01
     -5.896  0.6964E-03  0.3750E+01
     -5.841  0.8527E+01  0.4215E+01
     -5.787  0.1730E+02  0.5159E+01
     -5.732  0.1465E+02  0.5959E+01
     -5.678  0.3737E+02  0.7999E+01
     -5.623  0.2997E+02  0.9635E+01
     -5.569  0.2753E+02  0.1114E+02
     -5.514  0.2552E+02  0.1253E+02
     -5.459  0.2682E+02  0.1399E+02
     -5.405  0.1349E+02  0.1473E+02
     -5.350  0.3638E+00  0.1475E+02
     -5.296  0.8364E+01  0.1521E+02
     -5.241  0.5480E+01  0.1551E+02
     -5.186  0.3961E+02  0.1767E+02
     -5.132  0.2599E+02  0.1909E+02
     -5.077  0.4376E+02  0.2147E+02
     -5.023  0.3392E+02  0.2333E+02
     -4.968  0.3903E+02  0.2546E+02
     -4.914  0.4043E+02  0.2766E+02
     -4.859  0.1840E+02  0.2867E+02
     -4.804  0.2031E+02  0.2978E+02
     -4.750  0.3555E+02  0.3172E+02
     -4.695  0.3076E+02  0.3340E+02
     -4.641  0.4195E+02  0.3568E+02
     -4.586  0.3151E+02  0.3740E+02
     -4.531  0.3422E+02  0.3927E+02
     -4.477  0.3093E+02  0.4096E+02
     -4.422  0.2453E+02  0.4230E+02
     -4.368  0.1524E+02  0.4313E+02
     -4.313  0.2674E+02  0.4459E+02
     -4.259  0.4433E+02  0.4701E+02
     -4.204  0.5778E+02  0.5016E+02
     -4.149  0.5482E+02  0.5316E+02
     -4.095  0.5723E+02  0.5628E+02
     -4.040  0.5781E+02  0.5944E+02
     -3.986  0.4327E+02  0.6180E+02
     -3.931  0.4901E+02  0.6447E+02
     -3.877  0.4790E+02  0.6709E+02
     -3.822  0.5938E+02  0.7033E+02
     -3.767  0.5553E+02  0.7336E+02
     -3.713  0.4836E+02  0.7600E+02
     -3.658  0.3251E+02  0.7777E+02
     -3.604  0.3023E+02  0.7942E+02
     -3.549  0.3007E+02  0.8106E+02
     -3.494  0.4200E+02  0.8336E+02
     -3.440  0.4455E+02  0.8579E+02
     -3.385  0.6495E+02  0.8933E+02
     -3.331  0.5228E+02  0.9219E+02
     -3.276  0.3817E+02  0.9427E+02
     -3.222  0.3275E+02  0.9606E+02
     -3.167  0.3515E+02  0.9798E+02
     -3.112  0.4907E+02  0.1007E+03
     -3.058  0.3869E+02  0.1028E+03
     -3.003  0.3931E+02  0.1049E+03
     -2.949  0.3239E+02  0.1067E+03
     -2.894  0.4745E+02  0.1093E+03
     -2.839  0.4048E+02  0.1115E+03
     -2.785  0.4230E+02  0.1138E+03
     -2.730  0.2000E+02  0.1149E+03
     -2.676  0.4374E+02  0.1173E+03
     -2.621  0.2748E+02  0.1188E+03
     -2.567  0.3726E+02  0.1208E+03
     -2.512  0.2092E+02  0.1219E+03
     -2.457  0.1041E+02  0.1225E+03
     -2.403  0.4406E+01  0.1228E+03
     -2.348  0.4633E+01  0.1230E+03
     -2.294  0.9005E+01  0.1235E+03
     -2.239  0.1215E+02  0.1242E+03
     -2.184  0.1738E+02  0.1251E+03
     -2.130  0.2255E+02  0.1263E+03
     -2.075  0.2390E+02  0.1276E+03
     -2.021  0.4269E+02  0.1300E+03
     -1.966  0.1919E+02  0.1310E+03
     -1.912  0.1331E+02  0.1317E+03
     -1.857  0.1631E+02  0.1326E+03
     -1.802  0.6316E+01  0.1330E+03
     -1.748  0.4931E+01  0.1333E+03
     -1.693  0.5557E+01  0.1336E+03
     -1.639  0.8001E+01  0.1340E+03
     -1.584  0.2649E+02  0.1354E+03
     -1.530  0.3118E+02  0.1371E+03
     -1.475  0.4381E+02  0.1395E+03
     -1.420  0.4433E+02  0.1419E+03
     -1.366  0.4030E+02  0.1441E+03
     -1.311  0.5008E+02  0.1469E+03
     -1.257  0.5795E+02  0.1500E+03
     -1.202  0.5816E+02  0.1532E+03
     -1.147  0.6964E+02  0.1570E+03
     -1.093  0.6308E+02  0.1605E+03
     -1.038  0.6011E+02  0.1637E+03
     -0.984  0.6430E+02  0.1673E+03
     -0.929  0.4961E+02  0.1700E+03
     -0.875  0.8194E+02  0.1744E+03
     -0.820  0.6038E+02  0.1777E+03
     -0.765  0.5452E+02  0.1807E+03
     -0.711  0.4975E+02  0.1834E+03
     -0.656  0.4088E+02  0.1857E+03
     -0.602  0.3555E+02  0.1876E+03
     -0.547  0.2230E+02  0.1888E+03
     -0.492  0.1845E+02  0.1898E+03
     -0.438  0.2268E+02  0.1911E+03
     -0.383  0.3392E+02  0.1929E+03
     -0.329  0.5480E+02  0.1959E+03
     -0.274  0.5134E+02  0.1987E+03
     -0.220  0.4374E+02  0.2011E+03
     -0.165  0.5614E+02  0.2041E+03
     -0.110  0.4194E+02  0.2064E+03
     -0.056  0.4380E+02  0.2088E+03
     -0.001  0.4285E+02  0.2112E+03
      0.053  0.2485E+02  0.2125E+03
      0.108  0.1761E+02  0.2135E+03
      0.162  0.1344E+02  0.2142E+03
      0.217  0.1468E+02  0.2150E+03
      0.272  0.2608E+02  0.2164E+03
      0.326  0.1455E+02  0.2172E+03
      0.381  0.2234E+02  0.2185E+03
      0.435  0.1539E+02  0.2193E+03
      0.490  0.2681E+02  0.2208E+03
      0.545  0.2786E+02  0.2223E+03
      0.599  0.1220E+02  0.2229E+03
      0.654  0.3249E+02  0.2247E+03
      0.708  0.1456E+02  0.2255E+03
      0.763  0.2568E+02  0.2269E+03
      0.817  0.9685E+01  0.2274E+03
      0.872  0.6712E+01  0.2278E+03
      0.927  0.2361E+02  0.2291E+03
      0.981  0.1906E+02  0.2301E+03
      1.036  0.1345E+02  0.2309E+03
      1.090  0.3969E+02  0.2330E+03
      1.145  0.3614E+02  0.2350E+03
      1.200  0.3060E+02  0.2367E+03
      1.254  0.8817E+01  0.2372E+03
      1.309  0.2452E+02  0.2385E+03
      1.363  0.3973E+02  0.2407E+03
      1.418  0.4845E+02  0.2433E+03
      1.472  0.5179E+02  0.2461E+03
      1.527  0.7762E+02  0.2504E+03
      1.582  0.8643E+02  0.2551E+03
      1.636  0.6816E+02  0.2588E+03
      1.691  0.8730E+02  0.2636E+03
      1.745  0.6635E+02  0.2672E+03
      1.800  0.5429E+02  0.2702E+03
      1.854  0.3545E+02  0.2721E+03
      1.909  0.1744E+02  0.2731E+03
      1.964  0.2679E+02  0.2745E+03
      2.018  0.4336E+02  0.2769E+03
      2.073  0.5632E+02  0.2800E+03
      2.127  0.8797E+02  0.2848E+03
      2.182  0.8313E+02  0.2893E+03
      2.237  0.1254E+03  0.2961E+03
      2.291  0.1233E+03  0.3029E+03
      2.346  0.1192E+03  0.3094E+03
      2.400  0.1012E+03  0.3149E+03
      2.455  0.7360E+02  0.3189E+03
      2.509  0.5941E+02  0.3222E+03
      2.564  0.3940E+02  0.3243E+03
      2.619  0.3589E+02  0.3263E+03
      2.673  0.7239E+02  0.3302E+03
      2.728  0.7065E+02  0.3341E+03
      2.782  0.7840E+02  0.3383E+03
      2.837  0.9202E+02  0.3434E+03
      2.892  0.9935E+02  0.3488E+03
      2.946  0.9197E+02  0.3538E+03
      3.001  0.9777E+02  0.3591E+03
      3.055  0.9971E+02  0.3646E+03
      3.110  0.8946E+02  0.3695E+03
      3.164  0.7431E+02  0.3735E+03
      3.219  0.7953E+02  0.3779E+03
      3.274  0.7350E+02  0.3819E+03
      3.328  0.1031E+03  0.3875E+03
      3.383  0.9797E+02  0.3929E+03
      3.437  0.9656E+02  0.3981E+03
      3.492  0.9628E+02  0.4034E+03
      3.546  0.7778E+02  0.4076E+03
      3.601  0.7684E+02  0.4118E+03
      3.656  0.7361E+02  0.4158E+03
      3.710  0.7209E+02  0.4198E+03
      3.765  0.7696E+02  0.4240E+03
      3.819  0.8224E+02  0.4285E+03
      3.874  0.7799E+02  0.4327E+03
      3.929  0.8653E+02  0.4374E+03
      3.983  0.7430E+02  0.4415E+03
      4.038  0.5310E+02  0.4444E+03
      4.092  0.6313E+02  0.4478E+03
      4.147  0.8234E+02  0.4523E+03
      4.201  0.7020E+02  0.4562E+03
      4.256  0.8454E+02  0.4608E+03
      4.311  0.6469E+02  0.4643E+03
      4.365  0.6658E+02  0.4679E+03
      4.420  0.7955E+02  0.4723E+03
      4.474  0.6041E+02  0.4756E+03
      4.529  0.6044E+02  0.4789E+03
      4.584  0.6615E+02  0.4825E+03
      4.638  0.6212E+02  0.4859E+03
      4.693  0.4666E+02  0.4884E+03
      4.747  0.4073E+02  0.4907E+03
      4.802  0.3324E+02  0.4925E+03
      4.856  0.2015E+02  0.4936E+03
      4.911  0.2434E+02  0.4949E+03
      4.966  0.4894E+02  0.4976E+03
      5.020  0.2797E+02  0.4991E+03
      5.075  0.2248E+02  0.5003E+03
      5.129  0.3097E+02  0.5020E+03
      5.184  0.2227E+02  0.5032E+03
      5.239  0.7205E+01  0.5036E+03
      5.293  0.1603E+02  0.5045E+03
      5.348  0.1329E+02  0.5052E+03
      5.402  0.1411E+02  0.5060E+03
      5.457  0.1349E+02  0.5067E+03
      5.511  0.2284E+02  0.5080E+03
      5.566  0.3212E+02  0.5097E+03
      5.621  0.1775E+02  0.5107E+03
      5.675  0.1006E+02  0.5112E+03
      5.730  0.4544E+01  0.5115E+03
      5.784  0.4616E+01  0.5117E+03
      5.839  0.0000E+00  0.5118E+03
      5.893  0.9480E-01  0.5118E+03
      5.948  0.4486E+01  0.5120E+03
      6.003  0.0000E+00  0.5120E+03
      6.057  0.1780E-14  0.5120E+03
      6.112  0.2158E+01  0.5121E+03
      6.166  0.1674E+02  0.5130E+03
      6.221  0.1782E+02  0.5140E+03
      6.276  0.1364E+02  0.5147E+03
      6.330  0.1336E+02  0.5155E+03
      6.385  0.2746E+02  0.5170E+03
      6.439  0.2998E+02  0.5186E+03
      6.494  0.1592E+02  0.5195E+03
      6.548  0.2301E+02  0.5207E+03
      6.603  0.2369E+02  0.5220E+03
      6.658  0.1815E+02  0.5230E+03
      6.712  0.2325E+02  0.5243E+03
      6.767  0.1865E+02  0.5253E+03
      6.821  0.4196E+02  0.5276E+03
      6.876  0.3639E+02  0.5296E+03
      6.931  0.3070E+02  0.5313E+03
      6.985  0.3669E+02  0.5333E+03
      7.040  0.6117E+02  0.5366E+03
      7.094  0.2730E+02  0.5381E+03
      7.149  0.2955E+02  0.5397E+03
      7.203  0.1999E+02  0.5408E+03
      7.258  0.4889E+02  0.5435E+03
      7.313  0.8442E+02  0.5481E+03
      7.367  0.6663E+02  0.5517E+03
      7.422  0.7936E+02  0.5560E+03
      7.476  0.9157E+02  0.5610E+03
      7.531  0.6898E+02  0.5648E+03
      7.585  0.8964E+02  0.5697E+03
      7.640  0.9344E+02  0.5748E+03
      7.695  0.7928E+02  0.5791E+03
      7.749  0.8856E+02  0.5840E+03
      7.804  0.1010E+03  0.5895E+03
      7.858  0.9044E+02  0.5944E+03
      7.913  0.1011E+03  0.5999E+03
      7.968  0.8782E+02  0.6047E+03
      8.022  0.8812E+02  0.6095E+03
      8.077  0.9035E+02  0.6145E+03
      8.131  0.7419E+02  0.6185E+03
      8.186  0.8722E+02  0.6233E+03
      8.240  0.9054E+02  0.6282E+03
      8.295  0.7741E+02  0.6324E+03
      8.350  0.8215E+02  0.6369E+03
      8.404  0.7597E+02  0.6411E+03
      8.459  0.3754E+02  0.6431E+03
      8.513  0.2495E+01  0.6433E+03
      8.568  0.9169E+01  0.6438E+03
      8.623  0.4571E+01  0.6440E+03
      8.677  0.0000E+00  0.6440E+03
      8.732  0.0000E+00  0.6440E+03
      8.786  0.0000E+00  0.6440E+03
      8.841  0.0000E+00  0.6440E+03
      8.895  0.0000E+00  0.6440E+03
      8.950  0.0000E+00  0.6440E+03
      9.005  0.0000E+00  0.6440E+03
      9.059  0.0000E+00  0.6440E+03
      9.114  0.0000E+00  0.6440E+03
      9.168  0.0000E+00  0.6440E+03
      9.223  0.0000E+00  0.6440E+03
      9.277  0.0000E+00  0.6440E+03
      9.332  0.0000E+00  0.6440E+03
