 vasp.5.4.4.18Apr17-6-g9f103f2a35 (build Nov 08 2017 09:05:29) complex          
  
 executed on          Intel_17.33 date 2020.07.18  19:48:06
 running on   32 total cores
 distrk:  each k-point on   32 cores,    1 groups
 distr:  one band on NCORES_PER_BAND=  16 cores,    2 groups


--------------------------------------------------------------------------------------------------------


 INCAR:
 POTCAR:   PAW_PBE Si 05Jan2001                   

 ----------------------------------------------------------------------------- 
|                                                                             |
|           W    W    AA    RRRRR   N    N  II  N    N   GGGG   !!!           |
|           W    W   A  A   R    R  NN   N  II  NN   N  G    G  !!!           |
|           W    W  A    A  R    R  N N  N  II  N N  N  G       !!!           |
|           W WW W  AAAAAA  RRRRR   N  N N  II  N  N N  G  GGG   !            |
|           WW  WW  A    A  R   R   N   NN  II  N   NN  G    G                |
|           W    W  A    A  R    R  N    N  II  N    N   GGGG   !!!           |
|                                                                             |
|      For optimal performance we recommend to set                            |
|        NCORE= 4 - approx SQRT( number of cores)                             |
|      NCORE specifies how many cores store one orbital (NPAR=cpu/NCORE).     |
|      This setting can  greatly improve the performance of VASP for DFT.     |
|      The default,   NCORE=1            might be grossly inefficient         |
|      on modern multi-core architectures or massively parallel machines.     |
|      Do your own testing !!!!                                               |
|      Unfortunately you need to use the default for GW and RPA calculations. |
|      (for HF NCORE is supported but not extensively tested yet)             |
|                                                                             |
 ----------------------------------------------------------------------------- 

 POTCAR:   PAW_PBE Si 05Jan2001                   
   VRHFIN =Si: s2p2                                                             
   LEXCH  = PE                                                                  
   EATOM  =   103.0669 eV,    7.5752 Ry                                         
                                                                                
   TITEL  = PAW_PBE Si 05Jan2001                                                
   LULTRA =        F    use ultrasoft PP ?                                      
   IUNSCR =        1    unscreen: 0-lin 1-nonlin 2-no                           
   RPACOR =    1.500    partial core radius                                     
   POMASS =   28.085; ZVAL   =    4.000    mass and valenz                      
   RCORE  =    1.900    outmost cutoff radius                                   
   RWIGS  =    2.480; RWIGS  =    1.312    wigner-seitz radius (au A)           
   ENMAX  =  245.345; ENMIN  =  184.009 eV                                      
   ICORE  =        2    local potential                                         
   LCOR   =        T    correct aug charges                                     
   LPAW   =        T    paw PP                                                  
   EAUG   =  322.069                                                            
   DEXC   =    -.007                                                            
   RMAX   =    2.944    core radius for proj-oper                               
   RAUG   =    1.300    factor for augmentation sphere                          
   RDEP   =    1.993    radius for radial grids                                 
   QCUT   =   -4.246; QGAM   =    8.493    optimization parameters              
                                                                                
   Description                                                                  
     l     E      TYP  RCUT    TYP  RCUT                                        
     0   .000     23  1.900                                                     
     0   .000     23  1.900                                                     
     1   .000     23  1.900                                                     
     1   .000     23  1.900                                                     
     2   .000      7  1.900                                                     
  local pseudopotential read in
  partial core-charges read in
  atomic valenz-charges read in
  non local Contribution for L=           0  read in
    real space projection operators read in
  non local Contribution for L=           0  read in
    real space projection operators read in
  non local Contribution for L=           1  read in
    real space projection operators read in
  non local Contribution for L=           1  read in
    real space projection operators read in
    PAW grid and wavefunctions read in
 
   number of l-projection  operators is LMAX  =           4
   number of lm-projection operators is LMMAX =           8
 

 ----------------------------------------------------------------------------- 
|                                                                             |
|  ADVICE TO THIS USER RUNNING 'VASP/VAMP'   (HEAR YOUR MASTER'S VOICE ...):  |
|                                                                             |
|      You have a (more or less) 'large supercell' and for larger cells       |
|      it might be more efficient to use real space projection operators      |
|      So try LREAL= Auto  in the INCAR   file.                               |
|      Mind: If you want to do a very accurate calculations keep the          |
|      reciprocal projection scheme          (i.e. LREAL=.FALSE.)             |
|                                                                             |
 ----------------------------------------------------------------------------- 

 PAW_PBE Si 05Jan2001                   :
 energy of atom  1       EATOM= -103.0669
 kinetic energy error for atom=    0.0006 (will be added to EATOM!!)
 
 
 POSCAR: kk                                      
  positions in direct lattice
  No initial velocities read in
 exchange correlation table for  LEXCH =        8
   RHO(1)=    0.500       N(1)  =     2000
   RHO(2)=  100.500       N(2)  =     4000
 


--------------------------------------------------------------------------------------------------------


 ion  position               nearest neighbor table
   1  0.996  0.001  0.001- 113 2.21  65 2.30  68 2.42  77 2.47
   2  0.250  0.996  0.008-  78 2.25  66 2.26 114 2.39  65 2.40
   3  0.492  0.999  1.000- 115 2.23  66 2.31  79 2.40  67 2.49
   4  0.754  0.004  0.997- 116 2.34  68 2.41  67 2.49  80 2.51
   5  0.005  0.246  0.996- 117 2.25  65 2.27  72 2.37  69 2.41
   6  0.244  0.265  0.997-  70 2.29  69 2.31 118 2.41  66 2.67
   7  0.505  0.252  0.992- 119 2.16  67 2.39  70 2.43  71 2.45
   8  0.748  0.254  0.000- 120 2.26  68 2.29  72 2.41  71 2.41
   9  0.998  0.503  0.989-  76 2.36 121 2.42  73 2.48  69 2.51
  10  0.252  0.497  0.002-  70 2.34 122 2.38  74 2.45  73 2.55
  11  0.511  0.494  0.995-  75 2.21 123 2.28  71 2.34  74 2.38
  12  0.745  0.504  0.008-  75 2.26  76 2.29  72 2.46 124 2.50
  13  0.008  0.749  0.996-  73 2.29  80 2.32  77 2.39 125 2.46
  14  0.237  0.757  0.997- 126 2.23  77 2.26  78 2.47  74 2.56
  15  0.507  0.742  0.003-  79 2.40  75 2.41 127 2.49  78 2.50
  16  0.757  0.746  0.005-  80 2.16  76 2.25  79 2.36 128 2.40
  17  0.000  0.998  0.236-  65 2.34  93 2.40  84 2.51  81 2.55
  18  0.255  0.008  0.243-  66 2.19  82 2.26  94 2.34  81 2.46
  19  0.501  0.999  0.252-  67 2.33  95 2.36  82 2.37  83 2.39
  20  0.750  0.003  0.253-  84 2.17  68 2.34  83 2.38  96 2.40
  21  0.009  0.243  0.255-  81 2.24  69 2.34  85 2.44  88 2.44
  22  0.253  0.250  0.244-  70 2.30  85 2.39  82 2.40  86 2.48
  23  0.494  0.258  0.242-  71 2.13  86 2.32  87 2.34  83 2.44
  24  0.743  0.253  0.250-  72 2.35  87 2.36  88 2.36  84 2.48
  25  0.006  0.496  0.252-  85 2.24  73 2.34  89 2.36  92 2.53
  26  0.252  0.496  0.246-  86 2.24  74 2.27  89 2.31  90 2.53
  27  0.488  0.497  0.256-  87 2.24  90 2.46  91 2.46  75 2.54
  28  0.760  0.502  0.237-  92 2.21  76 2.24  88 2.46  91 2.52
  29  0.998  0.745  0.247-  77 2.17  93 2.37  96 2.39  89 2.43
  30  0.243  0.758  0.244-  90 2.27  93 2.31  78 2.34  94 2.62
  31  0.493  0.745  0.254-  91 2.27  94 2.30  95 2.41  79 2.45
  32  0.745  0.754  0.255-  96 2.27  95 2.41  92 2.48  80 2.63
  33  0.004  0.008  0.492-  81 2.31 100 2.41 109 2.44  97 2.51
  34  0.248  0.990  0.498- 110 2.22  82 2.36  97 2.37  98 2.65
  35  0.484  0.002  0.509-  98 2.19 111 2.34  83 2.47  99 2.53
  36  0.774  0.986  0.490-  84 2.20 112 2.23 100 2.46  99 2.69
  37  0.996  0.252  0.495- 104 2.23  85 2.25  97 2.29 101 2.47
  38  0.247  0.239  0.499-  98 2.27 101 2.30  86 2.35 102 2.59
  39  0.508  0.256  0.497- 103 2.20  99 2.34  87 2.47 102 2.52
  40  0.745  0.256  0.489-  88 2.29 100 2.40 103 2.49 104 2.55
  41  0.997  0.499  0.503-  89 2.35 108 2.49 101 2.56 105 2.57
  42  0.250  0.508  0.499-  90 2.27 106 2.35 102 2.41 105 2.46
  43  0.494  0.503  0.500- 103 2.20 106 2.23 107 2.37  91 2.40
  44  0.743  0.505  0.501- 107 2.34 104 2.39  92 2.41 108 2.60
  45  0.995  0.762  0.489-  93 2.29 105 2.32 112 2.33 109 2.51
  46  0.244  0.751  0.508- 110 2.22 109 2.23  94 2.43 106 2.46
  47  0.502  0.739  0.507- 107 2.27 110 2.37  95 2.42 111 2.53
  48  0.758  0.751  0.490- 108 2.17  96 2.25 112 2.35 111 2.41
  49  0.998  0.000  0.749- 116 2.21 125 2.26  97 2.30 113 2.60
  50  0.255  0.998  0.755-  98 2.30 126 2.33 114 2.35 113 2.50
  51  0.519  0.991  0.745- 127 2.28  99 2.34 115 2.50 114 2.55
  52  0.759  0.995  0.744- 128 2.27 100 2.31 116 2.35 115 2.36
  53  0.001  0.246  0.762- 113 2.24 117 2.29 120 2.37 101 2.38
  54  0.257  0.253  0.752- 118 2.19 102 2.39 114 2.45 117 2.45
  55  0.499  0.251  0.752- 118 2.23 119 2.28 103 2.45 115 2.51
  56  0.736  0.263  0.749- 119 2.36 120 2.44 104 2.46 116 2.71
  57  1.000  0.493  0.749- 124 2.31 105 2.32 117 2.32 121 2.33
  58  0.255  0.492  0.746- 106 2.26 118 2.35 122 2.44 121 2.47
  59  0.504  0.499  0.748- 107 2.29 119 2.39 122 2.39 123 2.46
  60  0.756  0.501  0.742- 108 2.19 124 2.30 120 2.47 123 2.48
  61  0.002  0.754  0.756- 125 2.28 121 2.39 128 2.42 109 2.44
  62  0.264  0.743  0.748- 122 2.34 126 2.35 125 2.48 110 2.53
  63  0.488  0.752  0.752- 126 2.31 123 2.31 127 2.36 111 2.42
  64  0.753  0.742  0.749- 112 2.35 124 2.37 127 2.44 128 2.50
  65  0.061  0.067  0.051-   5 2.27   1 2.30  17 2.34   2 2.40
  66  0.309  0.053  0.070-  18 2.19   2 2.26   3 2.31   6 2.67
  67  0.557  0.063  0.067-  19 2.33   7 2.39   3 2.49   4 2.49
  68  0.804  0.073  0.069-   8 2.29  20 2.34   4 2.41   1 2.42
  69  0.063  0.305  0.070-   6 2.31  21 2.34   5 2.41   9 2.51
  70  0.313  0.312  0.062-   6 2.29  22 2.30  10 2.34   7 2.43
  71  0.558  0.311  0.074-  23 2.13  11 2.34   8 2.41   7 2.45
  72  0.818  0.310  0.065-  24 2.35   5 2.37   8 2.41  12 2.46
  73  0.050  0.569  0.067-  13 2.29  25 2.34   9 2.48  10 2.55
  74  0.323  0.556  0.067-  26 2.27  11 2.38  10 2.45  14 2.56
  75  0.568  0.552  0.056-  11 2.21  12 2.26  15 2.41  27 2.54
  76  0.811  0.568  0.060-  28 2.24  16 2.25  12 2.29   9 2.36
  77  0.059  0.806  0.076-  29 2.17  14 2.26  13 2.39   1 2.47
  78  0.310  0.818  0.059-   2 2.25  30 2.34  14 2.47  15 2.50
  79  0.571  0.810  0.061-  16 2.36   3 2.40  15 2.40  31 2.45
  80  0.825  0.806  0.048-  16 2.16  13 2.32   4 2.51  32 2.63
  81  0.061  0.067  0.309-  21 2.24  33 2.31  18 2.46  17 2.55
  82  0.313  0.060  0.311-  18 2.26  34 2.36  19 2.37  22 2.40
  83  0.561  0.066  0.314-  20 2.38  19 2.39  23 2.44  35 2.47
  84  0.802  0.057  0.318-  20 2.17  36 2.20  24 2.48  17 2.51
  85  0.064  0.319  0.317-  25 2.24  37 2.25  22 2.39  21 2.44
  86  0.310  0.319  0.314-  26 2.24  23 2.32  38 2.35  22 2.48
  87  0.557  0.320  0.303-  27 2.24  23 2.34  24 2.36  39 2.47
  88  0.816  0.308  0.308-  40 2.29  24 2.36  21 2.44  28 2.46
  89  0.070  0.553  0.317-  26 2.31  41 2.35  25 2.36  29 2.43
  90  0.295  0.578  0.320-  42 2.27  30 2.27  27 2.46  26 2.53
  91  0.560  0.565  0.310-  31 2.27  43 2.40  27 2.46  28 2.52
  92  0.806  0.558  0.310-  28 2.21  44 2.41  32 2.48  25 2.53
  93  0.060  0.808  0.309-  45 2.29  30 2.31  29 2.37  17 2.40
  94  0.313  0.823  0.316-  31 2.30  18 2.34  46 2.43  30 2.62
  95  0.555  0.812  0.316-  19 2.36  32 2.41  31 2.41  47 2.42
  96  0.809  0.813  0.312-  48 2.25  32 2.27  29 2.39  20 2.40
  97  0.062  0.072  0.567-  37 2.29  49 2.30  34 2.37  33 2.51
  98  0.311  0.061  0.573-  35 2.19  38 2.27  50 2.30  34 2.65
  99  0.562  0.071  0.561-  51 2.34  39 2.34  35 2.53  36 2.69
 100  0.814  0.067  0.562-  52 2.31  40 2.40  33 2.41  36 2.46
 101  0.066  0.297  0.574-  38 2.30  53 2.38  37 2.47  41 2.56
 102  0.309  0.317  0.564-  54 2.39  42 2.41  39 2.52  38 2.59
 103  0.548  0.328  0.559-  39 2.20  43 2.20  55 2.45  40 2.49
 104  0.820  0.317  0.555-  37 2.23  44 2.39  56 2.46  40 2.55
 105  0.055  0.579  0.568-  57 2.32  45 2.32  42 2.46  41 2.57
 106  0.318  0.556  0.568-  43 2.23  58 2.26  42 2.35  46 2.46
 107  0.559  0.559  0.567-  47 2.27  59 2.29  44 2.34  43 2.37
 108  0.801  0.582  0.571-  48 2.17  60 2.19  41 2.49  44 2.60
 109  0.068  0.814  0.563-  46 2.23  33 2.44  61 2.44  45 2.51
 110  0.316  0.814  0.549-  46 2.22  34 2.22  47 2.37  62 2.53
 111  0.568  0.818  0.562-  35 2.34  48 2.41  63 2.42  47 2.53
 112  0.811  0.811  0.563-  36 2.23  45 2.33  64 2.35  48 2.35
 113  0.058  0.069  0.826-   1 2.21  53 2.24  50 2.50  49 2.60
 114  0.317  0.060  0.819-  50 2.35   2 2.39  54 2.45  51 2.55
 115  0.573  0.053  0.825-   3 2.23  52 2.36  51 2.50  55 2.51
 116  0.823  0.049  0.813-  49 2.21   4 2.34  52 2.35  56 2.71
 117  0.063  0.309  0.818-   5 2.25  53 2.29  57 2.32  54 2.45
 118  0.322  0.306  0.808-  54 2.19  55 2.23  58 2.35   6 2.41
 119  0.550  0.310  0.821-   7 2.16  55 2.28  56 2.36  59 2.39
 120  0.813  0.306  0.821-   8 2.26  53 2.37  56 2.44  60 2.47
 121  0.061  0.567  0.798-  57 2.33  61 2.39   9 2.42  58 2.47
 122  0.315  0.558  0.814-  62 2.34  10 2.38  59 2.39  58 2.44
 123  0.561  0.569  0.815-  11 2.28  63 2.31  59 2.46  60 2.48
 124  0.816  0.554  0.811-  60 2.30  57 2.31  64 2.37  12 2.50
 125  0.069  0.822  0.801-  49 2.26  61 2.28  13 2.46  62 2.48
 126  0.305  0.814  0.821-  14 2.23  63 2.31  50 2.33  62 2.35
 127  0.560  0.811  0.806-  51 2.28  63 2.36  64 2.44  15 2.49
 128  0.811  0.816  0.815-  52 2.27  16 2.40  61 2.42  64 2.50
 
  LATTYP: Found a face centered cubic cell.
 ALAT       =    21.8746673814
  
  Lattice vectors:
  
 A1 = (   0.0000000000,  10.9373336907,  10.9373336907)
 A2 = (  10.9373336907,   0.0000000000,  10.9373336907)
 A3 = (  10.9373336907,  10.9373336907,   0.0000000000)


Analysis of symmetry for initial positions (statically):
=====================================================================
 Subroutine PRICEL returns:
 Original cell was already a primitive cell.
 

 Routine SETGRP: Setting up the symmetry group for a 
 face centered cubic supercell.


 Subroutine GETGRP returns: Found  1 space group operations
 (whereof  1 operations were pure point group operations)
 out of a pool of 48 trial point group operations.


The static configuration has the point symmetry C_1 .


Analysis of symmetry for dynamics (positions and initial velocities):
=====================================================================
 Subroutine PRICEL returns:
 Original cell was already a primitive cell.
 

 Routine SETGRP: Setting up the symmetry group for a 
 face centered cubic supercell.


 Subroutine GETGRP returns: Found  1 space group operations
 (whereof  1 operations were pure point group operations)
 out of a pool of 48 trial point group operations.


The dynamic configuration has the point symmetry C_1 .


 Subroutine INISYM returns: Found  1 space group operations
 (whereof  1 operations are pure point group operations),
 and found     1 'primitive' translations

 
 
 KPOINTS: KPOINTS File, automatically generated by

Automatic generation of k-mesh.
Space group operators:
 irot       det(A)        alpha          n_x          n_y          n_z        tau_x        tau_y        tau_z
    1     1.000000     0.000001     1.000000     0.000000     0.000000     0.000000     0.000000     0.000000
 
 Subroutine IBZKPT returns following result:
 ===========================================
 
 Found      8 irreducible k-points:
 
 Following reciprocal coordinates:
            Coordinates               Weight
  0.000000  0.000000  0.000000      1.000000
  0.500000  0.000000  0.000000      1.000000
  0.000000  0.500000  0.000000      1.000000
  0.500000  0.500000  0.000000      1.000000
  0.000000  0.000000  0.500000      1.000000
  0.500000  0.000000  0.500000      1.000000
  0.000000  0.500000  0.500000      1.000000
  0.500000  0.500000  0.500000      1.000000
 
 Following cartesian coordinates:
            Coordinates               Weight
  0.000000  0.000000  0.000000      1.000000
 -0.022857  0.022857  0.022857      1.000000
  0.022857 -0.022857  0.022857      1.000000
  0.000000  0.000000  0.045715      1.000000
  0.022857  0.022857 -0.022857      1.000000
  0.000000  0.045715  0.000000      1.000000
  0.045715  0.000000  0.000000      1.000000
  0.022857  0.022857  0.022857      1.000000
 


--------------------------------------------------------------------------------------------------------




 Dimension of arrays:
   k-points           NKPTS =      8   k-points in BZ     NKDIM =      8   number of bands    NBANDS=    322
   number of dos      NEDOS =    301   number of ions     NIONS =    128
   non local maximal  LDIM  =      4   non local SUM 2l+1 LMDIM =      8
   total plane-waves  NPLWV = ******
   max r-space proj   IRMAX =      1   max aug-charges    IRDMAX= 176811
   dimension x,y,z NGX =   120 NGY =  120 NGZ =  120
   dimension x,y,z NGXF=   240 NGYF=  240 NGZF=  240
   support grid    NGXF=   480 NGYF=  480 NGZF=  480
   ions per type =             128
   NGX,Y,Z   is equivalent  to a cutoff of  12.90, 12.90, 12.90 a.u.
   NGXF,Y,Z  is equivalent  to a cutoff of  25.80, 25.80, 25.80 a.u.

 SYSTEM =  potpaw_PBE@./ARUN.APL1ZEROSTATE         
 POSCAR =  kk                                      

 Startparameter for this run:
   NWRITE =      2    write-flag & timer
   PREC   = accura    normal or accurate (medium, high low for compatibility)
   ISTART =      0    job   : 0-new  1-cont  2-samecut
   ICHARG =      2    charge: 1-file 2-atom 10-const
   ISPIN  =      1    spin polarized calculation?
   LNONCOLLINEAR =      F non collinear calculations
   LSORBIT =      F    spin-orbit coupling
   INIWAV =      1    electr: 0-lowe 1-rand  2-diag
   LASPH  =      F    aspherical Exc in radial PAW
   METAGGA=      F    non-selfconsistent MetaGGA calc.

 Electronic Relaxation 1
   ENCUT  =  500.0 eV  36.75 Ry    6.06 a.u.  28.20 28.20 28.20*2*pi/ulx,y,z
   ENINI  =  500.0     initial cutoff
   ENAUG  =  322.1 eV  augmentation charge cutoff
   NELM   =    120;   NELMIN=  4; NELMDL= -5     # of ELM steps 
   EDIFF  = 0.1E-07   stopping-criterion for ELM
   LREAL  =      F    real-space projection
   NLSPLINE    = F    spline interpolate recip. space projectors
   LCOMPAT=      F    compatible to vasp.4.4
   GGA_COMPAT  = T    GGA compatible to vasp.4.4-vasp.4.6
   LMAXPAW     = -100 max onsite density
   LMAXMIX     =    2 max onsite mixed and CHGCAR
   VOSKOWN=      0    Vosko Wilk Nusair interpolation
   ROPT   =    0.00000
 Ionic relaxation
   EDIFFG = 0.1E-06   stopping-criterion for IOM
   NSW    =      0    number of steps for IOM
   NBLOCK =      1;   KBLOCK =      1    inner block; outer block 
   IBRION =     -1    ionic relax: 0-MD 1-quasi-New 2-CG
   NFREE  =      0    steps in history (QN), initial steepest desc. (CG)
   ISIF   =      2    stress and relaxation
   IWAVPR =     10    prediction:  0-non 1-charg 2-wave 3-comb
   ISYM   =      2    0-nonsym 1-usesym 2-fastsym
   LCORR  =      T    Harris-Foulkes like correction to forces

   POTIM  = 0.5000    time-step for ionic-motion
   TEIN   =    0.0    initial temperature
   TEBEG  =    0.0;   TEEND  =   0.0 temperature during run
   SMASS  =  -3.00    Nose mass-parameter (am)
   estimated Nose-frequenzy (Omega)   =  0.10E-29 period in steps =****** mass=  -0.547E-26a.u.
   SCALEE = 1.0000    scale energy and forces
   NPACO  =    256;   APACO  = 16.0  distance and # of slots for P.C.
   PSTRESS=    0.0 pullay stress

  Mass of Ions in am
   POMASS =  28.09
  Ionic Valenz
   ZVAL   =   4.00
  Atomic Wigner-Seitz radii
   RWIGS  =  -1.00
  virtual crystal weights 
   VCA    =   1.00
   NELECT =     512.0000    total number of electrons
   NUPDOWN=      -1.0000    fix difference up-down

 DOS related values:
   EMIN   =  10.00;   EMAX   =-10.00  energy-range for DOS
   EFERMI =   0.00
   ISMEAR =     0;   SIGMA  =   0.01  broadening in eV -4-tet -1-fermi 0-gaus

 Electronic relaxation 2 (details)
   IALGO  =     38    algorithm
   LDIAG  =      T    sub-space diagonalisation (order eigenvalues)
   LSUBROT=      F    optimize rotation matrix (better conditioning)
   TURBO    =      0    0=normal 1=particle mesh
   IRESTART =      0    0=no restart 2=restart with 2 vectors
   NREBOOT  =      0    no. of reboots
   NMIN     =      0    reboot dimension
   EREF     =   0.00    reference energy to select bands
   IMIX   =      4    mixing-type and parameters
     AMIX     =   0.40;   BMIX     =  1.00
     AMIX_MAG =   1.60;   BMIX_MAG =  1.00
     AMIN     =   0.10
     WC   =   100.;   INIMIX=   1;  MIXPRE=   1;  MAXMIX= -45

 Intra band minimization:
   WEIMIN = 0.0000     energy-eigenvalue tresh-hold
   EBREAK =  0.78E-11  absolut break condition
   DEPER  =   0.30     relativ break condition  

   TIME   =   0.40     timestep for ELM

  volume/ion in A,a.u.               =      20.44       137.96
  Fermi-wavevector in a.u.,A,eV,Ry     =   0.950408  1.796010 12.289804  0.903275
  Thomas-Fermi vector in A             =   2.078782
 
 Write flags
   LWAVE        =      F    write WAVECAR
   LDOWNSAMPLE  =      F    k-point downsampling of WAVECAR
   LCHARG       =      F    write CHGCAR
   LVTOT        =      F    write LOCPOT, total local potential
   LVHAR        =      F    write LOCPOT, Hartree potential only
   LELF         =      F    write electronic localiz. function (ELF)
   LORBIT       =      0    0 simple, 1 ext, 2 COOP (PROOUT), +10 PAW based schemes


 Dipole corrections
   LMONO  =      F    monopole corrections only (constant potential shift)
   LDIPOL =      F    correct potential (dipole corrections)
   IDIPOL =      0    1-x, 2-y, 3-z, 4-all directions 
   EPSILON=  1.0000000 bulk dielectric constant

 Exchange correlation treatment:
   GGA     =    --    GGA type
   LEXCH   =     8    internal setting for exchange type
   VOSKOWN=      0    Vosko Wilk Nusair interpolation
   LHFCALC =     F    Hartree Fock is set to
   LHFONE  =     F    Hartree Fock one center treatment
   AEXX    =    0.0000 exact exchange contribution

 Linear response parameters
   LEPSILON=     F    determine dielectric tensor
   LRPA    =     F    only Hartree local field effects (RPA)
   LNABLA  =     F    use nabla operator in PAW spheres
   LVEL    =     F    velocity operator in full k-point grid
   LINTERFAST=   F  fast interpolation
   KINTER  =     0    interpolate to denser k-point grid
   CSHIFT  =0.1000    complex shift for real part using Kramers Kronig
   OMEGAMAX=  -1.0    maximum frequency
   DEG_THRESHOLD= 0.2000000E-02 threshold for treating states as degnerate
   RTIME   =   -0.100 relaxation time in fs
  (WPLASMAI=    0.000 imaginary part of plasma frequency in eV, 0.658/RTIME)
   DFIELD  = 0.0000000 0.0000000 0.0000000 field for delta impulse in time
 
 Orbital magnetization related:
   ORBITALMAG=     F  switch on orbital magnetization
   LCHIMAG   =     F  perturbation theory with respect to B field
   DQ        =  0.001000  dq finite difference perturbation B field
   LLRAUG    =     F  two centre corrections for induced B field



--------------------------------------------------------------------------------------------------------


 Static calculation
 charge density and potential will be updated during run
 non-spin polarized calculation
 Variant of blocked Davidson
 Davidson routine will perform the subspace rotation
 perform sub-space diagonalisation
    after iterative eigenvector-optimisation
 modified Broyden-mixing scheme, WC =      100.0
 initial mixing is a Kerker type mixing with AMIX =  0.4000 and BMIX =      1.0000
 Hartree-type preconditioning will be used
 using additional bands           66
 reciprocal scheme for non local part
 use partial core corrections
 calculate Harris-corrections to forces 
   (improved forces if not selfconsistent)
 use gradient corrections 
 use of overlap-Matrix (Vanderbilt PP)
 Gauss-broadening in eV      SIGMA  =   0.01


--------------------------------------------------------------------------------------------------------


  energy-cutoff  :      500.00
  volume of cell :     2616.76
      direct lattice vectors                 reciprocal lattice vectors
     0.000000000 10.937333691 10.937333691    -0.045714981  0.045714981  0.045714981
    10.937333691  0.000000000 10.937333691     0.045714981 -0.045714981  0.045714981
    10.937333691 10.937333691  0.000000000     0.045714981  0.045714981 -0.045714981

  length of vectors
    15.467725642 15.467725642 15.467725642     0.079180669  0.079180669  0.079180669


 
 k-points in units of 2pi/SCALE and weight: KPOINTS File, automatically generated by
   0.00000000  0.00000000  0.00000000       0.125
  -0.02285749  0.02285749  0.02285749       0.125
   0.02285749 -0.02285749  0.02285749       0.125
   0.00000000  0.00000000  0.04571498       0.125
   0.02285749  0.02285749 -0.02285749       0.125
   0.00000000  0.04571498  0.00000000       0.125
   0.04571498  0.00000000  0.00000000       0.125
   0.02285749  0.02285749  0.02285749       0.125
 
 k-points in reciprocal lattice and weights: KPOINTS File, automatically generated by
   0.00000000  0.00000000  0.00000000       0.125
   0.50000000  0.00000000  0.00000000       0.125
   0.00000000  0.50000000  0.00000000       0.125
   0.50000000  0.50000000  0.00000000       0.125
   0.00000000  0.00000000  0.50000000       0.125
   0.50000000  0.00000000  0.50000000       0.125
   0.00000000  0.50000000  0.50000000       0.125
   0.50000000  0.50000000  0.50000000       0.125
 
 position of ions in fractional coordinates (direct lattice) 
   0.99555173  0.00136898  0.00070106
   0.24992142  0.99606376  0.00801063
   0.49201387  0.99923441  0.99965113
   0.75425023  0.00384543  0.99719351
   0.00504696  0.24615216  0.99618284
   0.24420477  0.26499754  0.99665303
   0.50504766  0.25184354  0.99196604
   0.74844416  0.25353872  0.00002831
   0.99823048  0.50308659  0.98947649
   0.25223365  0.49744187  0.00243663
   0.51127150  0.49444039  0.99500949
   0.74538949  0.50439842  0.00830512
   0.00798501  0.74942089  0.99588474
   0.23691381  0.75682141  0.99744701
   0.50696443  0.74215107  0.00282962
   0.75732339  0.74578764  0.00473712
   0.00000086  0.99761642  0.23648270
   0.25484182  0.00825473  0.24253013
   0.50053171  0.99878948  0.25200022
   0.74979116  0.00270918  0.25336620
   0.00935952  0.24307440  0.25488047
   0.25267710  0.25006049  0.24362506
   0.49353476  0.25848130  0.24168594
   0.74282518  0.25344402  0.24981932
   0.00576896  0.49565395  0.25150110
   0.25234469  0.49594129  0.24637077
   0.48819587  0.49683483  0.25629257
   0.75984099  0.50221789  0.23736723
   0.99759719  0.74464477  0.24685505
   0.24255535  0.75778352  0.24382649
   0.49338275  0.74473650  0.25401929
   0.74509028  0.75370620  0.25529062
   0.00422014  0.00764026  0.49188059
   0.24756582  0.98967524  0.49803079
   0.48369285  0.00167755  0.50872114
   0.77387946  0.98558671  0.48968898
   0.99570470  0.25200618  0.49500426
   0.24724578  0.23942425  0.49853683
   0.50845495  0.25596527  0.49726025
   0.74461149  0.25608518  0.48929404
   0.99687779  0.49911784  0.50294568
   0.24969848  0.50826836  0.49872946
   0.49428511  0.50264179  0.49986642
   0.74348194  0.50515798  0.50058655
   0.99526677  0.76207950  0.48948615
   0.24444575  0.75112874  0.50783263
   0.50176694  0.73865565  0.50692497
   0.75820845  0.75138941  0.48997118
   0.99757740  0.00048370  0.74852287
   0.25496870  0.99846692  0.75546410
   0.51870063  0.99060346  0.74494742
   0.75915664  0.99542639  0.74428735
   0.00064814  0.24561272  0.76219823
   0.25671188  0.25340384  0.75212765
   0.49851035  0.25126077  0.75190009
   0.73609828  0.26264055  0.74894931
   0.99955415  0.49269012  0.74919096
   0.25542146  0.49156604  0.74641320
   0.50363141  0.49856788  0.74826581
   0.75644852  0.50088801  0.74242606
   0.00238869  0.75362746  0.75625848
   0.26436956  0.74290709  0.74805656
   0.48754962  0.75181042  0.75166487
   0.75319509  0.74216828  0.74874893
   0.06100863  0.06702000  0.05107381
   0.30911624  0.05340077  0.07004722
   0.55706490  0.06340611  0.06722319
   0.80400599  0.07258525  0.06865766
   0.06251590  0.30503070  0.07006003
   0.31290743  0.31243492  0.06160170
   0.55769830  0.31058114  0.07360486
   0.81783417  0.31020090  0.06453995
   0.05007258  0.56943120  0.06678234
   0.32345531  0.55554563  0.06719033
   0.56776853  0.55183421  0.05607093
   0.81137431  0.56780029  0.06036732
   0.05942339  0.80646857  0.07559515
   0.30950039  0.81810488  0.05861936
   0.57067987  0.81024215  0.06094895
   0.82467595  0.80594191  0.04796289
   0.06053191  0.06657348  0.30906728
   0.31326689  0.06006820  0.31129178
   0.56098088  0.06559483  0.31393288
   0.80166169  0.05731184  0.31833572
   0.06411623  0.31870852  0.31734424
   0.31010567  0.31882229  0.31370714
   0.55650434  0.31968027  0.30302521
   0.81644677  0.30768577  0.30834535
   0.06965554  0.55275411  0.31728422
   0.29486769  0.57848423  0.31981142
   0.56034855  0.56533319  0.31000445
   0.80556754  0.55834696  0.30992118
   0.05993325  0.80768921  0.30897067
   0.31264765  0.82303519  0.31608734
   0.55475390  0.81224518  0.31570729
   0.80864304  0.81287070  0.31237506
   0.06228810  0.07203940  0.56748993
   0.31088029  0.06117228  0.57312661
   0.56170028  0.07078754  0.56134482
   0.81371438  0.06676088  0.56157591
   0.06620289  0.29670047  0.57424306
   0.30887810  0.31740199  0.56359277
   0.54767569  0.32831038  0.55859902
   0.81956665  0.31682292  0.55526343
   0.05511038  0.57931369  0.56767970
   0.31801429  0.55638744  0.56760771
   0.55865984  0.55875995  0.56687226
   0.80136703  0.58190858  0.57122739
   0.06811265  0.81443827  0.56284889
   0.31554481  0.81386679  0.54880646
   0.56750175  0.81814401  0.56176198
   0.81112317  0.81085837  0.56317437
   0.05760545  0.06855436  0.82603158
   0.31679192  0.05950057  0.81864918
   0.57335296  0.05301152  0.82538808
   0.82297744  0.04903229  0.81286303
   0.06275060  0.30908203  0.81788797
   0.32191119  0.30571523  0.80772156
   0.54997801  0.31046473  0.82145895
   0.81295951  0.30570822  0.82115533
   0.06070678  0.56666698  0.79814516
   0.31454759  0.55801813  0.81397574
   0.56066923  0.56944553  0.81486115
   0.81626836  0.55424031  0.81104385
   0.06899046  0.82216285  0.80097074
   0.30498069  0.81429424  0.82107443
   0.56017504  0.81124954  0.80641938
   0.81062598  0.81593793  0.81513582
 
 position of ions in cartesian coordinates  (Angst):
   0.02264065 10.89634919 10.90365448
  10.98189663  2.82108885 13.62775569
  21.86247824 16.31483795 16.31028015
  10.94869690 19.15612465  8.29154514
  13.58783240 10.95078443  2.74744857
  13.79909331 13.57167587  5.56931560
  13.60396041 16.37333837  8.27837154
   2.77334723  8.18629320 10.95902113
  16.32466047 21.74021442 16.42040577
   5.46733795  2.78541386  8.19945136
  16.29061031 16.47469779 10.99980647
   5.60760969  8.24340950 13.66934746
  19.08899007 10.97965844  8.28400101
  19.18701902 13.50061619 10.86881372
   8.14810240  5.57578771 13.66199306
   8.20873975  8.33491011 16.44002696
  13.49775391  2.58649964 10.91127312
   2.74291771  5.43992305  2.87757481
  13.68030435  8.23069285 16.39857616
   2.80078191 10.97186682  8.23034742
   5.44629855  2.89008089  2.76095400
   5.39960362  5.42822237  5.49860883
   5.47049601  8.04135406  8.22505060
   5.50435909 10.85688414 10.89652859
   8.17188416  2.81384854  5.48422972
   8.11891471  5.45461740  8.18425338
   8.23720570  8.14271852 10.77360947
   8.08908934 10.90679913 13.80355917
  10.84436439 13.61098942 19.05548163
  10.95494294  5.31972054 10.94104005
  10.92372538  8.17458546 13.54172339
  11.03573493 10.94149974 16.39283727
   5.46342619  5.42601921  0.12972107
  16.27153729  8.15483895 13.53211839
   5.58240085 10.85436306  5.30865808
  16.13558252 13.82006975 19.24386861
   8.17030238 16.30438127 13.64663020
   8.07132665  8.15687327  5.32287255
   8.23827884 10.99984274  8.36071896
   8.15246132 13.49563652 10.94495340
  10.95990313 16.40406979 16.36220337
  11.01387120  8.18580608  8.29013629
  10.96476681 10.87336697 10.90372219
  11.00016349 13.60679220 13.65679147
  13.68879110 16.23923809 19.22068256
  13.76968066  8.22791964 10.88893041
  13.62333086 11.03240001 13.56691587
  13.57717502 13.65175714 16.51097546
   8.19213482 19.09768137 10.91612732
  19.18332890 11.05144076 13.70924370
  18.98229916 13.82094047 16.50776254
  19.02782974 16.44366859 19.19046007
  11.02276457  8.34350528  2.69343719
  10.99783339 11.03401458  5.57930585
  10.97190509 13.67615617  8.20049690
  11.06409588 16.24246112 10.92353987
  13.58286779 19.12660891 16.32117353
  13.54019201 10.95739989  8.17005150
  13.63703617 13.69241766 10.96138807
  13.59854088 16.39369146 13.75190927
  16.51412638  8.29757733  8.26880096
  16.30716702 11.07324234 11.01692087
  16.44401094 13.55370238 13.55529428
  16.30665899 16.42726292 16.35528813
   1.29163143  1.22588311  1.40029185
   1.35019188  4.14703736  3.96496952
   1.42873631  6.82804725  6.78629856
   1.54482084  9.54461352  9.58757095
   4.10249249  1.45002713  4.01997976
   4.09096332  4.09613132  6.83957804
   4.20197052  6.90477340  9.49666203
   4.09866577  9.65082024 12.33769604
   6.95847976  1.27808127  6.77571951
   6.81107098  4.27262172  9.61392660
   6.64886139  6.82314032 12.24546879
   6.87047871  9.53452905 15.08449272
   9.64742535  1.47674291  9.47054939
   9.58902557  4.02624854 12.33299512
   9.52850780  6.90833519 15.10360500
   9.33944171  9.54434217 17.83461168
   4.10850833  4.04242970  1.39019400
   4.06168800  6.83100651  4.08329044
   4.15102118  9.56922368  6.85306755
   4.10858273 12.24978538  9.39488009
   6.95672132  4.17216048  4.18708200
   6.91818543  6.82284892  6.87879494
   6.81073766  9.40096149  9.58312349
   6.73773794 12.30222673 12.29501274
   9.51589950  4.23208931  6.80750202
   9.82495930  6.72295051  9.55214135
   9.57385983  9.51934123 12.31195682
   9.49653833 12.20047236 14.91758805
  12.21328172  4.03482525  9.48947627
  12.45896330  6.87668444 12.42134222
  12.33679261  9.52052449 14.95132513
  12.30718839 12.26094905 17.73503690
   6.99474564  6.88809248  1.46918471
   6.93753864  9.66867850  4.06926319
   6.91384255 12.28311901  6.91773037
   6.87232915 15.04200885  9.63005175
   9.52580002  7.00477108  3.96919521
   9.63573368  9.54250504  6.84983435
   9.70042407 12.09969567  9.58095198
   9.53829937 15.03697535 12.42907189
  12.54504952  6.81166296  6.93890777
  12.29351001  9.68634330  9.56362343
  12.31141509 12.31032015 12.22159316
  12.61223292 15.01252313 15.12934693
  15.06384927  6.90103698  9.65275392
  14.90401201  9.45369823 12.35275149
  15.09249229 12.35113423 15.15527001
  15.02825458 15.03115086 17.74015337
   9.78438487  9.66463304  1.37985189
   9.60461683 12.41869821  4.11563645
   9.60734955 15.29849749  6.85075727
   9.42683678 17.89173315  9.53746150
  12.32604698  9.63183797  4.06685761
  12.17802975 12.35517041  6.86455960
  12.38022704 14.99986366  9.41094932
  12.32488257 17.87285919 12.23524216
  14.92740578  9.39355022  6.86179621
  15.00595482 12.34303627  9.54354254
  15.14062403 15.04463470 12.36044216
  14.93256848 17.79845666 14.98971064
  17.75275370  9.51505590  9.74684106
  17.88657282 12.31604063 12.24188338
  17.69298477 14.94689915 14.99972823
  17.83959782 17.78149924 17.79027216
 


--------------------------------------------------------------------------------------------------------


 k-point  1 :   0.0000 0.0000 0.0000  plane waves:   66299
 k-point  2 :   0.5000 0.0000 0.0000  plane waves:   66394
 k-point  3 :   0.0000 0.5000 0.0000  plane waves:   66394
 k-point  4 :   0.5000 0.5000 0.0000  plane waves:   66552
 k-point  5 :   0.0000 0.0000 0.5000  plane waves:   66394
 k-point  6 :   0.5000 0.0000 0.5000  plane waves:   66552
 k-point  7 :   0.0000 0.5000 0.5000  plane waves:   66552
 k-point  8 :   0.5000 0.5000 0.5000  plane waves:   66394

 maximum and minimum number of plane-waves per node :      4207     4110

 maximum number of plane-waves:     66552
 maximum index in each direction: 
   IXMAX=   28   IYMAX=   28   IZMAX=   28
   IXMIN=  -28   IYMIN=  -28   IZMIN=  -28


 parallel 3D FFT for wavefunctions:
    minimum data exchange during FFTs selected (reduces bandwidth)
 parallel 3D FFT for charge:
    minimum data exchange during FFTs selected (reduces bandwidth)


 total amount of memory used by VASP MPI-rank0   221701. kBytes
=======================================================================

   base      :      30000. kBytes
   nonl-proj :      10690. kBytes
   fftplans  :      66746. kBytes
   grid      :      26864. kBytes
   one-center:         24. kBytes
   wavefun   :      87377. kBytes
 
     INWAV:  cpu time    0.0000: real time    0.0000
 Broyden mixing: mesh for mixing (old mesh)
   NGX = 57   NGY = 57   NGZ = 57
  (NGX  =240   NGY  =240   NGZ  =240)
  gives a total of 185193 points

 initial charge density was supplied:
 charge density of overlapping atoms calculated
 number of electron     512.0000000 magnetization 
 keeping initial charge density in first step


--------------------------------------------------------------------------------------------------------


 Maximum index for augmentation-charges         5603 (set IRDMAX)


--------------------------------------------------------------------------------------------------------


 First call to EWALD:  gamma=   0.129
 Maximum number of real-space cells 3x 3x 3
 Maximum number of reciprocal cells 3x 3x 3

    FEWALD:  cpu time    0.0059: real time    0.0059


--------------------------------------- Iteration      1(   1)  ---------------------------------------


    POTLOK:  cpu time    0.4895: real time    0.4977
    SETDIJ:  cpu time    0.5056: real time    0.5057
     EDDAV:  cpu time   69.9718: real time   70.0023
       DOS:  cpu time    0.0028: real time    0.0028
    --------------------------------------------
      LOOP:  cpu time   70.9697: real time   71.0084

 eigenvalue-minimisations  :  5152
 total energy-change (2. order) : 0.1382839E+04  (-0.1908144E+05)
 number of electron     512.0000000 magnetization 
 augmentation part      512.0000000 magnetization 

 Free energy of the ion-electron system (eV)
  ---------------------------------------------------
  alpha Z        PSCENC =       210.77028614
  Ewald energy   TEWEN  =    -14474.32016053
  -Hartree energ DENC   =      -754.04507548
  -exchange      EXHF   =         0.00000000
  -V(xc)+E(xc)   XCENC  =     -1195.37929071
  PAW double counting   =      4221.13331941    -1969.18571412
  entropy T*S    EENTRO =        -0.00038988
  eigenvalues    EBANDS =      2151.38527683
  atomic energy  EATOM  =     13192.48085998
  Solvation  Ediel_sol  =         0.00000000
  ---------------------------------------------------
  free energy    TOTEN  =      1382.83911165 eV

  energy without entropy =     1382.83950153  energy(sigma->0) =     1382.83930659


--------------------------------------------------------------------------------------------------------




--------------------------------------- Iteration      1(   2)  ---------------------------------------


     EDDAV:  cpu time   79.6663: real time   79.7037
       DOS:  cpu time    0.0034: real time    0.0034
    --------------------------------------------
      LOOP:  cpu time   79.6696: real time   79.7071

 eigenvalue-minimisations  :  6112
 total energy-change (2. order) :-0.1919449E+04  (-0.1825883E+04)
 number of electron     512.0000000 magnetization 
 augmentation part      512.0000000 magnetization 

 Free energy of the ion-electron system (eV)
  ---------------------------------------------------
  alpha Z        PSCENC =       210.77028614
  Ewald energy   TEWEN  =    -14474.32016053
  -Hartree energ DENC   =      -754.04507548
  -exchange      EXHF   =         0.00000000
  -V(xc)+E(xc)   XCENC  =     -1195.37929071
  PAW double counting   =      4221.13331941    -1969.18571412
  entropy T*S    EENTRO =        -0.00000000
  eigenvalues    EBANDS =       231.93612478
  atomic energy  EATOM  =     13192.48085998
  Solvation  Ediel_sol  =         0.00000000
  ---------------------------------------------------
  free energy    TOTEN  =      -536.60965052 eV

  energy without entropy =     -536.60965052  energy(sigma->0) =     -536.60965052


--------------------------------------------------------------------------------------------------------




--------------------------------------- Iteration      1(   3)  ---------------------------------------


     EDDAV:  cpu time   81.3184: real time   81.3616
       DOS:  cpu time    0.0018: real time    0.0017
    --------------------------------------------
      LOOP:  cpu time   81.3202: real time   81.3633

 eigenvalue-minimisations  :  6272
 total energy-change (2. order) :-0.1498152E+03  (-0.1468008E+03)
 number of electron     512.0000000 magnetization 
 augmentation part      512.0000000 magnetization 

 Free energy of the ion-electron system (eV)
  ---------------------------------------------------
  alpha Z        PSCENC =       210.77028614
  Ewald energy   TEWEN  =    -14474.32016053
  -Hartree energ DENC   =      -754.04507548
  -exchange      EXHF   =         0.00000000
  -V(xc)+E(xc)   XCENC  =     -1195.37929071
  PAW double counting   =      4221.13331941    -1969.18571412
  entropy T*S    EENTRO =        -0.00000000
  eigenvalues    EBANDS =        82.12089013
  atomic energy  EATOM  =     13192.48085998
  Solvation  Ediel_sol  =         0.00000000
  ---------------------------------------------------
  free energy    TOTEN  =      -686.42488517 eV

  energy without entropy =     -686.42488517  energy(sigma->0) =     -686.42488517


--------------------------------------------------------------------------------------------------------




--------------------------------------- Iteration      1(   4)  ---------------------------------------


     EDDAV:  cpu time   80.3941: real time   80.4220
       DOS:  cpu time    0.0019: real time    0.0019
    --------------------------------------------
      LOOP:  cpu time   80.3961: real time   80.4239

 eigenvalue-minimisations  :  6176
 total energy-change (2. order) :-0.4243552E+01  (-0.4208005E+01)
 number of electron     512.0000000 magnetization 
 augmentation part      512.0000000 magnetization 

 Free energy of the ion-electron system (eV)
  ---------------------------------------------------
  alpha Z        PSCENC =       210.77028614
  Ewald energy   TEWEN  =    -14474.32016053
  -Hartree energ DENC   =      -754.04507548
  -exchange      EXHF   =         0.00000000
  -V(xc)+E(xc)   XCENC  =     -1195.37929071
  PAW double counting   =      4221.13331941    -1969.18571412
  entropy T*S    EENTRO =        -0.00000000
  eigenvalues    EBANDS =        77.87733839
  atomic energy  EATOM  =     13192.48085998
  Solvation  Ediel_sol  =         0.00000000
  ---------------------------------------------------
  free energy    TOTEN  =      -690.66843691 eV

  energy without entropy =     -690.66843691  energy(sigma->0) =     -690.66843691


--------------------------------------------------------------------------------------------------------




--------------------------------------- Iteration      1(   5)  ---------------------------------------


     EDDAV:  cpu time   81.7648: real time   81.7931
       DOS:  cpu time    0.0013: real time    0.0013
    CHARGE:  cpu time    3.2210: real time    3.2215
    MIXING:  cpu time    0.0419: real time    0.0420
    --------------------------------------------
      LOOP:  cpu time   85.0291: real time   85.0579

 eigenvalue-minimisations  :  6320
 total energy-change (2. order) :-0.1502438E+00  (-0.1498397E+00)
 number of electron     511.9999998 magnetization 
 augmentation part      -30.1776923 magnetization 

 Broyden mixing:
  rms(total) = 0.23967E+01    rms(broyden)= 0.23967E+01
  rms(prec ) = 0.29052E+01
  weight for this iteration     100.00

 Free energy of the ion-electron system (eV)
  ---------------------------------------------------
  alpha Z        PSCENC =       210.77028614
  Ewald energy   TEWEN  =    -14474.32016053
  -Hartree energ DENC   =      -754.04507548
  -exchange      EXHF   =         0.00000000
  -V(xc)+E(xc)   XCENC  =     -1195.37929071
  PAW double counting   =      4221.13331941    -1969.18571412
  entropy T*S    EENTRO =        -0.00000000
  eigenvalues    EBANDS =        77.72709462
  atomic energy  EATOM  =     13192.48085998
  Solvation  Ediel_sol  =         0.00000000
  ---------------------------------------------------
  free energy    TOTEN  =      -690.81868068 eV

  energy without entropy =     -690.81868068  energy(sigma->0) =     -690.81868068


--------------------------------------------------------------------------------------------------------




--------------------------------------- Iteration      1(   6)  ---------------------------------------


    POTLOK:  cpu time    0.4903: real time    0.4933
    SETDIJ:  cpu time    0.5093: real time    0.5093
     EDDAV:  cpu time   77.4692: real time   77.4878
       DOS:  cpu time    0.0010: real time    0.0010
    CHARGE:  cpu time    3.1968: real time    3.1972
    MIXING:  cpu time    0.0373: real time    0.0373
    --------------------------------------------
      LOOP:  cpu time   81.7039: real time   81.7258

 eigenvalue-minimisations  :  5896
 total energy-change (2. order) : 0.8480265E+01  (-0.5963172E+00)
 number of electron     511.9999998 magnetization 
 augmentation part      -29.8380014 magnetization 

 Broyden mixing:
  rms(total) = 0.14236E+01    rms(broyden)= 0.14236E+01
  rms(prec ) = 0.17157E+01
  weight for this iteration     100.00

 eigenvalues of (default mixing * dielectric matrix)
  average eigenvalue GAMMA=   2.4283
  2.4283

 Free energy of the ion-electron system (eV)
  ---------------------------------------------------
  alpha Z        PSCENC =       210.77028614
  Ewald energy   TEWEN  =    -14474.32016053
  -Hartree energ DENC   =      -849.18752527
  -exchange      EXHF   =         0.00000000
  -V(xc)+E(xc)   XCENC  =     -1180.74835548
  PAW double counting   =      4465.48426109    -2220.29877779
  entropy T*S    EENTRO =        -0.00000000
  eigenvalues    EBANDS =       173.48099667
  atomic energy  EATOM  =     13192.48085998
  Solvation  Ediel_sol  =         0.00000000
  ---------------------------------------------------
  free energy    TOTEN  =      -682.33841520 eV

  energy without entropy =     -682.33841520  energy(sigma->0) =     -682.33841520


--------------------------------------------------------------------------------------------------------




--------------------------------------- Iteration      1(   7)  ---------------------------------------


    POTLOK:  cpu time    0.4915: real time    0.4920
    SETDIJ:  cpu time    0.5102: real time    0.5103
     EDDAV:  cpu time   77.1482: real time   77.1670
       DOS:  cpu time    0.0010: real time    0.0010
    CHARGE:  cpu time    3.2022: real time    3.2046
    MIXING:  cpu time    0.0390: real time    0.0390
    --------------------------------------------
      LOOP:  cpu time   81.3921: real time   81.4140

 eigenvalue-minimisations  :  5864
 total energy-change (2. order) : 0.3525758E+01  (-0.1124737E+01)
 number of electron     511.9999998 magnetization 
 augmentation part      -29.3886097 magnetization 

 Broyden mixing:
  rms(total) = 0.15681E+00    rms(broyden)= 0.15681E+00
  rms(prec ) = 0.20363E+00
  weight for this iteration     100.00

 eigenvalues of (default mixing * dielectric matrix)
  average eigenvalue GAMMA=   2.0728
  2.0728  2.0728

 Free energy of the ion-electron system (eV)
  ---------------------------------------------------
  alpha Z        PSCENC =       210.77028614
  Ewald energy   TEWEN  =    -14474.32016053
  -Hartree energ DENC   =      -999.02022167
  -exchange      EXHF   =         0.00000000
  -V(xc)+E(xc)   XCENC  =     -1156.91727605
  PAW double counting   =      4784.07708579    -2547.38843633
  entropy T*S    EENTRO =        -0.00000000
  eigenvalues    EBANDS =       311.50520527
  atomic energy  EATOM  =     13192.48085998
  Solvation  Ediel_sol  =         0.00000000
  ---------------------------------------------------
  free energy    TOTEN  =      -678.81265739 eV

  energy without entropy =     -678.81265739  energy(sigma->0) =     -678.81265739


--------------------------------------------------------------------------------------------------------




--------------------------------------- Iteration      1(   8)  ---------------------------------------


    POTLOK:  cpu time    0.4925: real time    0.4938
    SETDIJ:  cpu time    0.5092: real time    0.5092
     EDDAV:  cpu time   76.6890: real time   76.7114
       DOS:  cpu time    0.0011: real time    0.0011
    CHARGE:  cpu time    3.1922: real time    3.1957
    MIXING:  cpu time    0.0487: real time    0.0487
    --------------------------------------------
      LOOP:  cpu time   80.9326: real time   80.9598

 eigenvalue-minimisations  :  5816
 total energy-change (2. order) :-0.5352982E-01  (-0.1054979E+00)
 number of electron     511.9999998 magnetization 
 augmentation part      -29.4558452 magnetization 

 Broyden mixing:
  rms(total) = 0.64110E-01    rms(broyden)= 0.64110E-01
  rms(prec ) = 0.78733E-01
  weight for this iteration     100.00

 eigenvalues of (default mixing * dielectric matrix)
  average eigenvalue GAMMA=   1.9979
  2.6691  1.6623  1.6623

 Free energy of the ion-electron system (eV)
  ---------------------------------------------------
  alpha Z        PSCENC =       210.77028614
  Ewald energy   TEWEN  =    -14474.32016053
  -Hartree energ DENC   =      -993.17143156
  -exchange      EXHF   =         0.00000000
  -V(xc)+E(xc)   XCENC  =     -1156.95075060
  PAW double counting   =      4739.28627049    -2501.20053655
  entropy T*S    EENTRO =        -0.00000000
  eigenvalues    EBANDS =       304.23927542
  atomic energy  EATOM  =     13192.48085998
  Solvation  Ediel_sol  =         0.00000000
  ---------------------------------------------------
  free energy    TOTEN  =      -678.86618721 eV

  energy without entropy =     -678.86618721  energy(sigma->0) =     -678.86618721


--------------------------------------------------------------------------------------------------------




--------------------------------------- Iteration      1(   9)  ---------------------------------------


    POTLOK:  cpu time    0.4911: real time    0.4957
    SETDIJ:  cpu time    0.5018: real time    0.5107
     EDDAV:  cpu time   79.8581: real time   79.8879
       DOS:  cpu time    0.0016: real time    0.0016
    CHARGE:  cpu time    3.2050: real time    3.2057
    MIXING:  cpu time    0.0364: real time    0.0364
    --------------------------------------------
      LOOP:  cpu time   84.0940: real time   84.1379

 eigenvalue-minimisations  :  6120
 total energy-change (2. order) :-0.2378907E-01  (-0.1054266E-01)
 number of electron     511.9999998 magnetization 
 augmentation part      -29.4632529 magnetization 

 Broyden mixing:
  rms(total) = 0.27244E-01    rms(broyden)= 0.27244E-01
  rms(prec ) = 0.31942E-01
  weight for this iteration     100.00

 eigenvalues of (default mixing * dielectric matrix)
  average eigenvalue GAMMA=   1.7779
  2.5912  1.8173  1.8173  0.8859

 Free energy of the ion-electron system (eV)
  ---------------------------------------------------
  alpha Z        PSCENC =       210.77028614
  Ewald energy   TEWEN  =    -14474.32016053
  -Hartree energ DENC   =      -999.25948147
  -exchange      EXHF   =         0.00000000
  -V(xc)+E(xc)   XCENC  =     -1155.84018916
  PAW double counting   =      4739.85106237    -2501.77328111
  entropy T*S    EENTRO =        -0.00000000
  eigenvalues    EBANDS =       309.20092749
  atomic energy  EATOM  =     13192.48085998
  Solvation  Ediel_sol  =         0.00000000
  ---------------------------------------------------
  free energy    TOTEN  =      -678.88997628 eV

  energy without entropy =     -678.88997628  energy(sigma->0) =     -678.88997628


--------------------------------------------------------------------------------------------------------




--------------------------------------- Iteration      1(  10)  ---------------------------------------


    POTLOK:  cpu time    0.4906: real time    0.4919
    SETDIJ:  cpu time    0.5102: real time    0.5102
     EDDAV:  cpu time   78.4869: real time   78.5182
       DOS:  cpu time    0.0012: real time    0.0012
    CHARGE:  cpu time    3.1924: real time    3.1929
    MIXING:  cpu time    0.0402: real time    0.0402
    --------------------------------------------
      LOOP:  cpu time   82.7215: real time   82.7546

 eigenvalue-minimisations  :  6000
 total energy-change (2. order) :-0.2434573E-02  (-0.7641102E-03)
 number of electron     511.9999998 magnetization 
 augmentation part      -29.4712494 magnetization 

 Broyden mixing:
  rms(total) = 0.11346E-01    rms(broyden)= 0.11346E-01
  rms(prec ) = 0.13657E-01
  weight for this iteration     100.00

 eigenvalues of (default mixing * dielectric matrix)
  average eigenvalue GAMMA=   1.8404
  2.6515  2.6515  1.4913  1.4913  0.9165

 Free energy of the ion-electron system (eV)
  ---------------------------------------------------
  alpha Z        PSCENC =       210.77028614
  Ewald energy   TEWEN  =    -14474.32016053
  -Hartree energ DENC   =      -998.37016112
  -exchange      EXHF   =         0.00000000
  -V(xc)+E(xc)   XCENC  =     -1155.97995709
  PAW double counting   =      4733.55867132    -2495.32775721
  entropy T*S    EENTRO =        -0.00000000
  eigenvalues    EBANDS =       308.29580765
  atomic energy  EATOM  =     13192.48085998
  Solvation  Ediel_sol  =         0.00000000
  ---------------------------------------------------
  free energy    TOTEN  =      -678.89241086 eV

  energy without entropy =     -678.89241086  energy(sigma->0) =     -678.89241086


--------------------------------------------------------------------------------------------------------




--------------------------------------- Iteration      1(  11)  ---------------------------------------


    POTLOK:  cpu time    0.4889: real time    0.4919
    SETDIJ:  cpu time    0.5110: real time    0.5111
     EDDAV:  cpu time   76.6047: real time   76.6407
       DOS:  cpu time    0.0011: real time    0.0011
    CHARGE:  cpu time    3.1460: real time    3.1463
    MIXING:  cpu time    0.0435: real time    0.0435
    --------------------------------------------
      LOOP:  cpu time   80.7952: real time   80.8347

 eigenvalue-minimisations  :  5816
 total energy-change (2. order) :-0.1545223E-02  (-0.2402834E-03)
 number of electron     511.9999998 magnetization 
 augmentation part      -29.4738092 magnetization 

 Broyden mixing:
  rms(total) = 0.34996E-02    rms(broyden)= 0.34996E-02
  rms(prec ) = 0.49432E-02
  weight for this iteration     100.00

 eigenvalues of (default mixing * dielectric matrix)
  average eigenvalue GAMMA=   1.7665
  2.8392  2.0170  2.0170  1.5563  0.8844  1.2849

 Free energy of the ion-electron system (eV)
  ---------------------------------------------------
  alpha Z        PSCENC =       210.77028614
  Ewald energy   TEWEN  =    -14474.32016053
  -Hartree energ DENC   =      -998.38176053
  -exchange      EXHF   =         0.00000000
  -V(xc)+E(xc)   XCENC  =     -1155.97560012
  PAW double counting   =      4729.47738576    -2491.15324435
  entropy T*S    EENTRO =        -0.00000000
  eigenvalues    EBANDS =       308.20827756
  atomic energy  EATOM  =     13192.48085998
  Solvation  Ediel_sol  =         0.00000000
  ---------------------------------------------------
  free energy    TOTEN  =      -678.89395608 eV

  energy without entropy =     -678.89395608  energy(sigma->0) =     -678.89395608


--------------------------------------------------------------------------------------------------------




--------------------------------------- Iteration      1(  12)  ---------------------------------------


    POTLOK:  cpu time    0.4877: real time    0.4907
    SETDIJ:  cpu time    0.5121: real time    0.5124
     EDDAV:  cpu time   79.9837: real time   80.0100
       DOS:  cpu time    0.0010: real time    0.0010
    CHARGE:  cpu time    3.1351: real time    3.1361
    MIXING:  cpu time    0.0443: real time    0.0443
    --------------------------------------------
      LOOP:  cpu time   84.1640: real time   84.1945

 eigenvalue-minimisations  :  6160
 total energy-change (2. order) :-0.9030576E-04  (-0.3986955E-04)
 number of electron     511.9999998 magnetization 
 augmentation part      -29.4721331 magnetization 

 Broyden mixing:
  rms(total) = 0.18037E-02    rms(broyden)= 0.18037E-02
  rms(prec ) = 0.21549E-02
  weight for this iteration     100.00

 eigenvalues of (default mixing * dielectric matrix)
  average eigenvalue GAMMA=   1.8322
  3.1540  2.6951  1.7609  1.7609  0.8970  1.2789  1.2789

 Free energy of the ion-electron system (eV)
  ---------------------------------------------------
  alpha Z        PSCENC =       210.77028614
  Ewald energy   TEWEN  =    -14474.32016053
  -Hartree energ DENC   =      -998.93153649
  -exchange      EXHF   =         0.00000000
  -V(xc)+E(xc)   XCENC  =     -1155.91518380
  PAW double counting   =      4730.49841068    -2492.21073430
  entropy T*S    EENTRO =        -0.00000000
  eigenvalues    EBANDS =       308.73401192
  atomic energy  EATOM  =     13192.48085998
  Solvation  Ediel_sol  =         0.00000000
  ---------------------------------------------------
  free energy    TOTEN  =      -678.89404639 eV

  energy without entropy =     -678.89404639  energy(sigma->0) =     -678.89404639


--------------------------------------------------------------------------------------------------------




--------------------------------------- Iteration      1(  13)  ---------------------------------------


    POTLOK:  cpu time    0.4880: real time    0.4897
    SETDIJ:  cpu time    0.5113: real time    0.5113
     EDDAV:  cpu time   76.3207: real time   76.3423
       DOS:  cpu time    0.0010: real time    0.0010
    CHARGE:  cpu time    3.1307: real time    3.1326
    MIXING:  cpu time    0.0366: real time    0.0366
    --------------------------------------------
      LOOP:  cpu time   80.4883: real time   80.5134

 eigenvalue-minimisations  :  5792
 total energy-change (2. order) :-0.2968759E-04  (-0.1076157E-04)
 number of electron     511.9999998 magnetization 
 augmentation part      -29.4721477 magnetization 

 Broyden mixing:
  rms(total) = 0.63218E-03    rms(broyden)= 0.63216E-03
  rms(prec ) = 0.81313E-03
  weight for this iteration     100.00

 eigenvalues of (default mixing * dielectric matrix)
  average eigenvalue GAMMA=   1.7736
  3.1542  2.5555  1.8950  1.8950  1.3966  1.3966  0.9478  0.9478

 Free energy of the ion-electron system (eV)
  ---------------------------------------------------
  alpha Z        PSCENC =       210.77028614
  Ewald energy   TEWEN  =    -14474.32016053
  -Hartree energ DENC   =      -998.92249491
  -exchange      EXHF   =         0.00000000
  -V(xc)+E(xc)   XCENC  =     -1155.92655716
  PAW double counting   =      4729.91862558    -2491.61950844
  entropy T*S    EENTRO =        -0.00000000
  eigenvalues    EBANDS =       308.72487326
  atomic energy  EATOM  =     13192.48085998
  Solvation  Ediel_sol  =         0.00000000
  ---------------------------------------------------
  free energy    TOTEN  =      -678.89407607 eV

  energy without entropy =     -678.89407607  energy(sigma->0) =     -678.89407607


--------------------------------------------------------------------------------------------------------




--------------------------------------- Iteration      1(  14)  ---------------------------------------


    POTLOK:  cpu time    0.4901: real time    0.4907
    SETDIJ:  cpu time    0.5113: real time    0.5113
     EDDAV:  cpu time   79.6530: real time   79.6668
       DOS:  cpu time    0.0010: real time    0.0010
    CHARGE:  cpu time    3.1288: real time    3.1291
    MIXING:  cpu time    0.0529: real time    0.0530
    --------------------------------------------
      LOOP:  cpu time   83.8370: real time   83.8520

 eigenvalue-minimisations  :  6128
 total energy-change (2. order) :-0.5817936E-05  (-0.9118490E-06)
 number of electron     511.9999998 magnetization 
 augmentation part      -29.4719444 magnetization 

 Broyden mixing:
  rms(total) = 0.16779E-03    rms(broyden)= 0.16771E-03
  rms(prec ) = 0.22757E-03
  weight for this iteration     100.00

 eigenvalues of (default mixing * dielectric matrix)
  average eigenvalue GAMMA=   1.7747
  3.2049  2.5893  2.2383  1.6711  1.6711  1.3331  1.3331  0.9984  0.9332

 Free energy of the ion-electron system (eV)
  ---------------------------------------------------
  alpha Z        PSCENC =       210.77028614
  Ewald energy   TEWEN  =    -14474.32016053
  -Hartree energ DENC   =      -998.98599062
  -exchange      EXHF   =         0.00000000
  -V(xc)+E(xc)   XCENC  =     -1155.91816541
  PAW double counting   =      4730.11058557    -2491.81602474
  entropy T*S    EENTRO =        -0.00000000
  eigenvalues    EBANDS =       308.78452772
  atomic energy  EATOM  =     13192.48085998
  Solvation  Ediel_sol  =         0.00000000
  ---------------------------------------------------
  free energy    TOTEN  =      -678.89408189 eV

  energy without entropy =     -678.89408189  energy(sigma->0) =     -678.89408189


--------------------------------------------------------------------------------------------------------




--------------------------------------- Iteration      1(  15)  ---------------------------------------


    POTLOK:  cpu time    0.4941: real time    0.4980
    SETDIJ:  cpu time    0.5069: real time    0.5070
     EDDAV:  cpu time   80.7422: real time   80.7561
       DOS:  cpu time    0.0010: real time    0.0010
    CHARGE:  cpu time    3.1308: real time    3.1313
    MIXING:  cpu time    0.0470: real time    0.0470
    --------------------------------------------
      LOOP:  cpu time   84.9221: real time   84.9404

 eigenvalue-minimisations  :  6240
 total energy-change (2. order) :-0.2994333E-05  (-0.1335131E-06)
 number of electron     511.9999998 magnetization 
 augmentation part      -29.4718362 magnetization 

 Broyden mixing:
  rms(total) = 0.65376E-04    rms(broyden)= 0.65181E-04
  rms(prec ) = 0.86501E-04
  weight for this iteration     100.00

 eigenvalues of (default mixing * dielectric matrix)
  average eigenvalue GAMMA=   1.7290
  3.2593  2.6026  2.0340  1.7115  1.7115  1.4901  1.4901  0.9407  0.9407  1.1098

 Free energy of the ion-electron system (eV)
  ---------------------------------------------------
  alpha Z        PSCENC =       210.77028614
  Ewald energy   TEWEN  =    -14474.32016053
  -Hartree energ DENC   =      -999.00657551
  -exchange      EXHF   =         0.00000000
  -V(xc)+E(xc)   XCENC  =     -1155.91699397
  PAW double counting   =      4730.17142649    -2491.87861988
  entropy T*S    EENTRO =        -0.00000000
  eigenvalues    EBANDS =       308.80569240
  atomic energy  EATOM  =     13192.48085998
  Solvation  Ediel_sol  =         0.00000000
  ---------------------------------------------------
  free energy    TOTEN  =      -678.89408489 eV

  energy without entropy =     -678.89408489  energy(sigma->0) =     -678.89408489


--------------------------------------------------------------------------------------------------------




--------------------------------------- Iteration      1(  16)  ---------------------------------------


    POTLOK:  cpu time    0.4923: real time    0.4934
    SETDIJ:  cpu time    0.5096: real time    0.5096
     EDDAV:  cpu time   78.8430: real time   78.8762
       DOS:  cpu time    0.0010: real time    0.0010
    CHARGE:  cpu time    3.1981: real time    3.1986
    MIXING:  cpu time    0.0482: real time    0.0482
    --------------------------------------------
      LOOP:  cpu time   83.0922: real time   83.1270

 eigenvalue-minimisations  :  6048
 total energy-change (2. order) : 0.6148548E-06  (-0.2077898E-07)
 number of electron     511.9999998 magnetization 
 augmentation part      -29.4718465 magnetization 

 Broyden mixing:
  rms(total) = 0.26491E-04    rms(broyden)= 0.26009E-04
  rms(prec ) = 0.33077E-04
  weight for this iteration     100.00

 eigenvalues of (default mixing * dielectric matrix)
  average eigenvalue GAMMA=   1.7121
  3.2753  2.6160  2.0611  2.0611  1.4684  1.4684  1.4531  1.4531  0.9162  1.0300
  1.0300

 Free energy of the ion-electron system (eV)
  ---------------------------------------------------
  alpha Z        PSCENC =       210.77028614
  Ewald energy   TEWEN  =    -14474.32016053
  -Hartree energ DENC   =      -999.00444185
  -exchange      EXHF   =         0.00000000
  -V(xc)+E(xc)   XCENC  =     -1155.91715341
  PAW double counting   =      4730.16123453    -2491.86793220
  entropy T*S    EENTRO =        -0.00000000
  eigenvalues    EBANDS =       308.80322307
  atomic energy  EATOM  =     13192.48085998
  Solvation  Ediel_sol  =         0.00000000
  ---------------------------------------------------
  free energy    TOTEN  =      -678.89408427 eV

  energy without entropy =     -678.89408427  energy(sigma->0) =     -678.89408427


--------------------------------------------------------------------------------------------------------




--------------------------------------- Iteration      1(  17)  ---------------------------------------


    POTLOK:  cpu time    0.4901: real time    0.4905
    SETDIJ:  cpu time    0.5071: real time    0.5071
     EDDAV:  cpu time   55.5932: real time   55.6066
       DOS:  cpu time    0.0012: real time    0.0012
    CHARGE:  cpu time    3.1940: real time    3.1943
    MIXING:  cpu time    0.0419: real time    0.0419
    --------------------------------------------
      LOOP:  cpu time   59.8275: real time   59.8417

 eigenvalue-minimisations  :  3712
 total energy-change (2. order) :-0.8504139E-07  (-0.2464820E-08)
 number of electron     511.9999998 magnetization 
 augmentation part      -29.4718442 magnetization 

 Broyden mixing:
  rms(total) = 0.12383E-04    rms(broyden)= 0.11314E-04
  rms(prec ) = 0.14325E-04
  weight for this iteration     100.00

 eigenvalues of (default mixing * dielectric matrix)
  average eigenvalue GAMMA=   1.7288
  3.2992  2.6071  2.4398  1.9243  1.9243  1.4395  1.4395  1.3762  1.3028  0.9218
  1.0356  1.0356

 Free energy of the ion-electron system (eV)
  ---------------------------------------------------
  alpha Z        PSCENC =       210.77028614
  Ewald energy   TEWEN  =    -14474.32016053
  -Hartree energ DENC   =      -999.00483729
  -exchange      EXHF   =         0.00000000
  -V(xc)+E(xc)   XCENC  =     -1155.91708948
  PAW double counting   =      4730.16635969    -2491.87306908
  entropy T*S    EENTRO =        -0.00000000
  eigenvalues    EBANDS =       308.80356622
  atomic energy  EATOM  =     13192.48085998
  Solvation  Ediel_sol  =         0.00000000
  ---------------------------------------------------
  free energy    TOTEN  =      -678.89408436 eV

  energy without entropy =     -678.89408436  energy(sigma->0) =     -678.89408436


--------------------------------------------------------------------------------------------------------




--------------------------------------- Iteration      1(  18)  ---------------------------------------


    POTLOK:  cpu time    0.4882: real time    0.4915
    SETDIJ:  cpu time    0.5114: real time    0.5115
     EDDAV:  cpu time   51.7585: real time   51.7790
       DOS:  cpu time    0.0010: real time    0.0010
    CHARGE:  cpu time    3.1964: real time    3.1968
    MIXING:  cpu time    0.0547: real time    0.0547
    --------------------------------------------
      LOOP:  cpu time   56.0103: real time   56.0345

 eigenvalue-minimisations  :  3328
 total energy-change (2. order) :-0.1003773E-06  (-0.5894396E-09)
 number of electron     511.9999998 magnetization 
 augmentation part      -29.4718399 magnetization 

 Broyden mixing:
  rms(total) = 0.65467E-05    rms(broyden)= 0.41857E-05
  rms(prec ) = 0.60363E-05
  weight for this iteration     100.00
  WARNING: grid for Broyden might be to small

 eigenvalues of (default mixing * dielectric matrix)
  average eigenvalue GAMMA=   1.7260
  3.2587  2.6315  2.3680  2.3680  1.7254  1.7254  1.4268  1.4268  0.9255  0.9816
  1.0345  1.2827  1.2827

 Free energy of the ion-electron system (eV)
  ---------------------------------------------------
  alpha Z        PSCENC =       210.77028614
  Ewald energy   TEWEN  =    -14474.32016053
  -Hartree energ DENC   =      -999.00571955
  -exchange      EXHF   =         0.00000000
  -V(xc)+E(xc)   XCENC  =     -1155.91698825
  PAW double counting   =      4730.17007844    -2491.87684524
  entropy T*S    EENTRO =        -0.00000000
  eigenvalues    EBANDS =       308.80440455
  atomic energy  EATOM  =     13192.48085998
  Solvation  Ediel_sol  =         0.00000000
  ---------------------------------------------------
  free energy    TOTEN  =      -678.89408446 eV

  energy without entropy =     -678.89408446  energy(sigma->0) =     -678.89408446


--------------------------------------------------------------------------------------------------------




--------------------------------------- Iteration      1(  19)  ---------------------------------------


    POTLOK:  cpu time    0.4889: real time    0.4909
    SETDIJ:  cpu time    0.5079: real time    0.5080
     EDDAV:  cpu time   51.1208: real time   51.1404
       DOS:  cpu time    0.0011: real time    0.0011
    CHARGE:  cpu time    3.2018: real time    3.2063
    MIXING:  cpu time    0.0388: real time    0.0388
    --------------------------------------------
      LOOP:  cpu time   55.3593: real time   55.3855

 eigenvalue-minimisations  :  3264
 total energy-change (2. order) : 0.5436414E-07  (-0.1348961E-09)
 number of electron     511.9999998 magnetization 
 augmentation part      -29.4718417 magnetization 

 Broyden mixing:
  rms(total) = 0.54404E-05    rms(broyden)= 0.20636E-05
  rms(prec ) = 0.27894E-05
  weight for this iteration     100.00
  WARNING: grid for Broyden might be to small

 eigenvalues of (default mixing * dielectric matrix)
  average eigenvalue GAMMA=   1.6860
  3.2999  2.6922  2.3546  2.3546  1.7564  1.7564  1.5202  1.5202  1.3164  1.3164
  1.0030  1.0030  0.9165  0.7942

 Free energy of the ion-electron system (eV)
  ---------------------------------------------------
  alpha Z        PSCENC =       210.77028614
  Ewald energy   TEWEN  =    -14474.32016053
  -Hartree energ DENC   =      -999.00529443
  -exchange      EXHF   =         0.00000000
  -V(xc)+E(xc)   XCENC  =     -1155.91702417
  PAW double counting   =      4730.16937341    -2491.87609672
  entropy T*S    EENTRO =        -0.00000000
  eigenvalues    EBANDS =       308.80397192
  atomic energy  EATOM  =     13192.48085998
  Solvation  Ediel_sol  =         0.00000000
  ---------------------------------------------------
  free energy    TOTEN  =      -678.89408440 eV

  energy without entropy =     -678.89408440  energy(sigma->0) =     -678.89408440


--------------------------------------------------------------------------------------------------------




--------------------------------------- Iteration      1(  20)  ---------------------------------------


    POTLOK:  cpu time    0.4898: real time    0.4929
    SETDIJ:  cpu time    0.5060: real time    0.5064
     EDDAV:  cpu time   50.2227: real time   50.2425
       DOS:  cpu time    0.0010: real time    0.0010
    --------------------------------------------
      LOOP:  cpu time   51.2195: real time   51.2427

 eigenvalue-minimisations  :  3176
 total energy-change (2. order) : 0.2783054E-08  (-0.3994552E-10)
 number of electron     511.9999998 magnetization 
 augmentation part      -29.4718417 magnetization 

 Free energy of the ion-electron system (eV)
  ---------------------------------------------------
  alpha Z        PSCENC =       210.77028614
  Ewald energy   TEWEN  =    -14474.32016053
  -Hartree energ DENC   =      -999.00535332
  -exchange      EXHF   =         0.00000000
  -V(xc)+E(xc)   XCENC  =     -1155.91702006
  PAW double counting   =      4730.16928414    -2491.87600585
  entropy T*S    EENTRO =        -0.00000000
  eigenvalues    EBANDS =       308.80402509
  atomic energy  EATOM  =     13192.48085998
  Solvation  Ediel_sol  =         0.00000000
  ---------------------------------------------------
  free energy    TOTEN  =      -678.89408440 eV

  energy without entropy =     -678.89408440  energy(sigma->0) =     -678.89408440


--------------------------------------------------------------------------------------------------------




 average (electrostatic) potential at core
  the test charge radii are     0.9892
  (the norm of the test charge is              1.0000)
       1 -83.5103       2 -83.4014       3 -83.5187       4 -83.5484       5 -83.5342
       6 -83.5367       7 -83.5910       8 -83.6223       9 -83.5259      10 -83.4152
      11 -83.5381      12 -83.5367      13 -83.4523      14 -83.6358      15 -83.5311
      16 -83.4670      17 -83.5470      18 -83.4073      19 -83.4708      20 -83.6375
      21 -83.5283      22 -83.5280      23 -83.6151      24 -83.5515      25 -83.4429
      26 -83.5467      27 -83.4555      28 -83.5417      29 -83.5844      30 -83.4094
      31 -83.4134      32 -83.4089      33 -83.3934      34 -83.5978      35 -83.5522
      36 -83.4187      37 -83.5567      38 -83.6786      39 -83.4673      40 -83.5647
      41 -83.5845      42 -83.3925      43 -83.4124      44 -83.4637      45 -83.4757
      46 -83.4033      47 -83.4990      48 -83.6580      49 -83.4909      50 -83.6148
      51 -83.3549      52 -83.5158      53 -83.6586      54 -83.5229      55 -83.6389
      56 -83.6142      57 -83.4683      58 -83.5039      59 -83.4623      60 -83.5962
      61 -83.5358      62 -83.4672      63 -83.5615      64 -83.5006      65 -83.4114
      66 -83.4652      67 -83.5409      68 -83.6653      69 -83.5519      70 -83.4199
      71 -83.6739      72 -83.5303      73 -83.5212      74 -83.6467      75 -83.4190
      76 -83.4476      77 -83.6019      78 -83.4642      79 -83.5214      80 -83.3808
      81 -83.4951      82 -83.4618      83 -83.6375      84 -83.4505      85 -83.5801
      86 -83.6380      87 -83.5254      88 -83.5453      89 -83.5406      90 -83.4611
      91 -83.5463      92 -83.4112      93 -83.4883      94 -83.5062      95 -83.3899
      96 -83.6846      97 -83.5203      98 -83.5430      99 -83.4215     100 -83.6020
     101 -83.6594     102 -83.5254     103 -83.5557     104 -83.5199     105 -83.4012
     106 -83.3708     107 -83.4449     108 -83.6500     109 -83.4578     110 -83.4107
     111 -83.7286     112 -83.4043     113 -83.5290     114 -83.4543     115 -83.5549
     116 -83.3749     117 -83.6054     118 -83.4529     119 -83.5663     120 -83.7461
     121 -83.5815     122 -83.4555     123 -83.6097     124 -83.4167     125 -83.5004
     126 -83.5784     127 -83.3540     128 -83.5340
 
 
 
 E-fermi :   5.9617     XC(G=0):  -9.3331     alpha+bet :-11.7321


 k-point     1 :       0.0000    0.0000    0.0000
  band No.  band energies     occupation 
      1      -6.2979      2.00000
      2      -5.7020      2.00000
      3      -5.6483      2.00000
      4      -5.6086      2.00000
      5      -5.5646      2.00000
      6      -5.5180      2.00000
      7      -5.4653      2.00000
      8      -5.4430      2.00000
      9      -5.4147      2.00000
     10      -5.3236      2.00000
     11      -5.3023      2.00000
     12      -5.2269      2.00000
     13      -5.1967      2.00000
     14      -5.1251      2.00000
     15      -5.0552      2.00000
     16      -4.5385      2.00000
     17      -4.4789      2.00000
     18      -4.4298      2.00000
     19      -4.4177      2.00000
     20      -4.3556      2.00000
     21      -4.3179      2.00000
     22      -4.2929      2.00000
     23      -4.2620      2.00000
     24      -4.2333      2.00000
     25      -4.2199      2.00000
     26      -4.1830      2.00000
     27      -4.0935      2.00000
     28      -4.0471      2.00000
     29      -3.9952      2.00000
     30      -3.9721      2.00000
     31      -3.9308      2.00000
     32      -3.8905      2.00000
     33      -3.8538      2.00000
     34      -3.8047      2.00000
     35      -3.7875      2.00000
     36      -3.7537      2.00000
     37      -3.7151      2.00000
     38      -3.7023      2.00000
     39      -3.6765      2.00000
     40      -3.6489      2.00000
     41      -3.6245      2.00000
     42      -3.5624      2.00000
     43      -3.5443      2.00000
     44      -3.5138      2.00000
     45      -3.4875      2.00000
     46      -3.4759      2.00000
     47      -3.4401      2.00000
     48      -3.4323      2.00000
     49      -3.3988      2.00000
     50      -3.3860      2.00000
     51      -3.3598      2.00000
     52      -3.3467      2.00000
     53      -3.3316      2.00000
     54      -3.2464      2.00000
     55      -3.1484      2.00000
     56      -2.3715      2.00000
     57      -2.3323      2.00000
     58      -2.3078      2.00000
     59      -2.2326      2.00000
     60      -2.1831      2.00000
     61      -2.1523      2.00000
     62      -2.1289      2.00000
     63      -2.1010      2.00000
     64      -2.0492      2.00000
     65      -2.0363      2.00000
     66      -1.9977      2.00000
     67      -1.9885      2.00000
     68      -1.9808      2.00000
     69      -1.9128      2.00000
     70      -1.8717      2.00000
     71      -1.8581      2.00000
     72      -1.8124      2.00000
     73      -1.7824      2.00000
     74      -1.4426      2.00000
     75      -1.3624      2.00000
     76      -1.2592      2.00000
     77      -1.1329      2.00000
     78      -1.0764      2.00000
     79      -1.0427      2.00000
     80      -0.9758      2.00000
     81      -0.9192      2.00000
     82      -0.8900      2.00000
     83      -0.8770      2.00000
     84      -0.8629      2.00000
     85      -0.8160      2.00000
     86      -0.7869      2.00000
     87      -0.7745      2.00000
     88      -0.7441      2.00000
     89      -0.7381      2.00000
     90      -0.6946      2.00000
     91      -0.6654      2.00000
     92      -0.6599      2.00000
     93      -0.6326      2.00000
     94      -0.6221      2.00000
     95      -0.5954      2.00000
     96      -0.5416      2.00000
     97      -0.5332      2.00000
     98      -0.4881      2.00000
     99      -0.4498      2.00000
    100      -0.4381      2.00000
    101      -0.2981      2.00000
    102      -0.0175      2.00000
    103       0.0515      2.00000
[...]
   0.494E+01 -.493E-01 -.873E+00   -.470E+01 0.393E+00 0.936E+00   -.139E+01 -.172E+00 0.353E+00   -.607E-07 -.104E-05 -.151E-05
   0.436E-01 0.851E+01 -.119E+01   -.592E+00 -.769E+01 0.309E+00   -.190E+00 -.346E+01 0.199E+01   0.282E-05 -.280E-05 0.243E-05
   0.138E+02 -.772E+01 -.126E+01   -.123E+02 0.716E+01 0.133E+01   -.289E+01 0.130E+01 -.723E+00   0.262E-05 0.189E-05 0.127E-05
   -.133E+01 0.600E-01 -.528E+00   0.137E+01 -.238E+00 0.274E+00   0.413E+00 0.204E-01 -.527E+00   0.444E-06 0.157E-05 -.164E-05
   -.163E+02 -.448E+01 -.258E+01   0.151E+02 0.422E+01 0.256E+01   0.462E+01 0.180E+01 0.117E+01   0.937E-06 -.257E-06 -.833E-06
   0.102E+02 0.266E+01 0.104E+02   -.838E+01 -.255E+01 -.949E+01   -.358E+01 0.252E+00 -.147E+01   -.682E-05 0.334E-06 -.243E-05
   -.832E+01 -.481E+01 -.589E+01   0.737E+01 0.431E+01 0.570E+01   0.176E+01 0.732E+00 0.107E+01   -.284E-05 -.453E-06 -.445E-05
   -.540E+01 -.290E+01 0.338E+01   0.455E+01 0.282E+01 -.382E+01   0.116E+01 -.103E+00 -.781E-01   -.969E-07 0.214E-05 0.172E-06
   -.102E+02 -.164E+00 -.121E+02   0.922E+01 0.558E+00 0.106E+02   0.110E+01 0.117E-01 0.481E+01   -.309E-06 0.333E-05 0.321E-05
   0.269E+01 -.419E-01 0.686E+00   -.216E+01 -.424E+00 -.643E-01   -.268E+01 0.263E+00 -.919E+00   -.450E-05 -.161E-05 -.363E-05
   -.320E+01 -.678E+01 0.932E+01   0.281E+01 0.576E+01 -.844E+01   -.983E+00 0.982E+00 -.220E+01   -.954E-06 0.307E-05 -.485E-06
   -.104E+01 -.854E+01 0.744E+01   0.176E+01 0.772E+01 -.640E+01   -.582E+00 0.223E+01 -.170E+01   0.166E-05 0.236E-05 0.136E-05
   0.132E+01 0.130E+00 -.422E+01   -.963E+00 0.331E+00 0.326E+01   -.467E+00 -.856E+00 0.183E+01   -.475E-06 -.167E-05 0.228E-05
   -.584E+01 -.177E+01 0.340E+01   0.508E+01 0.173E+01 -.395E+01   0.110E+01 -.109E+01 0.408E+00   0.458E-05 -.111E-05 0.275E-05
   0.517E+01 0.146E+01 0.710E+00   -.429E+01 -.123E+01 -.399E+00   -.324E+01 -.879E-01 -.398E+00   0.336E-05 0.172E-05 0.401E-05
   0.963E+01 -.447E+01 -.103E+01   -.890E+01 0.333E+01 0.109E+01   -.197E+01 0.181E+01 -.692E+00   0.840E-06 0.725E-06 -.930E-06
   -.540E+01 -.685E+01 -.507E+01   0.523E+01 0.633E+01 0.449E+01   0.180E+01 0.219E+01 0.248E+01   0.585E-07 -.277E-05 -.186E-05
   -.178E+01 -.836E+00 -.480E+00   0.144E+01 0.115E+01 0.996E+00   0.402E+00 -.114E+01 0.680E-01   0.330E-05 0.898E-06 0.373E-05
   0.377E+01 0.530E+01 0.894E+01   -.366E+01 -.497E+01 -.796E+01   -.685E+00 -.121E+01 -.259E+01   0.184E-05 -.556E-07 -.278E-05
   0.266E+01 -.998E+00 -.339E+01   -.286E+01 0.151E+01 0.329E+01   -.264E+00 0.173E+00 0.109E+00   -.893E-06 -.147E-05 -.318E-05
   0.321E+01 0.611E+01 -.243E+01   -.380E+01 -.632E+01 0.127E+01   0.952E-01 -.561E-01 0.236E+01   -.885E-07 -.222E-05 0.416E-05
   -.129E+01 -.138E+01 -.105E+01   0.102E+01 0.795E+00 0.506E+00   -.163E+01 -.154E+00 -.180E+00   -.348E-05 0.211E-05 -.250E-05
   0.267E+00 0.642E+01 0.823E+01   -.833E+00 -.546E+01 -.672E+01   -.261E+00 -.249E+01 -.334E+01   -.168E-05 0.357E-08 -.560E-05
   0.496E+01 0.398E+00 -.373E+01   -.434E+01 0.154E+00 0.334E+01   -.215E+01 -.549E-01 0.378E+00   -.167E-05 0.156E-05 0.211E-05
   -.516E+01 0.542E+01 0.102E+01   0.443E+01 -.506E+01 -.384E+00   -.451E+00 -.107E+01 -.385E+00   -.759E-06 -.580E-06 -.131E-05
   -.793E+01 0.489E+01 -.852E+00   0.688E+01 -.507E+01 0.978E+00   0.183E+01 -.161E+01 -.223E-02   0.351E-05 -.589E-06 -.136E-05
   0.928E+01 0.641E+01 0.630E+01   -.898E+01 -.578E+01 -.563E+01   -.127E+01 -.712E+00 -.601E+00   0.175E-05 -.108E-05 0.329E-05
   0.385E+01 -.175E+02 0.116E+00   -.459E+01 0.154E+02 0.349E+00   0.231E+00 0.499E+01 -.215E+00   0.432E-05 0.181E-05 0.293E-05
   -.392E+01 0.133E+01 0.872E+01   0.408E+01 -.167E+01 -.788E+01   0.101E+01 -.109E+01 -.274E+01   0.646E-06 -.408E-05 -.389E-05
   0.688E+01 0.231E+00 0.137E+01   -.697E+01 -.395E+00 -.113E+01   -.209E+01 -.381E-02 -.710E+00   0.190E-05 0.162E-05 0.340E-05
   -.491E+01 0.896E+01 -.171E+01   0.413E+01 -.811E+01 0.108E+01   0.140E+01 -.271E+01 0.865E+00   0.228E-05 -.165E-05 0.458E-05
   0.587E+01 -.324E+01 -.941E+00   -.574E+01 0.363E+01 0.144E+01   -.966E+00 -.291E+00 -.700E+00   -.604E-06 -.340E-05 -.339E-05
   0.159E+02 0.114E+01 0.530E+01   -.151E+02 -.105E+01 -.504E+01   -.485E+01 -.159E+00 -.917E+00   -.409E-05 -.874E-06 -.663E-06
   -.421E+01 0.866E+01 0.842E+01   0.422E+01 -.790E+01 -.740E+01   0.105E+01 -.245E+01 -.210E+01   -.489E-05 0.434E-06 0.224E-05
   -.541E+01 -.108E+02 -.308E+01   0.484E+01 0.977E+01 0.246E+01   0.128E+01 0.361E+01 0.322E-01   -.360E-05 -.143E-05 -.387E-05
   0.202E+01 0.124E+01 -.157E+01   -.164E+01 -.190E+01 0.141E+01   -.991E+00 0.219E+00 -.118E+01   -.164E-05 -.172E-05 -.813E-06
   -.753E+01 -.418E+01 0.702E+01   0.742E+01 0.383E+01 -.572E+01   -.552E+00 0.898E+00 -.161E+01   0.223E-05 0.225E-05 0.359E-05
   0.179E+02 0.499E+01 0.182E+00   -.161E+02 -.474E+01 -.366E+00   -.484E+01 -.644E+00 -.375E-02   -.378E-05 0.353E-05 -.237E-05
   0.328E+01 -.304E+01 -.104E+02   -.351E+01 0.325E+01 0.101E+02   -.534E-01 0.282E+00 0.133E+01   0.253E-05 0.349E-05 -.141E-05
   0.320E+01 0.615E+01 -.701E+01   -.351E+01 -.558E+01 0.601E+01   -.866E+00 -.285E+01 0.184E+01   0.217E-06 -.192E-05 0.131E-05
   -.117E+02 0.122E+02 -.281E+01   0.109E+02 -.114E+02 0.285E+01   0.279E+01 -.280E+01 0.351E-01   -.342E-06 -.146E-05 -.117E-05
   0.533E+01 -.630E-01 -.112E+02   -.485E+01 0.945E-01 0.104E+02   -.110E+01 0.242E+00 0.223E+01   0.281E-05 0.181E-05 0.268E-05
   -.399E+01 -.627E+01 0.504E+01   0.320E+01 0.552E+01 -.489E+01   0.308E+01 0.116E+01 -.194E+00   0.507E-05 0.283E-05 0.351E-06
   0.706E+01 0.673E+00 -.579E+01   -.668E+01 -.389E+00 0.566E+01   -.130E+01 -.139E+01 0.251E+01   -.186E-06 -.368E-05 -.640E-06
   0.810E+01 0.107E+02 -.134E+01   -.796E+01 -.105E+02 0.606E+00   -.743E+00 -.205E+01 0.143E+01   -.186E-05 -.210E-05 0.253E-05
   -.220E+01 -.192E+01 -.456E+01   0.219E+01 0.191E+01 0.362E+01   0.401E+00 0.134E+01 0.110E+01   -.109E-05 0.754E-06 0.128E-05
   -.384E+01 0.337E+01 0.621E+01   0.386E+01 -.255E+01 -.560E+01   -.312E+00 -.760E+00 -.783E+00   -.311E-05 -.443E-05 0.720E-06
   0.569E+01 0.921E+00 -.256E+01   -.539E+01 -.108E+01 0.229E+01   -.212E+01 -.662E-01 0.242E+00   -.165E-05 -.111E-05 -.194E-05
   -.827E+01 -.498E+01 0.275E+01   0.716E+01 0.426E+01 -.222E+01   0.239E+01 0.111E+01 -.547E+00   0.423E-05 0.540E-05 0.157E-05
   0.253E+01 -.958E+01 -.369E+01   -.295E+01 0.910E+01 0.374E+01   -.964E-01 0.272E+01 -.417E+00   -.672E-06 0.278E-05 0.128E-05
   0.420E+00 0.408E+01 -.865E+00   -.707E+00 -.400E+01 0.551E+00   -.710E+00 -.105E+01 0.734E+00   0.384E-06 -.312E-05 -.138E-05
   -.189E+01 -.451E+01 0.134E+01   0.223E+01 0.388E+01 -.109E+01   -.494E+00 0.204E+01 -.674E+00   0.225E-05 0.322E-05 0.565E-06
   0.660E+01 0.398E+01 0.734E+01   -.601E+01 -.402E+01 -.634E+01   -.200E+01 0.463E+00 -.177E+01   -.132E-05 0.704E-06 -.259E-05
 -----------------------------------------------------------------------------------------------
   0.321E+00 0.250E+00 0.403E+00   -.444E-13 -.107E-12 0.177E-12   -.321E+00 -.250E+00 -.403E+00   0.687E-06 0.181E-05 0.149E-05
 
 
 POSITION                                       TOTAL-FORCE (eV/Angst)
 -----------------------------------------------------------------------------------
      0.02264     10.89635     10.90365         0.590648      0.794203     -1.558318
     10.98190      2.82109     13.62776        -0.118956     -1.622440      0.133848
     21.86248     16.31484     16.31028         0.747526      1.898986     -0.096228
     10.94870     19.15612      8.29155        -0.157190      0.128779     -1.251685
     13.58783     10.95078      2.74745         1.586481      0.376832     -0.056782
     13.79909     13.57168      5.56932        -1.710894      0.681937     -0.933280
     13.60396     16.37334      8.27837         2.022987      1.777090     -1.880550
      2.77335      8.18629     10.95902         1.478769      0.398565     -0.198347
     16.32466     21.74021     16.42041         0.054455      0.925121     -0.064699
      5.46734      2.78541      8.19945         0.821726     -0.398330     -0.046775
     16.29061     16.47470     10.99981         0.061119     -0.707870     -1.213722
      5.60761      8.24341     13.66935        -1.997293     -0.021936      0.147835
     19.08899     10.97966      8.28400         0.231808     -0.611962      0.640323
     19.18702     13.50062     10.86881        -0.010120      2.893877     -0.039167
      8.14810      5.57579     13.66199        -0.152803     -0.991285      0.110091
      8.20874      8.33491     16.44003        -0.540093     -2.320345     -0.533090
     13.49775      2.58650     10.91127         1.402385      0.307200     -0.153617
      2.74292      5.43992      2.87757         0.921252      0.420392     -1.956492
     13.68030      8.23069     16.39858         0.356188      0.095686     -0.061213
      2.80078     10.97187      8.23035        -1.003277     -1.207503     -1.718500
      5.44630      2.89008      2.76095         1.259255     -1.055115      0.381259
      5.39960      5.42822      5.49861         0.966564      0.963952     -0.233150
      5.47050      8.04135      8.22505         1.342895      2.452857     -2.041734
      5.50436     10.85688     10.89653        -0.604448      0.527301     -0.249955
      8.17188      2.81385      5.48423         1.410726     -1.477329     -0.137715
      8.11891      5.45462      8.18425         1.994331      0.572116      0.805239
      8.23721      8.14272     10.77361         0.765057     -1.058450      1.595236
      8.08909     10.90680     13.80356         0.252565     -0.188960     -2.542373
     10.84436     13.61099     19.05548         1.271256      1.755560     -1.493109
     10.95494      5.31972     10.94104         0.934646      0.757935      1.098497
     10.92373      8.17459     13.54172         0.167726     -0.267497      1.618021
     11.03573     10.94150     16.39284        -1.953471     -1.176779     -0.616687
      5.46343      5.42602      0.12972         0.812425      1.123024     -0.458345
     16.27154      8.15484     13.53212         2.000497     -0.029340      1.698793
      5.58240     10.85436      5.30866        -0.910138      1.277132      2.685833
     16.13558     13.82007     19.24387         3.365460     -0.429476     -0.677689
      8.17030     16.30438     13.64663         0.813534      1.928684      0.847355
      8.07133      8.15687      5.32287         1.370294      0.688020      1.577833
      8.23828     10.99984      8.36072        -0.871453     -2.123257     -1.699325
      8.15246     13.49564     10.94495         1.435416      0.966968     -0.157870
     10.95990     16.40407     16.36220         0.711099      1.034695      0.052071
     11.01387      8.18581      8.29014         0.741516      0.224747     -1.298112
     10.96477     10.87337     10.90372         0.107786     -0.208222      1.944525
     11.00016     13.60679     13.65679        -0.151783      0.509698      0.740370
     13.68879     16.23924     19.22068         0.940734      1.399973      0.031259
     13.76968      8.22792     10.88893        -2.194291      0.137734      0.009037
     13.62333     11.03240     13.56692         0.831002     -0.869955      1.687579
     13.57718     13.65176     16.51098         2.403166     -0.642439      0.349871
      8.19213     19.09768     10.91613         0.882300      1.219001      1.879521
     19.18333     11.05144     13.70924         1.133738     -0.485220     -0.662094
     18.98230     13.82094     16.50776         1.933986     -0.578026      0.086043
     19.02783     16.44367     19.19046         1.157622      0.119209     -0.060043
     11.02276      8.34351      2.69344        -0.066987     -1.134501      0.226814
     10.99783     11.03401      5.57931        -1.447950     -1.369930     -1.943803
     10.97191     13.67616      8.20050        -1.838645      0.577177      0.030482
     11.06410     16.24246     10.92354        -1.616023      1.497850      0.057722
     13.58287     19.12661     16.32117         0.537300     -0.185064      0.441527
     13.54019     10.95740      8.17005         1.354358      0.224461     -0.304616
     13.63704     13.69242     10.96139         1.003919      0.536646     -0.549279
     13.59854     16.39369     13.75191         1.354492      0.977787     -2.187255
     16.51413      8.29758      8.26880        -0.987685     -1.329163     -0.561049
     16.30717     11.07324     11.01692         0.303127     -1.767070     -0.011609
     16.44401     13.55370     13.55529        -0.037840      0.539148      1.134043
     16.30666     16.42726     16.35529         0.750797      0.173738      0.044191
      1.29163      1.22588      1.40029        -0.319762      1.308380     -0.232232
      1.35019      4.14704      3.96497         0.313264     -1.550196      2.277454
      1.42874      6.82805      6.78630        -1.155771     -0.273893      0.370659
      1.54482      9.54461      9.58757        -1.451291      0.371767     -0.121986
      4.10249      1.45003      4.01998         0.289962     -1.203000      0.633649
      4.09096      4.09613      6.83958        -0.246615      0.127223      0.784919
      4.20197      6.90477      9.49666        -2.778985     -2.035588      1.962979
      4.09867      9.65082     12.33770         0.169035     -0.646730      0.075225
      6.95848      1.27808      6.77572        -1.943265      0.774082      0.183301
      6.81107      4.27262      9.61393        -0.332757     -1.920182      0.535436
      6.64886      6.82314     12.24547         2.652292      0.745609      0.161037
      6.87048      9.53453     15.08449        -1.155590      0.170913      0.415749
      9.64743      1.47674      9.47055        -0.738421     -2.639230      1.109681
      9.58903      4.02625     12.33300        -1.389008      0.737140     -0.652924
      9.52851      6.90834     15.10360         0.454061     -0.157619     -0.781632
      9.33944      9.54434     17.83461         3.404794      1.541804      1.148793
      4.10851      4.04243      1.39019        -1.795141      0.371707     -0.595016
      4.06169      6.83101      4.08329         0.810562      0.235276      0.878702
      4.15102      9.56922      6.85307         0.310379     -0.181978     -0.520208
      4.10858     12.24979      9.39488         0.165464      0.405655      3.278386
      6.95672      4.17216      4.18708        -2.150386     -0.202182     -0.297251
      6.91819      6.82285      6.87879        -1.378538     -0.044623     -1.314839
      6.81074      9.40096      9.58312         0.139427      1.406602     -0.659861
      6.73774     12.30223     12.29501        -0.107496     -0.395458      0.875923
      9.51590      4.23209      6.80750         0.336595     -1.133832     -0.137383
      9.82496      6.72295      9.55214        -2.364672      0.132855     -0.087436
      9.57386      9.51934     12.31196        -1.237629      0.660834     -0.633341
      9.49654     12.20047     14.91759         1.631477      1.672419      1.902305
     12.21328      4.03483      9.48948         0.058390     -0.828951      0.583342
     12.45896      6.87668     12.42134        -0.579615     -0.876807     -1.614264
     12.33679      9.52052     14.95133        -0.461307      0.686460      0.003208
     12.30719     12.26095     17.73504        -0.491905     -0.262083      1.197566
      6.99475      6.88809      1.46918        -1.900623     -0.738322     -0.724120
      6.93754      9.66868      4.06926        -0.827241     -1.527317     -1.835027
      6.91384     12.28312      6.91773        -1.532428      0.497237     -0.020715
      6.87233     15.04201      9.63005        -1.175563     -0.707103      0.248577
      9.52580      7.00477      3.96920         0.779441     -1.794593      0.124513
      9.63573      9.54251      6.84983        -0.970540     -0.080107      0.076199
      9.70042     12.09970      9.58095        -0.512269      2.896454      0.250723
      9.53830     15.03698     12.42907         1.172935     -1.431874     -1.891738
     12.54505      6.81166      6.93891        -2.175713     -0.168118     -0.464836
     12.29351      9.68634      9.56362         0.616582     -1.859249      0.238184
     12.31142     12.31032     12.22159        -0.834238      0.105144     -0.198900
     12.61223     15.01252     15.12935        -4.086990     -0.070113     -0.659391
     15.06385      6.90104      9.65275         1.057905     -1.684521     -1.070094
     14.90401      9.45370     12.35275         0.708811      2.614959     -0.586848
     15.09249     12.35113     15.15527        -0.617188     -0.438057     -1.333571
     15.02825     15.03115     17.74015        -0.655869      0.538670     -0.310729
      9.78438      9.66463      1.37985        -3.030625     -0.391477     -0.187739
      9.60462     12.41870      4.11564        -0.287457      0.487238      0.995624
      9.60735     15.29850      6.85076        -1.170557     -2.280456      0.837692
      9.42684     17.89173      9.53746         1.938902     -2.010119      0.082185
     12.32605      9.63184      4.06686        -0.614215      0.273107      1.461700
     12.17803     12.35517      6.86456         2.287739      0.409639     -0.039824
     12.38023     14.99986      9.41095        -0.921956     -1.108630      2.391320
     12.32488     17.87286     12.23524        -0.607931     -1.813939      0.694285
     14.92741      9.39355      6.86180         0.389591      1.334878      0.150707
     15.00595     12.34304      9.54354        -0.284170      0.060613     -0.179069
     15.14062     15.04463     12.36044        -1.824490     -0.222438     -0.023085
     14.93257     17.79846     14.98971         1.281207      0.393800     -0.018345
     17.75275      9.51506      9.74684        -0.512423      2.234906     -0.368791
     17.88657     12.31604     12.24188        -0.997081     -0.970901      0.421250
     17.69298     14.94690     14.99973        -0.156715      1.409608     -0.422352
     17.83960     17.78150     17.79027        -1.407969      0.418092     -0.774671
 -----------------------------------------------------------------------------------
    total drift:                                0.000004     -0.000022     -0.000002


--------------------------------------------------------------------------------------------------------



  FREE ENERGIE OF THE ION-ELECTRON SYSTEM (eV)
  ---------------------------------------------------
  free  energy   TOTEN  =      -678.89408440 eV

  energy  without entropy=     -678.89408440  energy(sigma->0) =     -678.89408440
 


--------------------------------------------------------------------------------------------------------


    POTLOK:  cpu time    0.9950: real time    0.9981


--------------------------------------------------------------------------------------------------------


     LOOP+:  cpu time 1645.2520: real time 1645.8732
    4ORBIT:  cpu time    0.0000: real time    0.0000

 total amount of memory used by VASP MPI-rank0   221701. kBytes
=======================================================================

   base      :      30000. kBytes
   nonl-proj :      10690. kBytes
   fftplans  :      66746. kBytes
   grid      :      26864. kBytes
   one-center:         24. kBytes
   wavefun   :      87377. kBytes
 
  
  
 General timing and accounting informations for this job:
 ========================================================
  
                  Total CPU time used (sec):     1669.229
                            User time (sec):     1668.173
                          System time (sec):        1.056
                         Elapsed time (sec):     1670.865
  
                   Maximum memory used (kb):      337692.
                   Average memory used (kb):           0.
  
                          Minor page faults:       138227
                          Major page faults:            0
                 Voluntary context switches:         1307
