<?xml version="1.0" encoding="ISO-8859-1"?>
<modeling>
 <generator>
  <i name="program" type="string">vasp </i>
  <i name="version" type="string">5.4.4.18Apr17-6-g9f103f2a35  </i>
  <i name="subversion" type="string">(build Nov 08 2017 09:05:29) complex            parallel </i>
  <i name="platform" type="string">Intel_17.33 </i>
  <i name="date" type="string">2020 07 18 </i>
  <i name="time" type="string">19:48:06 </i>
 </generator>
 <incar>
  <i type="string" name="SYSTEM">potpaw_PBE@./ARUN.APL1ZEROSTATE</i>
  <i type="string" name="PREC">accurate</i>
  <i type="string" name="ALGO">Normal</i>
  <i type="int" name="NSIM">     4</i>
  <i type="logical" name="ADDGRID"> T  </i>
  <i type="int" name="NELM">   120</i>
  <i type="int" name="NELMIN">     4</i>
  <i name="EDIFF">      0.00000001</i>
  <i type="int" name="NSW">     0</i>
  <i type="int" name="ISYM">     2</i>
  <i name="ENMAX">    500.00000000</i>
  <i type="logical" name="LREAL"> F  </i>
  <i type="logical" name="LPLANE"> T  </i>
  <i type="int" name="ISMEAR">     0</i>
  <i name="SIGMA">      0.01000000</i>
  <i type="logical" name="LWAVE"> F  </i>
  <i type="logical" name="LCHARG"> F  </i>
  <i type="logical" name="LELF"> F  </i>
  <i type="logical" name="LAECHG"> F  </i>
  <v type="int" name="KPOINT_BSE">    -1     0     0     0</v>
  <i type="int" name="NELM">   120</i>
 </incar>
 <structure name="primitive_cell" >
  <crystal>
   <varray name="basis" >
    <v>       0.00000000      10.93733369      10.93733369 </v>
    <v>      10.93733369       0.00000000      10.93733369 </v>
    <v>      10.93733369      10.93733369       0.00000000 </v>
   </varray>
   <i name="volume">   2616.76295363 </i>
   <varray name="rec_basis" >
    <v>      -0.04571498       0.04571498       0.04571498 </v>
    <v>       0.04571498      -0.04571498       0.04571498 </v>
    <v>       0.04571498       0.04571498      -0.04571498 </v>
   </varray>
  </crystal>
  <varray name="positions" >
   <v>      -0.00444827       0.00136898       0.00070106 </v>
   <v>       0.05760545       0.06855436      -0.17396842 </v>
   <v>       0.06100863       0.06702000       0.05107381 </v>
   <v>      -0.19599401       0.07258525       0.06865766 </v>
   <v>       0.05942339      -0.19353143       0.07559515 </v>
   <v>       0.00000086      -0.00238358       0.23648270 </v>
   <v>       0.00064814       0.24561272      -0.23780177 </v>
   <v>      -0.24574977       0.00384543      -0.00280649 </v>
   <v>       0.23691381      -0.24317859      -0.00255299 </v>
   <v>       0.00504696       0.24615216      -0.00381716 </v>
   <v>       0.00798501      -0.25057911      -0.00411526 </v>
   <v>      -0.25020884       0.00270918       0.25336620 </v>
   <v>      -0.25155584       0.25353872       0.00002831 </v>
   <v>      -0.00240281      -0.25535523       0.24685505 </v>
   <v>      -0.00242260       0.00048370      -0.25147713 </v>
   <v>       0.25496870      -0.00153308      -0.24453590 </v>
   <v>       0.24992142      -0.00393624       0.00801063 </v>
   <v>      -0.18704049       0.30570822      -0.17884467 </v>
   <v>      -0.17702256       0.04903229      -0.18713697 </v>
   <v>       0.30498069      -0.18570576      -0.17892557 </v>
   <v>       0.05993325      -0.19231079       0.30897067 </v>
   <v>      -0.18216583       0.31020090       0.06453995 </v>
   <v>       0.06275060       0.30908203      -0.18211203 </v>
   <v>       0.06899046      -0.17783715      -0.19902926 </v>
   <v>       0.30950039      -0.18189512       0.05861936 </v>
   <v>      -0.17532405      -0.19405809       0.04796289 </v>
   <v>      -0.19135696      -0.18712930       0.31237506 </v>
   <v>      -0.19833831       0.05731184       0.31833572 </v>
   <v>       0.31679192       0.05950057      -0.18135082 </v>
   <v>       0.24255535      -0.24221648       0.24382649 </v>
   <v>      -0.25490972      -0.24629380       0.25529062 </v>
   <v>      -0.25717482       0.25344402       0.24981932 </v>
   <v>      -0.26390172       0.26264055      -0.25105069 </v>
   <v>       0.26436956      -0.25709291      -0.25194344 </v>
   <v>       0.25671188       0.25340384      -0.24787235 </v>
   <v>       0.06620289       0.29670047      -0.42575694 </v>
   <v>       0.06228810       0.07203940      -0.43251007 </v>
   <v>       0.31088029       0.06117228      -0.42687339 </v>
   <v>       0.05007258      -0.43056880       0.06678234 </v>
   <v>      -0.43901912       0.06559483       0.31393288 </v>
   <v>       0.30911624       0.05340077       0.07004722 </v>
   <v>       0.06251590       0.30503070       0.07006003 </v>
   <v>      -0.44230170       0.31058114       0.07360486 </v>
   <v>       0.06053191       0.06657348       0.30906728 </v>
   <v>      -0.44293510       0.06340611       0.06722319 </v>
   <v>       0.06965554      -0.44724589       0.31728422 </v>
   <v>       0.32345531      -0.44445437       0.06719033 </v>
   <v>      -0.22612054      -0.01441329       0.48968898 </v>
   <v>       0.00238869      -0.24637254      -0.24374152 </v>
   <v>      -0.24179155      -0.24861059       0.48997118 </v>
   <v>      -0.00473323      -0.23792050       0.48948615 </v>
   <v>      -0.24267661      -0.25421236       0.00473712 </v>
   <v>      -0.00044585       0.49269012      -0.25080904 </v>
   <v>      -0.49495234       0.25184354      -0.00803396 </v>
   <v>       0.48754962      -0.24818958      -0.24833513 </v>
   <v>      -0.49946829      -0.00121052       0.25200022 </v>
   <v>      -0.24084336      -0.00457361      -0.25571265 </v>
   <v>       0.24724578       0.23942425       0.49853683 </v>
   <v>      -0.24355148      -0.49911199      -0.25757394 </v>
   <v>       0.49353476       0.25848130       0.24168594 </v>
   <v>       0.00576896       0.49565395       0.25150110 </v>
   <v>       0.25223365       0.49744187       0.00243663 </v>
   <v>       0.25234469       0.49594129       0.24637077 </v>
   <v>       0.00935952       0.24307440       0.25488047 </v>
   <v>      -0.25461051      -0.49560158       0.00830512 </v>
   <v>      -0.00429530       0.25200618       0.49500426 </v>
   <v>       0.25484182       0.00825473       0.24253013 </v>
   <v>       0.24756582      -0.01032476       0.49803079 </v>
   <v>       0.24420477       0.26499754      -0.00334697 </v>
   <v>      -0.49303557      -0.25784893       0.00282962 </v>
   <v>      -0.48129937      -0.00939654      -0.25505258 </v>
   <v>      -0.18373164      -0.44575969      -0.18895615 </v>
   <v>       0.29486769      -0.42151577       0.31981142 </v>
   <v>      -0.18355323       0.30768577       0.30834535 </v>
   <v>      -0.18937402      -0.18406207      -0.18486418 </v>
   <v>      -0.44349566       0.31968027       0.30302521 </v>
   <v>      -0.18887683      -0.18914163      -0.43682563 </v>
   <v>      -0.18043335       0.31682292      -0.44473657 </v>
   <v>      -0.43982496      -0.18875046      -0.19358062 </v>
   <v>      -0.45002199       0.31046473      -0.17854105 </v>
   <v>       0.30887810       0.31740199      -0.43640723 </v>
   <v>       0.32191119       0.30571523      -0.19227844 </v>
   <v>      -0.44524610      -0.18775482       0.31570729 </v>
   <v>       0.31454759      -0.44198187      -0.18602426 </v>
   <v>      -0.19443246      -0.44165304       0.30992118 </v>
   <v>       0.31264765      -0.17696481       0.31608734 </v>
   <v>       0.31554481      -0.18613321      -0.45119354 </v>
   <v>      -0.48872850       0.49444039      -0.00499051 </v>
   <v>       0.48369285       0.00167755      -0.49127886 </v>
   <v>       0.49201387      -0.00076559      -0.00034887 </v>
   <v>      -0.00176952      -0.49691341      -0.01052351 </v>
   <v>      -0.00312221       0.49911784      -0.49705432 </v>
   <v>       0.00422014       0.00764026       0.49188059 </v>
   <v>      -0.42664704       0.05301152      -0.17461192 </v>
   <v>      -0.43223147      -0.44816579       0.05607093 </v>
   <v>      -0.42932013      -0.18975785       0.06094895 </v>
   <v>      -0.43249825      -0.18185599      -0.43823802 </v>
   <v>       0.06811265      -0.18556173      -0.43715111 </v>
   <v>      -0.18862569      -0.43219971       0.06036732 </v>
   <v>      -0.18628562       0.06676088      -0.43842409 </v>
   <v>      -0.19863297      -0.41809142      -0.42877261 </v>
   <v>      -0.43933077      -0.43055447      -0.18513885 </v>
   <v>       0.05511038      -0.42068631      -0.43232030 </v>
   <v>      -0.43829972       0.07078754      -0.43865518 </v>
   <v>       0.06070678      -0.43333302      -0.20185484 </v>
   <v>      -0.24015901      -0.49778211       0.23736723 </v>
   <v>      -0.25538851       0.25608518       0.48929404 </v>
   <v>       0.24444575      -0.24887126      -0.49216737 </v>
   <v>      -0.49636859       0.49856788      -0.25173419 </v>
   <v>       0.49851035       0.25126077      -0.24809991 </v>
   <v>       0.25542146       0.49156604      -0.25358680 </v>
   <v>      -0.49154505       0.25596527       0.49726025 </v>
   <v>      -0.25651806      -0.49484202      -0.49941345 </v>
   <v>       0.48819587       0.49683483       0.25629257 </v>
   <v>       0.49338275      -0.25526350       0.25401929 </v>
   <v>       0.24969848      -0.49173164       0.49872946 </v>
   <v>      -0.49823306      -0.26134435      -0.49307503 </v>
   <v>       0.06411623       0.31870852       0.31734424 </v>
   <v>       0.31290743       0.31243492       0.06160170 </v>
   <v>       0.31326689       0.06006820       0.31129178 </v>
   <v>       0.31010567       0.31882229       0.31370714 </v>
   <v>      -0.24680491      -0.25783172      -0.25125107 </v>
   <v>       0.25267710       0.25006049       0.24362506 </v>
   <v>      -0.44134016      -0.44124005      -0.43312774 </v>
   <v>      -0.43965145      -0.43466681       0.31000445 </v>
   <v>       0.31801429      -0.44361256      -0.43239229 </v>
   <v>      -0.45232431       0.32831038      -0.44140098 </v>
   <v>       0.49428511      -0.49735821       0.49986642 </v>
  </varray>
 </structure>
 <varray name="primitive_index" >
  <v type="int" >        1 </v>
  <v type="int" >      113 </v>
  <v type="int" >       65 </v>
  <v type="int" >       68 </v>
  <v type="int" >       77 </v>
  <v type="int" >       17 </v>
  <v type="int" >       53 </v>
  <v type="int" >        4 </v>
  <v type="int" >       14 </v>
  <v type="int" >        5 </v>
  <v type="int" >       13 </v>
  <v type="int" >       20 </v>
  <v type="int" >        8 </v>
  <v type="int" >       29 </v>
  <v type="int" >       49 </v>
  <v type="int" >       50 </v>
  <v type="int" >        2 </v>
  <v type="int" >      120 </v>
  <v type="int" >      116 </v>
  <v type="int" >      126 </v>
  <v type="int" >       93 </v>
  <v type="int" >       72 </v>
  <v type="int" >      117 </v>
  <v type="int" >      125 </v>
  <v type="int" >       78 </v>
  <v type="int" >       80 </v>
  <v type="int" >       96 </v>
  <v type="int" >       84 </v>
  <v type="int" >      114 </v>
  <v type="int" >       30 </v>
  <v type="int" >       32 </v>
  <v type="int" >       24 </v>
  <v type="int" >       56 </v>
  <v type="int" >       62 </v>
  <v type="int" >       54 </v>
  <v type="int" >      101 </v>
  <v type="int" >       97 </v>
  <v type="int" >       98 </v>
  <v type="int" >       73 </v>
  <v type="int" >       83 </v>
  <v type="int" >       66 </v>
  <v type="int" >       69 </v>
  <v type="int" >       71 </v>
  <v type="int" >       81 </v>
  <v type="int" >       67 </v>
  <v type="int" >       89 </v>
  <v type="int" >       74 </v>
  <v type="int" >       36 </v>
  <v type="int" >       61 </v>
  <v type="int" >       48 </v>
  <v type="int" >       45 </v>
  <v type="int" >       16 </v>
  <v type="int" >       57 </v>
  <v type="int" >        7 </v>
  <v type="int" >       63 </v>
  <v type="int" >       19 </v>
  <v type="int" >       52 </v>
  <v type="int" >       38 </v>
  <v type="int" >       60 </v>
  <v type="int" >       23 </v>
  <v type="int" >       25 </v>
  <v type="int" >       10 </v>
  <v type="int" >       26 </v>
  <v type="int" >       21 </v>
  <v type="int" >       12 </v>
  <v type="int" >       37 </v>
  <v type="int" >       18 </v>
  <v type="int" >       34 </v>
  <v type="int" >        6 </v>
  <v type="int" >       15 </v>
  <v type="int" >       51 </v>
  <v type="int" >      124 </v>
  <v type="int" >       90 </v>
  <v type="int" >       88 </v>
  <v type="int" >      128 </v>
  <v type="int" >       87 </v>
  <v type="int" >      112 </v>
  <v type="int" >      104 </v>
  <v type="int" >      127 </v>
  <v type="int" >      119 </v>
  <v type="int" >      102 </v>
  <v type="int" >      118 </v>
  <v type="int" >       95 </v>
  <v type="int" >      122 </v>
  <v type="int" >       92 </v>
  <v type="int" >       94 </v>
  <v type="int" >      110 </v>
  <v type="int" >       11 </v>
  <v type="int" >       35 </v>
  <v type="int" >        3 </v>
  <v type="int" >        9 </v>
  <v type="int" >       41 </v>
  <v type="int" >       33 </v>
  <v type="int" >      115 </v>
  <v type="int" >       75 </v>
  <v type="int" >       79 </v>
  <v type="int" >      111 </v>
  <v type="int" >      109 </v>
  <v type="int" >       76 </v>
  <v type="int" >      100 </v>
  <v type="int" >      108 </v>
  <v type="int" >      123 </v>
  <v type="int" >      105 </v>
  <v type="int" >       99 </v>
  <v type="int" >      121 </v>
  <v type="int" >       28 </v>
  <v type="int" >       40 </v>
  <v type="int" >       46 </v>
  <v type="int" >       59 </v>
  <v type="int" >       55 </v>
  <v type="int" >       58 </v>
  <v type="int" >       39 </v>
  <v type="int" >       44 </v>
  <v type="int" >       27 </v>
  <v type="int" >       31 </v>
  <v type="int" >       42 </v>
  <v type="int" >       47 </v>
  <v type="int" >       85 </v>
  <v type="int" >       70 </v>
  <v type="int" >       82 </v>
  <v type="int" >       86 </v>
  <v type="int" >       64 </v>
  <v type="int" >       22 </v>
  <v type="int" >      107 </v>
  <v type="int" >       91 </v>
  <v type="int" >      106 </v>
  <v type="int" >      103 </v>
  <v type="int" >       43 </v>
 </varray>
 <kpoints>
  <generation param="Gamma">
   <v type="int" name="divisions">       2        2        2 </v>
   <v name="usershift">      0.00000000       0.00000000       0.00000000 </v>
   <v name="genvec1">      0.50000000       0.00000000       0.00000000 </v>
   <v name="genvec2">      0.00000000       0.50000000       0.00000000 </v>
   <v name="genvec3">      0.00000000       0.00000000       0.50000000 </v>
   <v name="shift">      0.00000000       0.00000000       0.00000000 </v>
  </generation>
  <varray name="kpointlist" >
   <v>       0.00000000       0.00000000       0.00000000 </v>
   <v>       0.50000000       0.00000000       0.00000000 </v>
   <v>       0.00000000       0.50000000       0.00000000 </v>
   <v>       0.50000000       0.50000000       0.00000000 </v>
   <v>       0.00000000       0.00000000       0.50000000 </v>
   <v>       0.50000000       0.00000000       0.50000000 </v>
   <v>       0.00000000       0.50000000       0.50000000 </v>
   <v>       0.50000000       0.50000000       0.50000000 </v>
  </varray>
  <varray name="weights" >
   <v>       0.12500000 </v>
   <v>       0.12500000 </v>
   <v>       0.12500000 </v>
   <v>       0.12500000 </v>
   <v>       0.12500000 </v>
   <v>       0.12500000 </v>
   <v>       0.12500000 </v>
   <v>       0.12500000 </v>
  </varray>
 </kpoints>
 <parameters>
  <separator name="general" >
   <i type="string" name="SYSTEM">potpaw_PBE@./ARUN.APL1ZEROSTATE</i>
   <i type="logical" name="LCOMPAT"> F  </i>
  </separator>
  <separator name="electronic" >
   <i type="string" name="PREC">accura</i>
   <i name="ENMAX">    500.00000000</i>
   <i name="ENAUG">    322.06900000</i>
   <i name="EDIFF">      0.00000001</i>
   <i type="int" name="IALGO">    38</i>
   <i type="int" name="IWAVPR">    10</i>
   <i type="int" name="NBANDS">   322</i>
   <i name="NELECT">    512.00000000</i>
   <i type="int" name="TURBO">     0</i>
   <i type="int" name="IRESTART">     0</i>
   <i type="int" name="NREBOOT">     0</i>
   <i type="int" name="NMIN">     0</i>
   <i name="EREF">      0.00000000</i>
   <separator name="electronic smearing" >
    <i type="int" name="ISMEAR">     0</i>
    <i name="SIGMA">      0.01000000</i>
    <i name="KSPACING">      0.50000000</i>
    <i type="logical" name="KGAMMA"> T  </i>
   </separator>
   <separator name="electronic projectors" >
    <i type="logical" name="LREAL"> F  </i>
    <v name="ROPT">      0.00000000</v>
    <i type="int" name="LMAXPAW">  -100</i>
    <i type="int" name="LMAXMIX">     2</i>
    <i type="logical" name="NLSPLINE"> F  </i>
   </separator>
   <separator name="electronic startup" >
    <i type="int" name="ISTART">     0</i>
    <i type="int" name="ICHARG">     2</i>
    <i type="int" name="INIWAV">     1</i>
   </separator>
   <separator name="electronic spin" >
    <i type="int" name="ISPIN">     1</i>
    <i type="logical" name="LNONCOLLINEAR"> F  </i>
    <v name="MAGMOM">      1.00000000      1.00000000      1.00000000      1.00000000      1.00000000      1.00000000      1.00000000      1.00000000      1.00000000      1.00000000      1.00000000      1.00000000      1.00000000      1.00000000      1.00000000      1.00000000      1.00000000      1.00000000      1.00000000      1.00000000
      1.00000000      1.00000000      1.00000000      1.00000000      1.00000000      1.00000000      1.00000000      1.00000000      1.00000000      1.00000000      1.00000000      1.00000000      1.00000000      1.00000000      1.00000000      1.00000000      1.00000000      1.00000000      1.00000000      1.00000000
      1.00000000      1.00000000      1.00000000      1.00000000      1.00000000      1.00000000      1.00000000      1.00000000      1.00000000      1.00000000      1.00000000      1.00000000      1.00000000      1.00000000      1.00000000      1.00000000      1.00000000      1.00000000      1.00000000      1.00000000
      1.00000000      1.00000000      1.00000000      1.00000000      1.00000000      1.00000000      1.00000000      1.00000000      1.00000000      1.00000000      1.00000000      1.00000000      1.00000000      1.00000000      1.00000000      1.00000000      1.00000000      1.00000000      1.00000000      1.00000000
      1.00000000      1.00000000      1.00000000      1.00000000      1.00000000      1.00000000      1.00000000      1.00000000      1.00000000      1.00000000      1.00000000      1.00000000      1.00000000      1.00000000      1.00000000      1.00000000      1.00000000      1.00000000      1.00000000      1.00000000
      1.00000000      1.00000000      1.00000000      1.00000000      1.00000000      1.00000000      1.00000000      1.00000000      1.00000000      1.00000000      1.00000000      1.00000000      1.00000000      1.00000000      1.00000000      1.00000000      1.00000000      1.00000000      1.00000000      1.00000000
      1.00000000      1.00000000      1.00000000      1.00000000      1.00000000      1.00000000      1.00000000      1.00000000</v>
    <i name="NUPDOWN">     -1.00000000</i>
    <i type="logical" name="LSORBIT"> F  </i>
    <v name="SAXIS">      0.00000000      0.00000000      1.00000000</v>
    <i type="logical" name="LSPIRAL"> F  </i>
    <v name="QSPIRAL">      0.00000000      0.00000000      0.00000000</v>
    <i type="logical" name="LZEROZ"> F  </i>
   </separator>
   <separator name="electronic exchange-correlation" >
    <i type="logical" name="LASPH"> F  </i>
    <i type="logical" name="LMETAGGA"> F  </i>
   </separator>
   <separator name="electronic convergence" >
    <i type="int" name="NELM">   120</i>
    <i type="int" name="NELMDL">    -5</i>
    <i type="int" name="NELMIN">     4</i>
    <i name="ENINI">    500.00000000</i>
    <separator name="electronic convergence detail" >
     <i type="logical" name="LDIAG"> T  </i>
     <i type="logical" name="LSUBROT"> F  </i>
     <i name="WEIMIN">      0.00000000</i>
     <i name="EBREAK">      0.00000000</i>
     <i name="DEPER">      0.30000000</i>
     <i type="int" name="NRMM">     4</i>
     <i name="TIME">      0.40000000</i>
    </separator>
   </separator>
   <separator name="electronic mixer" >
    <i name="AMIX">      0.40000000</i>
    <i name="BMIX">      1.00000000</i>
    <i name="AMIN">      0.10000000</i>
    <i name="AMIX_MAG">      1.60000000</i>
    <i name="BMIX_MAG">      1.00000000</i>
    <separator name="electronic mixer details" >
     <i type="int" name="IMIX">     4</i>
     <i type="logical" name="MIXFIRST"> F  </i>
     <i type="int" name="MAXMIX">   -45</i>
     <i name="WC">    100.00000000</i>
     <i type="int" name="INIMIX">     1</i>
     <i type="int" name="MIXPRE">     1</i>
     <i type="int" name="MREMOVE">     5</i>
    </separator>
   </separator>
   <separator name="electronic dipolcorrection" >
    <i type="logical" name="LDIPOL"> F  </i>
    <i type="logical" name="LMONO"> F  </i>
    <i type="int" name="IDIPOL">     0</i>
    <i name="EPSILON">      1.00000000</i>
    <v name="DIPOL">   -100.00000000   -100.00000000   -100.00000000</v>
    <i name="EFIELD">      0.00000000</i>
   </separator>
  </separator>
  <separator name="grids" >
   <i type="int" name="NGX">   120</i>
   <i type="int" name="NGY">   120</i>
   <i type="int" name="NGZ">   120</i>
   <i type="int" name="NGXF">   240</i>
   <i type="int" name="NGYF">   240</i>
   <i type="int" name="NGZF">   240</i>
   <i type="logical" name="ADDGRID"> T  </i>
  </separator>
  <separator name="ionic" >
   <i type="int" name="NSW">     0</i>
   <i type="int" name="IBRION">    -1</i>
   <i type="int" name="MDALGO">     0</i>
   <i type="int" name="ISIF">     2</i>
   <i name="PSTRESS">      0.00000000</i>
   <i name="EDIFFG">      0.00000010</i>
   <i type="int" name="NFREE">     0</i>
   <i name="POTIM">      0.50000000</i>
   <i name="SMASS">     -3.00000000</i>
   <i name="SCALEE">      1.00000000</i>
  </separator>
  <separator name="ionic md" >
   <i name="TEBEG">      0.00010000</i>
   <i name="TEEND">      0.00010000</i>
   <i type="int" name="NBLOCK">     1</i>
   <i type="int" name="KBLOCK">     1</i>
   <i type="int" name="NPACO">   256</i>
   <i name="APACO">     16.00000000</i>
  </separator>
  <separator name="symmetry" >
   <i type="int" name="ISYM">     2</i>
   <i name="SYMPREC">      0.00001000</i>
  </separator>
  <separator name="dos" >
   <i type="int" name="LORBIT">     0</i>
   <v name="RWIGS">     -1.00000000</v>
   <i type="int" name="NEDOS">   301</i>
   <i name="EMIN">     10.00000000</i>
   <i name="EMAX">    -10.00000000</i>
   <i name="EFERMI">      0.00000000</i>
  </separator>
  <separator name="writing" >
   <i type="int" name="NWRITE">     2</i>
   <i type="logical" name="LWAVE"> F  </i>
   <i type="logical" name="LDOWNSAMPLE"> F  </i>
   <i type="logical" name="LCHARG"> F  </i>
   <i type="logical" name="LPARD"> F  </i>
   <i type="logical" name="LVTOT"> F  </i>
   <i type="logical" name="LVHAR"> F  </i>
   <i type="logical" name="LELF"> F  </i>
   <i type="logical" name="LOPTICS"> F  </i>
   <v name="STM">      0.00000000      0.00000000      0.00000000      0.00000000      0.00000000      0.00000000      0.00000000</v>
  </separator>
  <separator name="performance" >
   <i type="int" name="NPAR">     2</i>
   <i type="int" name="NSIM">     4</i>
   <i type="int" name="NBLK">    -1</i>
   <i type="logical" name="LPLANE"> T  </i>
   <i type="logical" name="LSCALAPACK"> T  </i>
   <i type="logical" name="LSCAAWARE"> F  </i>
   <i type="logical" name="LSCALU"> F  </i>
   <i type="logical" name="LASYNC"> F  </i>
   <i type="logical" name="LORBITALREAL"> F  </i>
  </separator>
  <separator name="miscellaneous" >
   <i type="int" name="IDIOT">     3</i>
   <i type="int" name="ISPECIAL">     0</i>
   <i type="logical" name="LMUSIC"> F  </i>
   <v name="POMASS">     28.08500000</v>
   <v name="DARWINR">      0.00000000</v>
   <v name="DARWINV">      1.00000000</v>
   <i type="logical" name="LCORR"> T  </i>
  </separator>
  <i type="logical" name="GGA_COMPAT"> T  </i>
  <i type="logical" name="LBERRY"> F  </i>
  <i type="int" name="ICORELEVEL">     0</i>
  <i type="logical" name="LDAU"> F  </i>
  <i type="int" name="I_CONSTRAINED_M">     0</i>
  <separator name="electronic exchange-correlation" >
   <i type="string" name="GGA">--</i>
   <i type="int" name="VOSKOWN">     0</i>
   <i type="logical" name="LHFCALC"> F  </i>
   <i type="string" name="PRECFOCK"></i>
   <i type="logical" name="LSYMGRAD"> F  </i>
   <i type="logical" name="LHFONE"> F  </i>
   <i type="logical" name="LRHFCALC"> F  </i>
   <i type="logical" name="LTHOMAS"> F  </i>
   <i type="logical" name="LMODELHF"> F  </i>
   <i name="ENCUT4O">     -1.00000000</i>
   <i type="int" name="EXXOEP">     0</i>
   <i type="int" name="FOURORBIT">     0</i>
   <i name="AEXX">      0.00000000</i>
   <i name="HFALPHA">      0.00000000</i>
   <i name="MCALPHA">      0.00000000</i>
   <i name="ALDAX">      1.00000000</i>
   <i name="AGGAX">      1.00000000</i>
   <i name="ALDAC">      1.00000000</i>
   <i name="AGGAC">      1.00000000</i>
   <i type="int" name="NKREDX">     1</i>
   <i type="int" name="NKREDY">     1</i>
   <i type="int" name="NKREDZ">     1</i>
   <i type="logical" name="SHIFTRED"> F  </i>
   <i type="logical" name="ODDONLY"> F  </i>
   <i type="logical" name="EVENONLY"> F  </i>
   <i type="int" name="LMAXFOCK">     0</i>
   <i type="int" name="NMAXFOCKAE">     0</i>
   <i type="logical" name="LFOCKAEDFT"> F  </i>
   <i name="HFSCREEN">      0.00000000</i>
   <i name="HFSCREENC">      0.00000000</i>
   <i type="int" name="NBANDSGWLOW">     0</i>
  </separator>
  <separator name="vdW DFT" >
   <i type="logical" name="LUSE_VDW"> F  </i>
   <i name="Zab_VDW">     -0.84910000</i>
   <i name="PARAM1">      0.12340000</i>
   <i name="PARAM2">      1.00000000</i>
   <i name="PARAM3">      0.00000000</i>
  </separator>
  <separator name="model GW" >
   <i type="int" name="MODEL_GW">     0</i>
   <i name="MODEL_EPS0">     12.26607635</i>
   <i name="MODEL_ALPHA">      1.00000000</i>
  </separator>
  <separator name="linear response parameters" >
   <i type="logical" name="LEPSILON"> F  </i>
   <i type="logical" name="LRPA"> F  </i>
   <i type="logical" name="LNABLA"> F  </i>
   <i type="logical" name="LVEL"> F  </i>
   <i type="int" name="KINTER">     0</i>
   <i name="CSHIFT">      0.10000000</i>
   <i name="OMEGAMAX">     -1.00000000</i>
   <i name="DEG_THRESHOLD">      0.00200000</i>
   <i name="RTIME">     -0.10000000</i>
   <i name="WPLASMAI">      0.00000000</i>
   <v name="DFIELD">      0.00000000      0.00000000      0.00000000</v>
   <v name="WPLASMA">      0.00000000      0.00000000      0.00000000      0.00000000      0.00000000      0.00000000      0.00000000      0.00000000      0.00000000</v>
  </separator>
  <separator name="orbital magnetization" >
   <i type="logical" name="NUCIND"> F  </i>
   <v name="MAGPOS">      0.00000000      0.00000000      0.00000000</v>
   <i type="logical" name="LNICSALL"> T  </i>
   <i type="logical" name="ORBITALMAG"> F  </i>
   <i type="logical" name="LMAGBLOCH"> F  </i>
   <i type="logical" name="LCHIMAG"> F  </i>
   <i type="logical" name="LGAUGE"> T  </i>
   <i type="int" name="MAGATOM">     0</i>
   <v name="MAGDIPOL">      0.00000000      0.00000000      0.00000000</v>
   <v name="AVECCONST">      0.00000000      0.00000000      0.00000000</v>
  </separator>
  <separator name="response functions" >
   <i type="logical" name="LADDER"> F  </i>
   <i type="logical" name="LRPAFORCE"> F  </i>
   <i type="logical" name="LFXC"> F  </i>
   <i type="logical" name="LHARTREE"> T  </i>
   <i type="int" name="IBSE">     0</i>
   <v type="int" name="KPOINT">    -1     0     0     0</v>
   <i type="logical" name="LTCTE"> F  </i>
   <i type="logical" name="LTETE"> F  </i>
   <i type="logical" name="LTRIPLET"> F  </i>
   <i type="logical" name="LFXCEPS"> F  </i>
   <i type="logical" name="LFXHEG"> F  </i>
   <i type="int" name="NATURALO">     2</i>
   <i type="logical" name="L2ORDER"> F  </i>
   <i type="logical" name="LMP2LT"> F  </i>
   <i type="logical" name="LUSEW"> F  </i>
   <i name="ENCUTGW">     -2.00000000</i>
   <i name="ENCUTGWSOFT">     -2.00000000</i>
   <i name="ENCUTLF">     -1.00000000</i>
   <i type="int" name="LMAXMP2">    -1</i>
   <i name="SCISSOR">      0.00000000</i>
   <i type="int" name="NOMEGA">     0</i>
   <i type="int" name="NOMEGAR">     0</i>
   <i type="int" name="NBANDSGW">    -1</i>
   <i type="int" name="NBANDSO">    -1</i>
   <i type="int" name="NBANDSV">    -1</i>
   <i type="int" name="NELM">   120</i>
   <i type="int" name="NELMHF">     1</i>
   <i type="int" name="DIM">     3</i>
   <i type="int" name="ANTIRES">     0</i>
   <i name="OMEGAMAX">    -30.00000000</i>
   <i name="OMEGAMIN">    -30.00000000</i>
   <i name="OMEGATL">   -200.00000000</i>
   <i type="int" name="OMEGAGRID">   140</i>
   <i name="CSHIFT">     -0.10000000</i>
   <i type="logical" name="SELFENERGY"> F  </i>
   <i type="logical" name="LSPECTRAL"> F  </i>
   <i type="logical" name="LSPECTRALGW"> F  </i>
   <i type="logical" name="LSINGLES"> F  </i>
   <i type="logical" name="LFERMIGW"> F  </i>
   <i type="logical" name="ODDONLYGW"> F  </i>
   <i type="logical" name="EVENONLYGW"> F  </i>
   <i type="int" name="NKREDLFX">     1</i>
   <i type="int" name="NKREDLFY">     1</i>
   <i type="int" name="NKREDLFZ">     1</i>
   <i type="int" name="MAXMEM">  2800</i>
   <i type="int" name="TELESCOPE">     0</i>
   <i type="int" name="TAUPAR">     1</i>
   <i type="int" name="OMEGAPAR">    -1</i>
   <i name="LAMBDA">      1.00000000</i>
  </separator>
  <separator name="External order field" >
   <i name="OFIELD_KAPPA">      0.00000000</i>
   <v name="OFIELD_K">      0.00000000      0.00000000      0.00000000</v>
   <i name="OFIELD_Q6_NEAR">      0.00000000</i>
   <i name="OFIELD_Q6_FAR">      0.00000000</i>
   <i name="OFIELD_A">      0.00000000</i>
  </separator>
 </parameters>
 <atominfo>
  <atoms>     128 </atoms>
  <types>       1 </types>
  <array name="atoms" >
   <dimension dim="1">ion</dimension>
   <field type="string">element</field>
   <field type="int">atomtype</field>
   <set>
    <rc><c>Si</c><c>   1</c></rc>
    <rc><c>Si</c><c>   1</c></rc>
    <rc><c>Si</c><c>   1</c></rc>
    <rc><c>Si</c><c>   1</c></rc>
    <rc><c>Si</c><c>   1</c></rc>
    <rc><c>Si</c><c>   1</c></rc>
    <rc><c>Si</c><c>   1</c></rc>
    <rc><c>Si</c><c>   1</c></rc>
    <rc><c>Si</c><c>   1</c></rc>
    <rc><c>Si</c><c>   1</c></rc>
    <rc><c>Si</c><c>   1</c></rc>
    <rc><c>Si</c><c>   1</c></rc>
    <rc><c>Si</c><c>   1</c></rc>
    <rc><c>Si</c><c>   1</c></rc>
    <rc><c>Si</c><c>   1</c></rc>
    <rc><c>Si</c><c>   1</c></rc>
    <rc><c>Si</c><c>   1</c></rc>
    <rc><c>Si</c><c>   1</c></rc>
    <rc><c>Si</c><c>   1</c></rc>
    <rc><c>Si</c><c>   1</c></rc>
    <rc><c>Si</c><c>   1</c></rc>
    <rc><c>Si</c><c>   1</c></rc>
    <rc><c>Si</c><c>   1</c></rc>
    <rc><c>Si</c><c>   1</c></rc>
    <rc><c>Si</c><c>   1</c></rc>
    <rc><c>Si</c><c>   1</c></rc>
    <rc><c>Si</c><c>   1</c></rc>
    <rc><c>Si</c><c>   1</c></rc>
    <rc><c>Si</c><c>   1</c></rc>
    <rc><c>Si</c><c>   1</c></rc>
    <rc><c>Si</c><c>   1</c></rc>
    <rc><c>Si</c><c>   1</c></rc>
    <rc><c>Si</c><c>   1</c></rc>
    <rc><c>Si</c><c>   1</c></rc>
    <rc><c>Si</c><c>   1</c></rc>
    <rc><c>Si</c><c>   1</c></rc>
    <rc><c>Si</c><c>   1</c></rc>
    <rc><c>Si</c><c>   1</c></rc>
    <rc><c>Si</c><c>   1</c></rc>
    <rc><c>Si</c><c>   1</c></rc>
    <rc><c>Si</c><c>   1</c></rc>
    <rc><c>Si</c><c>   1</c></rc>
    <rc><c>Si</c><c>   1</c></rc>
    <rc><c>Si</c><c>   1</c></rc>
    <rc><c>Si</c><c>   1</c></rc>
    <rc><c>Si</c><c>   1</c></rc>
    <rc><c>Si</c><c>   1</c></rc>
    <rc><c>Si</c><c>   1</c></rc>
    <rc><c>Si</c><c>   1</c></rc>
    <rc><c>Si</c><c>   1</c></rc>
    <rc><c>Si</c><c>   1</c></rc>
    <rc><c>Si</c><c>   1</c></rc>
    <rc><c>Si</c><c>   1</c></rc>
    <rc><c>Si</c><c>   1</c></rc>
    <rc><c>Si</c><c>   1</c></rc>
    <rc><c>Si</c><c>   1</c></rc>
    <rc><c>Si</c><c>   1</c></rc>
    <rc><c>Si</c><c>   1</c></rc>
    <rc><c>Si</c><c>   1</c></rc>
    <rc><c>Si</c><c>   1</c></rc>
    <rc><c>Si</c><c>   1</c></rc>
    <rc><c>Si</c><c>   1</c></rc>
    <rc><c>Si</c><c>   1</c></rc>
    <rc><c>Si</c><c>   1</c></rc>
    <rc><c>Si</c><c>   1</c></rc>
    <rc><c>Si</c><c>   1</c></rc>
    <rc><c>Si</c><c>   1</c></rc>
    <rc><c>Si</c><c>   1</c></rc>
    <rc><c>Si</c><c>   1</c></rc>
    <rc><c>Si</c><c>   1</c></rc>
    <rc><c>Si</c><c>   1</c></rc>
    <rc><c>Si</c><c>   1</c></rc>
    <rc><c>Si</c><c>   1</c></rc>
    <rc><c>Si</c><c>   1</c></rc>
    <rc><c>Si</c><c>   1</c></rc>
    <rc><c>Si</c><c>   1</c></rc>
    <rc><c>Si</c><c>   1</c></rc>
    <rc><c>Si</c><c>   1</c></rc>
    <rc><c>Si</c><c>   1</c></rc>
    <rc><c>Si</c><c>   1</c></rc>
    <rc><c>Si</c><c>   1</c></rc>
    <rc><c>Si</c><c>   1</c></rc>
    <rc><c>Si</c><c>   1</c></rc>
    <rc><c>Si</c><c>   1</c></rc>
    <rc><c>Si</c><c>   1</c></rc>
    <rc><c>Si</c><c>   1</c></rc>
    <rc><c>Si</c><c>   1</c></rc>
    <rc><c>Si</c><c>   1</c></rc>
    <rc><c>Si</c><c>   1</c></rc>
    <rc><c>Si</c><c>   1</c></rc>
    <rc><c>Si</c><c>   1</c></rc>
    <rc><c>Si</c><c>   1</c></rc>
    <rc><c>Si</c><c>   1</c></rc>
    <rc><c>Si</c><c>   1</c></rc>
    <rc><c>Si</c><c>   1</c></rc>
    <rc><c>Si</c><c>   1</c></rc>
    <rc><c>Si</c><c>   1</c></rc>
    <rc><c>Si</c><c>   1</c></rc>
    <rc><c>Si</c><c>   1</c></rc>
    <rc><c>Si</c><c>   1</c></rc>
    <rc><c>Si</c><c>   1</c></rc>
    <rc><c>Si</c><c>   1</c></rc>
    <rc><c>Si</c><c>   1</c></rc>
    <rc><c>Si</c><c>   1</c></rc>
    <rc><c>Si</c><c>   1</c></rc>
    <rc><c>Si</c><c>   1</c></rc>
    <rc><c>Si</c><c>   1</c></rc>
    <rc><c>Si</c><c>   1</c></rc>
    <rc><c>Si</c><c>   1</c></rc>
    <rc><c>Si</c><c>   1</c></rc>
    <rc><c>Si</c><c>   1</c></rc>
    <rc><c>Si</c><c>   1</c></rc>
    <rc><c>Si</c><c>   1</c></rc>
    <rc><c>Si</c><c>   1</c></rc>
    <rc><c>Si</c><c>   1</c></rc>
    <rc><c>Si</c><c>   1</c></rc>
    <rc><c>Si</c><c>   1</c></rc>
    <rc><c>Si</c><c>   1</c></rc>
    <rc><c>Si</c><c>   1</c></rc>
    <rc><c>Si</c><c>   1</c></rc>
    <rc><c>Si</c><c>   1</c></rc>
    <rc><c>Si</c><c>   1</c></rc>
    <rc><c>Si</c><c>   1</c></rc>
    <rc><c>Si</c><c>   1</c></rc>
    <rc><c>Si</c><c>   1</c></rc>
    <rc><c>Si</c><c>   1</c></rc>
    <rc><c>Si</c><c>   1</c></rc>
    <rc><c>Si</c><c>   1</c></rc>
   </set>
  </array>
  <array name="atomtypes" >
   <dimension dim="1">type</dimension>
   <field type="int">atomspertype</field>
   <field type="string">element</field>
   <field>mass</field>
   <field>valence</field>
   <field type="string">pseudopotential</field>
   <set>
    <rc><c> 128</c><c>Si</c><c>     28.08500000</c><c>      4.00000000</c><c> PAW_PBE Si 05Jan2001                   </c></rc>
   </set>
  </array>
 </atominfo>
 <structure name="initialpos" >
  <crystal>
   <varray name="basis" >
    <v>       0.00000000      10.93733369      10.93733369 </v>
    <v>      10.93733369       0.00000000      10.93733369 </v>
    <v>      10.93733369      10.93733369       0.00000000 </v>
   </varray>
   <i name="volume">   2616.76295363 </i>
   <varray name="rec_basis" >
    <v>      -0.04571498       0.04571498       0.04571498 </v>
    <v>       0.04571498      -0.04571498       0.04571498 </v>
    <v>       0.04571498       0.04571498      -0.04571498 </v>
   </varray>
  </crystal>
  <varray name="positions" >
   <v>       0.99555173       0.00136898       0.00070106 </v>
   <v>       0.24992142       0.99606376       0.00801063 </v>
   <v>       0.49201387       0.99923441       0.99965113 </v>
   <v>       0.75425023       0.00384543       0.99719351 </v>
   <v>       0.00504696       0.24615216       0.99618284 </v>
   <v>       0.24420477       0.26499754       0.99665303 </v>
   <v>       0.50504766       0.25184354       0.99196604 </v>
   <v>       0.74844416       0.25353872       0.00002831 </v>
   <v>       0.99823048       0.50308659       0.98947649 </v>
   <v>       0.25223365       0.49744187       0.00243663 </v>
   <v>       0.51127150       0.49444039       0.99500949 </v>
   <v>       0.74538949       0.50439842       0.00830512 </v>
   <v>       0.00798501       0.74942089       0.99588474 </v>
   <v>       0.23691381       0.75682141       0.99744701 </v>
   <v>       0.50696443       0.74215107       0.00282962 </v>
   <v>       0.75732339       0.74578764       0.00473712 </v>
   <v>       0.00000086       0.99761642       0.23648270 </v>
   <v>       0.25484182       0.00825473       0.24253013 </v>
   <v>       0.50053171       0.99878948       0.25200022 </v>
   <v>       0.74979116       0.00270918       0.25336620 </v>
   <v>       0.00935952       0.24307440       0.25488047 </v>
   <v>       0.25267710       0.25006049       0.24362506 </v>
   <v>       0.49353476       0.25848130       0.24168594 </v>
   <v>       0.74282518       0.25344402       0.24981932 </v>
   <v>       0.00576896       0.49565395       0.25150110 </v>
   <v>       0.25234469       0.49594129       0.24637077 </v>
   <v>       0.48819587       0.49683483       0.25629257 </v>
   <v>       0.75984099       0.50221789       0.23736723 </v>
   <v>       0.99759719       0.74464477       0.24685505 </v>
   <v>       0.24255535       0.75778352       0.24382649 </v>
   <v>       0.49338275       0.74473650       0.25401929 </v>
   <v>       0.74509028       0.75370620       0.25529062 </v>
   <v>       0.00422014       0.00764026       0.49188059 </v>
   <v>       0.24756582       0.98967524       0.49803079 </v>
   <v>       0.48369285       0.00167755       0.50872114 </v>
   <v>       0.77387946       0.98558671       0.48968898 </v>
   <v>       0.99570470       0.25200618       0.49500426 </v>
   <v>       0.24724578       0.23942425       0.49853683 </v>
   <v>       0.50845495       0.25596527       0.49726025 </v>
   <v>       0.74461149       0.25608518       0.48929404 </v>
   <v>       0.99687779       0.49911784       0.50294568 </v>
   <v>       0.24969848       0.50826836       0.49872946 </v>
   <v>       0.49428511       0.50264179       0.49986642 </v>
   <v>       0.74348194       0.50515798       0.50058655 </v>
   <v>       0.99526677       0.76207950       0.48948615 </v>
   <v>       0.24444575       0.75112874       0.50783263 </v>
   <v>       0.50176694       0.73865565       0.50692497 </v>
   <v>       0.75820845       0.75138941       0.48997118 </v>
   <v>       0.99757740       0.00048370       0.74852287 </v>
   <v>       0.25496870       0.99846692       0.75546410 </v>
   <v>       0.51870063       0.99060346       0.74494742 </v>
   <v>       0.75915664       0.99542639       0.74428735 </v>
   <v>       0.00064814       0.24561272       0.76219823 </v>
   <v>       0.25671188       0.25340384       0.75212765 </v>
   <v>       0.49851035       0.25126077       0.75190009 </v>
   <v>       0.73609828       0.26264055       0.74894931 </v>
   <v>       0.99955415       0.49269012       0.74919096 </v>
   <v>       0.25542146       0.49156604       0.74641320 </v>
   <v>       0.50363141       0.49856788       0.74826581 </v>
   <v>       0.75644852       0.50088801       0.74242606 </v>
   <v>       0.00238869       0.75362746       0.75625848 </v>
   <v>       0.26436956       0.74290709       0.74805656 </v>
   <v>       0.48754962       0.75181042       0.75166487 </v>
   <v>       0.75319509       0.74216828       0.74874893 </v>
   <v>       0.06100863       0.06702000       0.05107381 </v>
   <v>       0.30911624       0.05340077       0.07004722 </v>
   <v>       0.55706490       0.06340611       0.06722319 </v>
   <v>       0.80400599       0.07258525       0.06865766 </v>
   <v>       0.06251590       0.30503070       0.07006003 </v>
   <v>       0.31290743       0.31243492       0.06160170 </v>
   <v>       0.55769830       0.31058114       0.07360486 </v>
   <v>       0.81783417       0.31020090       0.06453995 </v>
   <v>       0.05007258       0.56943120       0.06678234 </v>
   <v>       0.32345531       0.55554563       0.06719033 </v>
   <v>       0.56776853       0.55183421       0.05607093 </v>
   <v>       0.81137431       0.56780029       0.06036732 </v>
   <v>       0.05942339       0.80646857       0.07559515 </v>
   <v>       0.30950039       0.81810488       0.05861936 </v>
   <v>       0.57067987       0.81024215       0.06094895 </v>
   <v>       0.82467595       0.80594191       0.04796289 </v>
   <v>       0.06053191       0.06657348       0.30906728 </v>
   <v>       0.31326689       0.06006820       0.31129178 </v>
   <v>       0.56098088       0.06559483       0.31393288 </v>
   <v>       0.80166169       0.05731184       0.31833572 </v>
   <v>       0.06411623       0.31870852       0.31734424 </v>
   <v>       0.31010567       0.31882229       0.31370714 </v>
   <v>       0.55650434       0.31968027       0.30302521 </v>
   <v>       0.81644677       0.30768577       0.30834535 </v>
   <v>       0.06965554       0.55275411       0.31728422 </v>
   <v>       0.29486769       0.57848423       0.31981142 </v>
   <v>       0.56034855       0.56533319       0.31000445 </v>
   <v>       0.80556754       0.55834696       0.30992118 </v>
   <v>       0.05993325       0.80768921       0.30897067 </v>
   <v>       0.31264765       0.82303519       0.31608734 </v>
   <v>       0.55475390       0.81224518       0.31570729 </v>
   <v>       0.80864304       0.81287070       0.31237506 </v>
   <v>       0.06228810       0.07203940       0.56748993 </v>
   <v>       0.31088029       0.06117228       0.57312661 </v>
   <v>       0.56170028       0.07078754       0.56134482 </v>
   <v>       0.81371438       0.06676088       0.56157591 </v>
   <v>       0.06620289       0.29670047       0.57424306 </v>
   <v>       0.30887810       0.31740199       0.56359277 </v>
   <v>       0.54767569       0.32831038       0.55859902 </v>
   <v>       0.81956665       0.31682292       0.55526343 </v>
   <v>       0.05511038       0.57931369       0.56767970 </v>
   <v>       0.31801429       0.55638744       0.56760771 </v>
   <v>       0.55865984       0.55875995       0.56687226 </v>
   <v>       0.80136703       0.58190858       0.57122739 </v>
   <v>       0.06811265       0.81443827       0.56284889 </v>
   <v>       0.31554481       0.81386679       0.54880646 </v>
   <v>       0.56750175       0.81814401       0.56176198 </v>
   <v>       0.81112317       0.81085837       0.56317437 </v>
   <v>       0.05760545       0.06855436       0.82603158 </v>
   <v>       0.31679192       0.05950057       0.81864918 </v>
   <v>       0.57335296       0.05301152       0.82538808 </v>
   <v>       0.82297744       0.04903229       0.81286303 </v>
   <v>       0.06275060       0.30908203       0.81788797 </v>
   <v>       0.32191119       0.30571523       0.80772156 </v>
   <v>       0.54997801       0.31046473       0.82145895 </v>
   <v>       0.81295951       0.30570822       0.82115533 </v>
   <v>       0.06070678       0.56666698       0.79814516 </v>
   <v>       0.31454759       0.55801813       0.81397574 </v>
   <v>       0.56066923       0.56944553       0.81486115 </v>
   <v>       0.81626836       0.55424031       0.81104385 </v>
   <v>       0.06899046       0.82216285       0.80097074 </v>
   <v>       0.30498069       0.81429424       0.82107443 </v>
   <v>       0.56017504       0.81124954       0.80641938 </v>
   <v>       0.81062598       0.81593793       0.81513582 </v>
  </varray>
 </structure>
 <calculation>
  <scstep>
   <time name="dav">   69.97   70.00</time>
   <time name="total">   70.97   71.01</time>
   <energy>
    <i name="alphaZ">    210.77028614 </i>
    <i name="ewald"> -14474.32016053 </i>
    <i name="hartreedc">   -754.04507548 </i>
    <i name="XCdc">  -1195.37929071 </i>
    <i name="pawpsdc">   4221.13331941 </i>
    <i name="pawaedc">  -1969.18571412 </i>
    <i name="eentropy">     -0.00038988 </i>
    <i name="bandstr">   2151.38527683 </i>
    <i name="atom">  13192.48085998 </i>
    <i name="e_fr_energy">   1382.83911165 </i>
    <i name="e_wo_entrp">   1382.83950153 </i>
    <i name="e_0_energy">   1382.83930659 </i>
   </energy>
  </scstep>
  <scstep>
   <time name="dav">   79.67   79.70</time>
   <time name="total">   79.67   79.71</time>
   <energy>
    <i name="e_fr_energy">   -536.60965052 </i>
    <i name="e_wo_entrp">   -536.60965052 </i>
    <i name="e_0_energy">   -536.60965052 </i>
   </energy>
  </scstep>
  <scstep>
   <time name="dav">   81.32   81.36</time>
   <time name="total">   81.32   81.36</time>
   <energy>
    <i name="e_fr_energy">   -686.42488517 </i>
    <i name="e_wo_entrp">   -686.42488517 </i>
    <i name="e_0_energy">   -686.42488517 </i>
   </energy>
  </scstep>
  <scstep>
   <time name="dav">   80.39   80.42</time>
   <time name="total">   80.40   80.42</time>
   <energy>
    <i name="e_fr_energy">   -690.66843691 </i>
    <i name="e_wo_entrp">   -690.66843691 </i>
    <i name="e_0_energy">   -690.66843691 </i>
   </energy>
  </scstep>
  <scstep>
   <time name="dav">   81.76   81.79</time>
   <time name="total">   85.03   85.06</time>
   <energy>
    <i name="e_fr_energy">   -690.81868068 </i>
    <i name="e_wo_entrp">   -690.81868068 </i>
    <i name="e_0_energy">   -690.81868068 </i>
   </energy>
  </scstep>
  <scstep>
   <time name="dav">   77.47   77.49</time>
   <time name="total">   81.70   81.73</time>
   <energy>
    <i name="e_fr_energy">   -682.33841520 </i>
    <i name="e_wo_entrp">   -682.33841520 </i>
    <i name="e_0_energy">   -682.33841520 </i>
   </energy>
  </scstep>
  <scstep>
   <time name="dav">   77.15   77.17</time>
   <time name="total">   81.39   81.41</time>
   <energy>
    <i name="e_fr_energy">   -678.81265739 </i>
    <i name="e_wo_entrp">   -678.81265739 </i>
    <i name="e_0_energy">   -678.81265739 </i>
   </energy>
  </scstep>
  <scstep>
   <time name="dav">   76.69   76.71</time>
   <time name="total">   80.93   80.96</time>
   <energy>
    <i name="e_fr_energy">   -678.86618721 </i>
    <i name="e_wo_entrp">   -678.86618721 </i>
    <i name="e_0_energy">   -678.86618721 </i>
   </energy>
  </scstep>
  <scstep>
   <time name="dav">   79.86   79.89</time>
   <time name="total">   84.09   84.14</time>
   <energy>
    <i name="e_fr_energy">   -678.88997628 </i>
    <i name="e_wo_entrp">   -678.88997628 </i>
    <i name="e_0_energy">   -678.88997628 </i>
   </energy>
  </scstep>
  <scstep>
   <time name="dav">   78.49   78.52</time>
   <time name="total">   82.72   82.75</time>
   <energy>
    <i name="e_fr_energy">   -678.89241086 </i>
    <i name="e_wo_entrp">   -678.89241086 </i>
    <i name="e_0_energy">   -678.89241086 </i>
   </energy>
  </scstep>
  <scstep>
   <time name="dav">   76.60   76.64</time>
   <time name="total">   80.80   80.83</time>
   <energy>
    <i name="e_fr_energy">   -678.89395608 </i>
    <i name="e_wo_entrp">   -678.89395608 </i>
    <i name="e_0_energy">   -678.89395608 </i>
   </energy>
  </scstep>
  <scstep>
   <time name="dav">   79.98   80.01</time>
   <time name="total">   84.16   84.19</time>
   <energy>
    <i name="e_fr_energy">   -678.89404639 </i>
    <i name="e_wo_entrp">   -678.89404639 </i>
    <i name="e_0_energy">   -678.89404639 </i>
   </energy>
  </scstep>
  <scstep>
   <time name="dav">   76.32   76.34</time>
   <time name="total">   80.49   80.51</time>
   <energy>
    <i name="e_fr_energy">   -678.89407607 </i>
    <i name="e_wo_entrp">   -678.89407607 </i>
    <i name="e_0_energy">   -678.89407607 </i>
   </energy>
  </scstep>
  <scstep>
   <time name="dav">   79.65   79.67</time>
   <time name="total">   83.84   83.85</time>
   <energy>
    <i name="e_fr_energy">   -678.89408189 </i>
    <i name="e_wo_entrp">   -678.89408189 </i>
    <i name="e_0_energy">   -678.89408189 </i>
   </energy>
  </scstep>
  <scstep>
   <time name="dav">   80.74   80.76</time>
   <time name="total">   84.92   84.94</time>
   <energy>
    <i name="e_fr_energy">   -678.89408489 </i>
    <i name="e_wo_entrp">   -678.89408489 </i>
    <i name="e_0_energy">   -678.89408489 </i>
   </energy>
  </scstep>
  <scstep>
   <time name="dav">   78.84   78.88</time>
   <time name="total">   83.09   83.13</time>
   <energy>
    <i name="e_fr_energy">   -678.89408427 </i>
    <i name="e_wo_entrp">   -678.89408427 </i>
    <i name="e_0_energy">   -678.89408427 </i>
   </energy>
  </scstep>
  <scstep>
   <time name="dav">   55.59   55.61</time>
   <time name="total">   59.83   59.84</time>
   <energy>
    <i name="e_fr_energy">   -678.89408436 </i>
    <i name="e_wo_entrp">   -678.89408436 </i>
    <i name="e_0_energy">   -678.89408436 </i>
   </energy>
  </scstep>
  <scstep>
   <time name="dav">   51.76   51.78</time>
   <time name="total">   56.01   56.03</time>
   <energy>
    <i name="e_fr_energy">   -678.89408446 </i>
    <i name="e_wo_entrp">   -678.89408446 </i>
    <i name="e_0_energy">   -678.89408446 </i>
   </energy>
  </scstep>
  <scstep>
   <time name="dav">   51.12   51.14</time>
   <time name="total">   55.36   55.39</time>
   <energy>
    <i name="e_fr_energy">   -678.89408440 </i>
    <i name="e_wo_entrp">   -678.89408440 </i>
    <i name="e_0_energy">   -678.89408440 </i>
   </energy>
  </scstep>
  <scstep>
   <time name="dav">   50.22   50.24</time>
   <time name="total">   51.22   51.24</time>
   <energy>
    <i name="alphaZ">    210.77028614 </i>
    <i name="ewald"> -14474.32016053 </i>
    <i name="hartreedc">   -999.00535332 </i>
    <i name="XCdc">  -1155.91702006 </i>
    <i name="pawpsdc">   4730.16928414 </i>
    <i name="pawaedc">  -2491.87600585 </i>
    <i name="eentropy">     -0.00000000 </i>
    <i name="bandstr">    308.80402509 </i>
    <i name="atom">  13192.48085998 </i>
    <i name="e_fr_energy">   -678.89408440 </i>
    <i name="e_wo_entrp">   -678.89408440 </i>
    <i name="e_0_energy">   -678.89408440 </i>
   </energy>
  </scstep>
  <structure>
   <crystal>
    <varray name="basis" >
     <v>       0.00000000      10.93733369      10.93733369 </v>
     <v>      10.93733369       0.00000000      10.93733369 </v>
     <v>      10.93733369      10.93733369       0.00000000 </v>
    </varray>
    <i name="volume">   2616.76295363 </i>
    <varray name="rec_basis" >
     <v>      -0.04571498       0.04571498       0.04571498 </v>
     <v>       0.04571498      -0.04571498       0.04571498 </v>
     <v>       0.04571498       0.04571498      -0.04571498 </v>
    </varray>
   </crystal>
   <varray name="positions" >
    <v>       0.99555173       0.00136898       0.00070106 </v>
    <v>       0.24992142       0.99606376       0.00801063 </v>
    <v>       0.49201387       0.99923441       0.99965113 </v>
    <v>       0.75425023       0.00384543       0.99719351 </v>
    <v>       0.00504696       0.24615216       0.99618284 </v>
    <v>       0.24420477       0.26499754       0.99665303 </v>
    <v>       0.50504766       0.25184354       0.99196604 </v>
    <v>       0.74844416       0.25353872       0.00002831 </v>
    <v>       0.99823048       0.50308659       0.98947649 </v>
    <v>       0.25223365       0.49744187       0.00243663 </v>
    <v>       0.51127150       0.49444039       0.99500949 </v>
    <v>       0.74538949       0.50439842       0.00830512 </v>
    <v>       0.00798501       0.74942089       0.99588474 </v>
    <v>       0.23691381       0.75682141       0.99744701 </v>
    <v>       0.50696443       0.74215107       0.00282962 </v>
    <v>       0.75732339       0.74578764       0.00473712 </v>
    <v>       0.00000086       0.99761642       0.23648270 </v>
    <v>       0.25484182       0.00825473       0.24253013 </v>
    <v>       0.50053171       0.99878948       0.25200022 </v>
    <v>       0.74979116       0.00270918       0.25336620 </v>
    <v>       0.00935952       0.24307440       0.25488047 </v>
    <v>       0.25267710       0.25006049       0.24362506 </v>
    <v>       0.49353476       0.25848130       0.24168594 </v>
    <v>       0.74282518       0.25344402       0.24981932 </v>
    <v>       0.00576896       0.49565395       0.25150110 </v>
    <v>       0.25234469       0.49594129       0.24637077 </v>
    <v>       0.48819587       0.49683483       0.25629257 </v>
    <v>       0.75984099       0.50221789       0.23736723 </v>
    <v>       0.99759719       0.74464477       0.24685505 </v>
    <v>       0.24255535       0.75778352       0.24382649 </v>
    <v>       0.49338275       0.74473650       0.25401929 </v>
    <v>       0.74509028       0.75370620       0.25529062 </v>
    <v>       0.00422014       0.00764026       0.49188059 </v>
    <v>       0.24756582       0.98967524       0.49803079 </v>
    <v>       0.48369285       0.00167755       0.50872114 </v>
    <v>       0.77387946       0.98558671       0.48968898 </v>
    <v>       0.99570470       0.25200618       0.49500426 </v>
    <v>       0.24724578       0.23942425       0.49853683 </v>
    <v>       0.50845495       0.25596527       0.49726025 </v>
    <v>       0.74461149       0.25608518       0.48929404 </v>
    <v>       0.99687779       0.49911784       0.50294568 </v>
    <v>       0.24969848       0.50826836       0.49872946 </v>
    <v>       0.49428511       0.50264179       0.49986642 </v>
    <v>       0.74348194       0.50515798       0.50058655 </v>
    <v>       0.99526677       0.76207950       0.48948615 </v>
    <v>       0.24444575       0.75112874       0.50783263 </v>
    <v>       0.50176694       0.73865565       0.50692497 </v>
    <v>       0.75820845       0.75138941       0.48997118 </v>
    <v>       0.99757740       0.00048370       0.74852287 </v>
    <v>       0.25496870       0.99846692       0.75546410 </v>
    <v>       0.51870063       0.99060346       0.74494742 </v>
    <v>       0.75915664       0.99542639       0.74428735 </v>
    <v>       0.00064814       0.24561272       0.76219823 </v>
    <v>       0.25671188       0.25340384       0.75212765 </v>
    <v>       0.49851035       0.25126077       0.75190009 </v>
    <v>       0.73609828       0.26264055       0.74894931 </v>
    <v>       0.99955415       0.49269012       0.74919096 </v>
    <v>       0.25542146       0.49156604       0.74641320 </v>
    <v>       0.50363141       0.49856788       0.74826581 </v>
    <v>       0.75644852       0.50088801       0.74242606 </v>
    <v>       0.00238869       0.75362746       0.75625848 </v>
    <v>       0.26436956       0.74290709       0.74805656 </v>
    <v>       0.48754962       0.75181042       0.75166487 </v>
    <v>       0.75319509       0.74216828       0.74874893 </v>
    <v>       0.06100863       0.06702000       0.05107381 </v>
    <v>       0.30911624       0.05340077       0.07004722 </v>
    <v>       0.55706490       0.06340611       0.06722319 </v>
    <v>       0.80400599       0.07258525       0.06865766 </v>
    <v>       0.06251590       0.30503070       0.07006003 </v>
    <v>       0.31290743       0.31243492       0.06160170 </v>
    <v>       0.55769830       0.31058114       0.07360486 </v>
    <v>       0.81783417       0.31020090       0.06453995 </v>
    <v>       0.05007258       0.56943120       0.06678234 </v>
    <v>       0.32345531       0.55554563       0.06719033 </v>
    <v>       0.56776853       0.55183421       0.05607093 </v>
    <v>       0.81137431       0.56780029       0.06036732 </v>
    <v>       0.05942339       0.80646857       0.07559515 </v>
    <v>       0.30950039       0.81810488       0.05861936 </v>
    <v>       0.57067987       0.81024215       0.06094895 </v>
    <v>       0.82467595       0.80594191       0.04796289 </v>
    <v>       0.06053191       0.06657348       0.30906728 </v>
    <v>       0.31326689       0.06006820       0.31129178 </v>
    <v>       0.56098088       0.06559483       0.31393288 </v>
    <v>       0.80166169       0.05731184       0.31833572 </v>
    <v>       0.06411623       0.31870852       0.31734424 </v>
    <v>       0.31010567       0.31882229       0.31370714 </v>
    <v>       0.55650434       0.31968027       0.30302521 </v>
    <v>       0.81644677       0.30768577       0.30834535 </v>
    <v>       0.06965554       0.55275411       0.31728422 </v>
    <v>       0.29486769       0.57848423       0.31981142 </v>
    <v>       0.56034855       0.56533319       0.31000445 </v>
    <v>       0.80556754       0.55834696       0.30992118 </v>
    <v>       0.05993325       0.80768921       0.30897067 </v>
    <v>       0.31264765       0.82303519       0.31608734 </v>
    <v>       0.55475390       0.81224518       0.31570729 </v>
    <v>       0.80864304       0.81287070       0.31237506 </v>
    <v>       0.06228810       0.07203940       0.56748993 </v>
    <v>       0.31088029       0.06117228       0.57312661 </v>
    <v>       0.56170028       0.07078754       0.56134482 </v>
    <v>       0.81371438       0.06676088       0.56157591 </v>
    <v>       0.06620289       0.29670047       0.57424306 </v>
    <v>       0.30887810       0.31740199       0.56359277 </v>
    <v>       0.54767569       0.32831038       0.55859902 </v>
    <v>       0.81956665       0.31682292       0.55526343 </v>
    <v>       0.05511038       0.57931369       0.56767970 </v>
    <v>       0.31801429       0.55638744       0.56760771 </v>
    <v>       0.55865984       0.55875995       0.56687226 </v>
    <v>       0.80136703       0.58190858       0.57122739 </v>
    <v>       0.06811265       0.81443827       0.56284889 </v>
    <v>       0.31554481       0.81386679       0.54880646 </v>
    <v>       0.56750175       0.81814401       0.56176198 </v>
    <v>       0.81112317       0.81085837       0.56317437 </v>
    <v>       0.05760545       0.06855436       0.82603158 </v>
    <v>       0.31679192       0.05950057       0.81864918 </v>
    <v>       0.57335296       0.05301152       0.82538808 </v>
    <v>       0.82297744       0.04903229       0.81286303 </v>
    <v>       0.06275060       0.30908203       0.81788797 </v>
    <v>       0.32191119       0.30571523       0.80772156 </v>
    <v>       0.54997801       0.31046473       0.82145895 </v>
    <v>       0.81295951       0.30570822       0.82115533 </v>
    <v>       0.06070678       0.56666698       0.79814516 </v>
    <v>       0.31454759       0.55801813       0.81397574 </v>
    <v>       0.56066923       0.56944553       0.81486115 </v>
    <v>       0.81626836       0.55424031       0.81104385 </v>
    <v>       0.06899046       0.82216285       0.80097074 </v>
    <v>       0.30498069       0.81429424       0.82107443 </v>
    <v>       0.56017504       0.81124954       0.80641938 </v>
    <v>       0.81062598       0.81593793       0.81513582 </v>
   </varray>
  </structure>
  <varray name="forces" >
   <v>       0.59064813       0.79420274      -1.55831760 </v>
   <v>      -0.11895597      -1.62244025       0.13384799 </v>
   <v>       0.74752558       1.89898555      -0.09622786 </v>
   <v>      -0.15718958       0.12877883      -1.25168531 </v>
   <v>       1.58648056       0.37683244      -0.05678183 </v>
   <v>      -1.71089449       0.68193682      -0.93327981 </v>
   <v>       2.02298688       1.77709017      -1.88055048 </v>
   <v>       1.47876903       0.39856497      -0.19834742 </v>
   <v>       0.05445515       0.92512090      -0.06469864 </v>
   <v>       0.82172566      -0.39833031      -0.04677500 </v>
   <v>       0.06111938      -0.70786986      -1.21372229 </v>
   <v>      -1.99729266      -0.02193629       0.14783526 </v>
   <v>       0.23180830      -0.61196193       0.64032280 </v>
   <v>      -0.01011976       2.89387664      -0.03916652 </v>
   <v>      -0.15280304      -0.99128529       0.11009082 </v>
   <v>      -0.54009342      -2.32034501      -0.53309003 </v>
   <v>       1.40238473       0.30720028      -0.15361677 </v>
   <v>       0.92125229       0.42039232      -1.95649234 </v>
   <v>       0.35618759       0.09568613      -0.06121250 </v>
   <v>      -1.00327676      -1.20750307      -1.71849993 </v>
   <v>       1.25925474      -1.05511547       0.38125874 </v>
   <v>       0.96656429       0.96395163      -0.23315009 </v>
   <v>       1.34289494       2.45285668      -2.04173429 </v>
   <v>      -0.60444824       0.52730081      -0.24995548 </v>
   <v>       1.41072624      -1.47732867      -0.13771506 </v>
   <v>       1.99433142       0.57211595       0.80523911 </v>
   <v>       0.76505692      -1.05845025       1.59523636 </v>
   <v>       0.25256545      -0.18896001      -2.54237305 </v>
   <v>       1.27125558       1.75556029      -1.49310926 </v>
   <v>       0.93464569       0.75793541       1.09849746 </v>
   <v>       0.16772616      -0.26749747       1.61802056 </v>
   <v>      -1.95347078      -1.17677854      -0.61668714 </v>
   <v>       0.81242452       1.12302439      -0.45834498 </v>
   <v>       2.00049718      -0.02933983       1.69879271 </v>
   <v>      -0.91013799       1.27713227       2.68583348 </v>
   <v>       3.36545970      -0.42947568      -0.67768869 </v>
   <v>       0.81353435       1.92868424       0.84735479 </v>
   <v>       1.37029420       0.68801999       1.57783321 </v>
   <v>      -0.87145319      -2.12325736      -1.69932541 </v>
   <v>       1.43541648       0.96696845      -0.15787013 </v>
   <v>       0.71109876       1.03469471       0.05207120 </v>
   <v>       0.74151555       0.22474725      -1.29811203 </v>
   <v>       0.10778556      -0.20822240       1.94452517 </v>
   <v>      -0.15178284       0.50969768       0.74037008 </v>
   <v>       0.94073446       1.39997340       0.03125863 </v>
   <v>      -2.19429062       0.13773441       0.00903706 </v>
   <v>       0.83100199      -0.86995493       1.68757936 </v>
   <v>       2.40316554      -0.64243887       0.34987111 </v>
   <v>       0.88229987       1.21900137       1.87952143 </v>
   <v>       1.13373815      -0.48522047      -0.66209400 </v>
   <v>       1.93398642      -0.57802605       0.08604312 </v>
   <v>       1.15762154       0.11920887      -0.06004312 </v>
   <v>      -0.06698712      -1.13450140       0.22681356 </v>
   <v>      -1.44795044      -1.36992969      -1.94380321 </v>
   <v>      -1.83864489       0.57717742       0.03048180 </v>
   <v>      -1.61602295       1.49784997       0.05772155 </v>
   <v>       0.53729984      -0.18506369       0.44152733 </v>
   <v>       1.35435756       0.22446054      -0.30461558 </v>
   <v>       1.00391918       0.53664617      -0.54927909 </v>
   <v>       1.35449153       0.97778685      -2.18725457 </v>
   <v>      -0.98768517      -1.32916262      -0.56104882 </v>
   <v>       0.30312743      -1.76707042      -0.01160901 </v>
   <v>      -0.03784020       0.53914770       1.13404311 </v>
   <v>       0.75079731       0.17373767       0.04419137 </v>
   <v>      -0.31976179       1.30837993      -0.23223248 </v>
   <v>       0.31326394      -1.55019608       2.27745374 </v>
   <v>      -1.15577108      -0.27389333       0.37065867 </v>
   <v>      -1.45129077       0.37176672      -0.12198572 </v>
   <v>       0.28996220      -1.20300042       0.63364901 </v>
   <v>      -0.24661528       0.12722312       0.78491912 </v>
   <v>      -2.77898489      -2.03558787       1.96297928 </v>
   <v>       0.16903493      -0.64672972       0.07522485 </v>
   <v>      -1.94326503       0.77408194       0.18330124 </v>
   <v>      -0.33275750      -1.92018206       0.53543589 </v>
   <v>       2.65229188       0.74560922       0.16103674 </v>
   <v>      -1.15558990       0.17091275       0.41574928 </v>
   <v>      -0.73842069      -2.63922997       1.10968147 </v>
   <v>      -1.38900776       0.73713991      -0.65292371 </v>
   <v>       0.45406075      -0.15761889      -0.78163237 </v>
   <v>       3.40479368       1.54180388       1.14879330 </v>
   <v>      -1.79514143       0.37170701      -0.59501603 </v>
   <v>       0.81056176       0.23527557       0.87870207 </v>
   <v>       0.31037948      -0.18197799      -0.52020796 </v>
   <v>       0.16546356       0.40565506       3.27838610 </v>
   <v>      -2.15038598      -0.20218249      -0.29725072 </v>
   <v>      -1.37853850      -0.04462317      -1.31483853 </v>
   <v>       0.13942701       1.40660228      -0.65986133 </v>
   <v>      -0.10749585      -0.39545817       0.87592310 </v>
   <v>       0.33659515      -1.13383241      -0.13738262 </v>
   <v>      -2.36467164       0.13285455      -0.08743641 </v>
   <v>      -1.23762909       0.66083431      -0.63334123 </v>
   <v>       1.63147656       1.67241939       1.90230547 </v>
   <v>       0.05838985      -0.82895110       0.58334178 </v>
   <v>      -0.57961539      -0.87680707      -1.61426422 </v>
   <v>      -0.46130734       0.68646005       0.00320755 </v>
   <v>      -0.49190453      -0.26208260       1.19756627 </v>
   <v>      -1.90062322      -0.73832184      -0.72412045 </v>
   <v>      -0.82724097      -1.52731696      -1.83502675 </v>
   <v>      -1.53242839       0.49723694      -0.02071496 </v>
   <v>      -1.17556290      -0.70710318       0.24857733 </v>
   <v>       0.77944092      -1.79459336       0.12451330 </v>
   <v>      -0.97054025      -0.08010673       0.07619879 </v>
   <v>      -0.51226877       2.89645430       0.25072343 </v>
   <v>       1.17293470      -1.43187432      -1.89173777 </v>
   <v>      -2.17571268      -0.16811793      -0.46483576 </v>
   <v>       0.61658231      -1.85924903       0.23818419 </v>
   <v>      -0.83423787       0.10514353      -0.19890044 </v>
   <v>      -4.08698962      -0.07011269      -0.65939128 </v>
   <v>       1.05790482      -1.68452081      -1.07009390 </v>
   <v>       0.70881054       2.61495905      -0.58684768 </v>
   <v>      -0.61718822      -0.43805664      -1.33357060 </v>
   <v>      -0.65586933       0.53867023      -0.31072850 </v>
   <v>      -3.03062452      -0.39147726      -0.18773859 </v>
   <v>      -0.28745719       0.48723832       0.99562378 </v>
   <v>      -1.17055661      -2.28045645       0.83769170 </v>
   <v>       1.93890228      -2.01011872       0.08218521 </v>
   <v>      -0.61421495       0.27310724       1.46170022 </v>
   <v>       2.28773906       0.40963920      -0.03982374 </v>
   <v>      -0.92195583      -1.10863018       2.39132009 </v>
   <v>      -0.60793083      -1.81393921       0.69428516 </v>
   <v>       0.38959057       1.33487770       0.15070690 </v>
   <v>      -0.28417009       0.06061280      -0.17906910 </v>
   <v>      -1.82448995      -0.22243834      -0.02308517 </v>
   <v>       1.28120661       0.39380028      -0.01834488 </v>
   <v>      -0.51242321       2.23490627      -0.36879113 </v>
   <v>      -0.99708090      -0.97090074       0.42125045 </v>
   <v>      -0.15671486       1.40960801      -0.42235221 </v>
   <v>      -1.40796866       0.41809207      -0.77467111 </v>
  </varray>
  <varray name="stress" >
   <v>       9.79769348       4.04820289      -2.77423028 </v>
   <v>       4.04820287      12.59986616     -12.57616650 </v>
   <v>      -2.77423028     -12.57616648      14.93103793 </v>
  </varray>
  <energy>
   <i name="e_fr_energy">   -678.89408440 </i>
   <i name="e_wo_entrp">   -678.89408440 </i>
   <i name="e_0_energy">     -0.00000000 </i>
  </energy>
  <time name="totalsc"> 1645.25 1645.87</time>
  <eigenvalues>
   <array>
    <dimension dim="1">band</dimension>
    <dimension dim="2">kpoint</dimension>
    <dimension dim="3">spin</dimension>
    <field>eigene</field>
    <field>occ</field>
    <set>
     <set comment="spin 1">
      <set comment="kpoint 1">
       <r>   -6.2979    1.0000 </r>
       <r>   -5.7020    1.0000 </r>
       <r>   -5.6483    1.0000 </r>
       <r>   -5.6086    1.0000 </r>
       <r>   -5.5646    1.0000 </r>
       <r>   -5.5180    1.0000 </r>
       <r>   -5.4653    1.0000 </r>
       <r>   -5.4430    1.0000 </r>
       <r>   -5.4147    1.0000 </r>
       <r>   -5.3236    1.0000 </r>
       <r>   -5.3023    1.0000 </r>
       <r>   -5.2269    1.0000 </r>
       <r>   -5.1967    1.0000 </r>
       <r>   -5.1251    1.0000 </r>
       <r>   -5.0552    1.0000 </r>
       <r>   -4.5385    1.0000 </r>
       <r>   -4.4789    1.0000 </r>
       <r>   -4.4298    1.0000 </r>
       <r>   -4.4177    1.0000 </r>
       <r>   -4.3556    1.0000 </r>
       <r>   -4.3179    1.0000 </r>
       <r>   -4.2929    1.0000 </r>
       <r>   -4.2620    1.0000 </r>
       <r>   -4.2333    1.0000 </r>
       <r>   -4.2199    1.0000 </r>
       <r>   -4.1830    1.0000 </r>
       <r>   -4.0935    1.0000 </r>
       <r>   -4.0471    1.0000 </r>
       <r>   -3.9952    1.0000 </r>
       <r>   -3.9721    1.0000 </r>
       <r>   -3.9308    1.0000 </r>
       <r>   -3.8905    1.0000 </r>
       <r>   -3.8538    1.0000 </r>
       <r>   -3.8047    1.0000 </r>
       <r>   -3.7875    1.0000 </r>
       <r>   -3.7537    1.0000 </r>
       <r>   -3.7151    1.0000 </r>
       <r>   -3.7023    1.0000 </r>
       <r>   -3.6765    1.0000 </r>
       <r>   -3.6489    1.0000 </r>
       <r>   -3.6245    1.0000 </r>
       <r>   -3.5624    1.0000 </r>
       <r>   -3.5443    1.0000 </r>
       <r>   -3.5138    1.0000 </r>
       <r>   -3.4875    1.0000 </r>
       <r>   -3.4759    1.0000 </r>
       <r>   -3.4401    1.0000 </r>
       <r>   -3.4323    1.0000 </r>
       <r>   -3.3988    1.0000 </r>
       <r>   -3.3860    1.0000 </r>
       <r>   -3.3598    1.0000 </r>
       <r>   -3.3467    1.0000 </r>
       <r>   -3.3316    1.0000 </r>
       <r>   -3.2464    1.0000 </r>
       <r>   -3.1484    1.0000 </r>
       <r>   -2.3715    1.0000 </r>
       <r>   -2.3323    1.0000 </r>
       <r>   -2.3078    1.0000 </r>
       <r>   -2.2326    1.0000 </r>
       <r>   -2.1831    1.0000 </r>
       <r>   -2.1523    1.0000 </r>
       <r>   -2.1289    1.0000 </r>
       <r>   -2.1010    1.0000 </r>
       <r>   -2.0492    1.0000 </r>
       <r>   -2.0363    1.0000 </r>
       <r>   -1.9977    1.0000 </r>
       <r>   -1.9885    1.0000 </r>
       <r>   -1.9808    1.0000 </r>
       <r>   -1.9128    1.0000 </r>
       <r>   -1.8717    1.0000 </r>
       <r>   -1.8581    1.0000 </r>
       <r>   -1.8124    1.0000 </r>
       <r>   -1.7824    1.0000 </r>
       <r>   -1.4426    1.0000 </r>
       <r>   -1.3624    1.0000 </r>
       <r>   -1.2592    1.0000 </r>
       <r>   -1.1329    1.0000 </r>
       <r>   -1.0764    1.0000 </r>
       <r>   -1.0427    1.0000 </r>
       <r>   -0.9758    1.0000 </r>
       <r>   -0.9192    1.0000 </r>
       <r>   -0.8900    1.0000 </r>
       <r>   -0.8770    1.0000 </r>
       <r>   -0.8629    1.0000 </r>
       <r>   -0.8160    1.0000 </r>
       <r>   -0.7869    1.0000 </r>
       <r>   -0.7745    1.0000 </r>
       <r>   -0.7441    1.0000 </r>
       <r>   -0.7381    1.0000 </r>
       <r>   -0.6946    1.0000 </r>
       <r>   -0.6654    1.0000 </r>
       <r>   -0.6599    1.0000 </r>
       <r>   -0.6326    1.0000 </r>
       <r>   -0.6221    1.0000 </r>
       <r>   -0.5954    1.0000 </r>
       <r>   -0.5416    1.0000 </r>
       <r>   -0.5332    1.0000 </r>
       <r>   -0.4881    1.0000 </r>
       <r>   -0.4498    1.0000 </r>
       <r>   -0.4381    1.0000 </r>
       <r>   -0.2981    1.0000 </r>
       <r>   -0.0175    1.0000 </r>
       <r>    0.0515    1.0000 </r>
       <r>    0.0918    1.0000 </r>
       <r>    0.1006    1.0000 </r>
       <r>    0.1357    1.0000 </r>
       <r>    0.1542    1.0000 </r>
       <r>    0.1924    1.0000 </r>
       <r>    0.2331    1.0000 </r>
       <r>    0.2523    1.0000 </r>
       <r>    0.2698    1.0000 </r>
       <r>    0.3365    1.0000 </r>
       <r>    0.4069    1.0000 </r>
       <r>    1.3657    1.0000 </r>
       <r>    1.4028    1.0000 </r>
       <r>    1.4904    1.0000 </r>
       <r>    1.5008    1.0000 </r>
       <r>    1.5219    1.0000 </r>
       <r>    1.5497    1.0000 </r>
       <r>    1.5699    1.0000 </r>
       <r>    1.5754    1.0000 </r>
       <r>    1.6348    1.0000 </r>
       <r>    1.6527    1.0000 </r>
       <r>    1.6688    1.0000 </r>
       <r>    1.6802    1.0000 </r>
       <r>    1.7130    1.0000 </r>
       <r>    1.7233    1.0000 </r>
       <r>    1.7295    1.0000 </r>
       <r>    1.7530    1.0000 </r>
       <r>    1.7599    1.0000 </r>
       <r>    1.7839    1.0000 </r>
       <r>    1.7963    1.0000 </r>
       <r>    1.8103    1.0000 </r>
       <r>    1.8247    1.0000 </r>
       <r>    1.8481    1.0000 </r>
       <r>    1.8512    1.0000 </r>
       <r>    1.8661    1.0000 </r>
       <r>    1.8963    1.0000 </r>
       <r>    1.9138    1.0000 </r>
       <r>    1.9373    1.0000 </r>
       <r>    1.9453    1.0000 </r>
       <r>    1.9563    1.0000 </r>
       <r>    1.9633    1.0000 </r>
       <r>    1.9665    1.0000 </r>
       <r>    1.9867    1.0000 </r>
       <r>    2.0096    1.0000 </r>
       <r>    2.0113    1.0000 </r>
       <r>    2.0283    1.0000 </r>
       <r>    2.0400    1.0000 </r>
       <r>    2.0508    1.0000 </r>
       <r>    2.0708    1.0000 </r>
       <r>    2.0860    1.0000 </r>
       <r>    2.0904    1.0000 </r>
       <r>    2.1017    1.0000 </r>
       <r>    2.1097    1.0000 </r>
       <r>    2.1251    1.0000 </r>
       <r>    2.1480    1.0000 </r>
       <r>    2.1658    1.0000 </r>
       <r>    2.1740    1.0000 </r>
       <r>    2.2059    1.0000 </r>
       <r>    2.2092    1.0000 </r>
       <r>    2.2266    1.0000 </r>
       <r>    2.2437    1.0000 </r>
       <r>    2.2638    1.0000 </r>
       <r>    2.2672    1.0000 </r>
       <r>    2.2919    1.0000 </r>
       <r>    2.3268    1.0000 </r>
       <r>    2.3412    1.0000 </r>
       <r>    2.3474    1.0000 </r>
       <r>    2.3634    1.0000 </r>
       <r>    2.4100    1.0000 </r>
       <r>    2.4364    1.0000 </r>
       <r>    2.4520    1.0000 </r>
       <r>    2.5080    1.0000 </r>
       <r>    2.5527    1.0000 </r>
       <r>    2.7226    1.0000 </r>
       <r>    2.7865    1.0000 </r>
       <r>    2.8315    1.0000 </r>
       <r>    2.8437    1.0000 </r>
       <r>    2.8738    1.0000 </r>
       <r>    2.9039    1.0000 </r>
       <r>    3.1849    1.0000 </r>
       <r>    3.1919    1.0000 </r>
       <r>    3.2182    1.0000 </r>
       <r>    3.2303    1.0000 </r>
       <r>    3.2794    1.0000 </r>
       <r>    3.2946    1.0000 </r>
       <r>    3.3321    1.0000 </r>
       <r>    3.3571    1.0000 </r>
       <r>    3.3636    1.0000 </r>
       <r>    3.3824    1.0000 </r>
       <r>    3.3951    1.0000 </r>
       <r>    3.4055    1.0000 </r>
       <r>    3.4224    1.0000 </r>
       <r>    3.4508    1.0000 </r>
       <r>    3.4766    1.0000 </r>
       <r>    3.4974    1.0000 </r>
       <r>    3.5189    1.0000 </r>
       <r>    3.5389    1.0000 </r>
       <r>    3.5499    1.0000 </r>
       <r>    3.5585    1.0000 </r>
       <r>    3.5846    1.0000 </r>
       <r>    3.6057    1.0000 </r>
       <r>    3.6138    1.0000 </r>
       <r>    3.6338    1.0000 </r>
       <r>    3.6925    1.0000 </r>
       <r>    3.7300    1.0000 </r>
       <r>    3.7409    1.0000 </r>
       <r>    3.7780    1.0000 </r>
       <r>    3.7868    1.0000 </r>
       <r>    3.8110    1.0000 </r>
       <r>    3.8444    1.0000 </r>
       <r>    3.8560    1.0000 </r>
       <r>    3.8824    1.0000 </r>
       <r>    3.9034    1.0000 </r>
       <r>    3.9330    1.0000 </r>
       <r>    3.9658    1.0000 </r>
       <r>    4.0765    1.0000 </r>
       <r>    4.1387    1.0000 </r>
       <r>    4.1511    1.0000 </r>
       <r>    4.2323    1.0000 </r>
       <r>    4.2502    1.0000 </r>
       <r>    4.2717    1.0000 </r>
       <r>    4.3227    1.0000 </r>
       <r>    4.3418    1.0000 </r>
       <r>    4.3590    1.0000 </r>
       <r>    4.3835    1.0000 </r>
       <r>    4.3874    1.0000 </r>
       <r>    4.4060    1.0000 </r>
       <r>    4.4381    1.0000 </r>
       <r>    4.4756    1.0000 </r>
       <r>    4.5229    1.0000 </r>
       <r>    4.5515    1.0000 </r>
       <r>    4.5701    1.0000 </r>
       <r>    4.6322    1.0000 </r>
       <r>    4.6589    1.0000 </r>
       <r>    4.6957    1.0000 </r>
       <r>    4.7296    1.0000 </r>
       <r>    4.7375    1.0000 </r>
       <r>    4.7811    1.0000 </r>
       <r>    4.8004    1.0000 </r>
       <r>    4.8570    1.0000 </r>
       <r>    4.8759    1.0000 </r>
       <r>    4.9198    1.0000 </r>
       <r>    4.9413    1.0000 </r>
       <r>    5.0191    1.0000 </r>
       <r>    5.0297    1.0000 </r>
       <r>    5.0484    1.0000 </r>
       <r>    5.0888    1.0000 </r>
       <r>    5.1614    1.0000 </r>
       <r>    5.2385    1.0000 </r>
       <r>    5.2663    1.0000 </r>
       <r>    5.3608    1.0000 </r>
       <r>    5.6494    1.0000 </r>
       <r>    5.7560    1.0000 </r>
       <r>    5.9079    1.0000 </r>
       <r>    6.1142    0.0000 </r>
       <r>    6.1747    0.0000 </r>
       <r>    6.2034    0.0000 </r>
       <r>    6.2619    0.0000 </r>
       <r>    6.3320    0.0000 </r>
       <r>    6.4097    0.0000 </r>
       <r>    6.5152    0.0000 </r>
       <r>    6.5604    0.0000 </r>
       <r>    6.5802    0.0000 </r>
       <r>    6.6362    0.0000 </r>
       <r>    6.6411    0.0000 </r>
       <r>    6.6980    0.0000 </r>
       <r>    6.8127    0.0000 </r>
       <r>    6.8243    0.0000 </r>
       <r>    6.8304    0.0000 </r>
       <r>    6.8531    0.0000 </r>
       <r>    6.8905    0.0000 </r>
       <r>    6.9154    0.0000 </r>
       <r>    6.9227    0.0000 </r>
       <r>    6.9691    0.0000 </r>
       <r>    6.9815    0.0000 </r>
       <r>    6.9921    0.0000 </r>
       <r>    7.0090    0.0000 </r>
       <r>    7.0145    0.0000 </r>
       <r>    7.0354    0.0000 </r>
       <r>    7.0537    0.0000 </r>
       <r>    7.0645    0.0000 </r>
       <r>    7.0836    0.0000 </r>
       <r>    7.0921    0.0000 </r>
       <r>    7.1330    0.0000 </r>
       <r>    7.1425    0.0000 </r>
       <r>    7.1618    0.0000 </r>
       <r>    7.1917    0.0000 </r>
       <r>    7.2050    0.0000 </r>
       <r>    7.2362    0.0000 </r>
       <r>    7.2623    0.0000 </r>
       <r>    7.2868    0.0000 </r>
       <r>    7.3049    0.0000 </r>
       <r>    7.3430    0.0000 </r>
       <r>    7.3613    0.0000 </r>
       <r>    7.4294    0.0000 </r>
       <r>    7.4487    0.0000 </r>
       <r>    7.4915    0.0000 </r>
       <r>    7.5307    0.0000 </r>
       <r>    7.5442    0.0000 </r>
       <r>    7.5675    0.0000 </r>
       <r>    7.5912    0.0000 </r>
       <r>    7.6352    0.0000 </r>
       <r>    7.7832    0.0000 </r>
       <r>    7.8731    0.0000 </r>
       <r>    7.8888    0.0000 </r>
       <r>    7.9027    0.0000 </r>
       <r>    7.9303    0.0000 </r>
       <r>    7.9565    0.0000 </r>
       <r>    7.9874    0.0000 </r>
       <r>    7.9995    0.0000 </r>
       <r>    8.0333    0.0000 </r>
       <r>    8.0541    0.0000 </r>
       <r>    8.1156    0.0000 </r>
       <r>    8.1239    0.0000 </r>
       <r>    8.1547    0.0000 </r>
       <r>    8.1966    0.0000 </r>
       <r>    8.2234    0.0000 </r>
       <r>    8.5397    0.0000 </r>
       <r>    8.5447    0.0000 </r>
       <r>    8.5878    0.0000 </r>
      </set>
      <set comment="kpoint 2">
       <r>   -6.1152    1.0000 </r>
       <r>   -6.1033    1.0000 </r>
       <r>   -5.7046    1.0000 </r>
       <r>   -5.6506    1.0000 </r>
       <r>   -5.6049    1.0000 </r>
       <r>   -5.5578    1.0000 </r>
       <r>   -5.5169    1.0000 </r>
       <r>   -5.4997    1.0000 </r>
       <r>   -5.1880    1.0000 </r>
       <r>   -5.1733    1.0000 </r>
       <r>   -5.1180    1.0000 </r>
       <r>   -5.0560    1.0000 </r>
       <r>   -5.0126    1.0000 </r>
       <r>   -4.9451    1.0000 </r>
       <r>   -4.7672    1.0000 </r>
[...]
       <r>    -3.1124    49.0654   100.6540 </r>
       <r>    -3.0578    38.6872   102.7656 </r>
       <r>    -3.0032    39.3118   104.9113 </r>
       <r>    -2.9486    32.3895   106.6791 </r>
       <r>    -2.8940    47.4460   109.2688 </r>
       <r>    -2.8395    40.4773   111.4781 </r>
       <r>    -2.7849    42.2957   113.7867 </r>
       <r>    -2.7303    20.0025   114.8784 </r>
       <r>    -2.6757    43.7383   117.2657 </r>
       <r>    -2.6211    27.4829   118.7658 </r>
       <r>    -2.5666    37.2567   120.7993 </r>
       <r>    -2.5120    20.9218   121.9412 </r>
       <r>    -2.4574    10.4131   122.5095 </r>
       <r>    -2.4028     4.4055   122.7500 </r>
       <r>    -2.3482     4.6332   123.0029 </r>
       <r>    -2.2937     9.0047   123.4944 </r>
       <r>    -2.2391    12.1520   124.1576 </r>
       <r>    -2.1845    17.3795   125.1062 </r>
       <r>    -2.1299    22.5460   126.3368 </r>
       <r>    -2.0753    23.9033   127.6415 </r>
       <r>    -2.0208    42.6939   129.9718 </r>
       <r>    -1.9662    19.1930   131.0194 </r>
       <r>    -1.9116    13.3127   131.7460 </r>
       <r>    -1.8570    16.3084   132.6361 </r>
       <r>    -1.8024     6.3157   132.9809 </r>
       <r>    -1.7479     4.9314   133.2500 </r>
       <r>    -1.6933     5.5573   133.5533 </r>
       <r>    -1.6387     8.0007   133.9900 </r>
       <r>    -1.5841    26.4871   135.4357 </r>
       <r>    -1.5295    31.1821   137.1377 </r>
       <r>    -1.4749    43.8084   139.5288 </r>
       <r>    -1.4204    44.3320   141.9485 </r>
       <r>    -1.3658    40.3012   144.1481 </r>
       <r>    -1.3112    50.0797   146.8815 </r>
       <r>    -1.2566    57.9512   150.0446 </r>
       <r>    -1.2020    58.1611   153.2191 </r>
       <r>    -1.1475    69.6353   157.0198 </r>
       <r>    -1.0929    63.0836   160.4630 </r>
       <r>    -1.0383    60.1059   163.7437 </r>
       <r>    -0.9837    64.3013   167.2533 </r>
       <r>    -0.9291    49.6079   169.9610 </r>
       <r>    -0.8746    81.9363   174.4331 </r>
       <r>    -0.8200    60.3765   177.7285 </r>
       <r>    -0.7654    54.5241   180.7045 </r>
       <r>    -0.7108    49.7512   183.4200 </r>
       <r>    -0.6562    40.8838   185.6515 </r>
       <r>    -0.6017    35.5506   187.5919 </r>
       <r>    -0.5471    22.3006   188.8091 </r>
       <r>    -0.4925    18.4450   189.8158 </r>
       <r>    -0.4379    22.6767   191.0535 </r>
       <r>    -0.3833    33.9231   192.9051 </r>
       <r>    -0.3287    54.7969   195.8960 </r>
       <r>    -0.2742    51.3418   198.6983 </r>
       <r>    -0.2196    43.7390   201.0856 </r>
       <r>    -0.1650    56.1419   204.1499 </r>
       <r>    -0.1104    41.9387   206.4390 </r>
       <r>    -0.0558    43.8007   208.8297 </r>
       <r>    -0.0013    42.8549   211.1687 </r>
       <r>     0.0533    24.8496   212.5251 </r>
       <r>     0.1079    17.6107   213.4863 </r>
       <r>     0.1625    13.4417   214.2199 </r>
       <r>     0.2171    14.6771   215.0210 </r>
       <r>     0.2716    26.0825   216.4446 </r>
       <r>     0.3262    14.5481   217.2387 </r>
       <r>     0.3808    22.3416   218.4581 </r>
       <r>     0.4354    15.3933   219.2983 </r>
       <r>     0.4900    26.8117   220.7617 </r>
       <r>     0.5445    27.8635   222.2825 </r>
       <r>     0.5991    12.1959   222.9482 </r>
       <r>     0.6537    32.4933   224.7217 </r>
       <r>     0.7083    14.5589   225.5163 </r>
       <r>     0.7629    25.6807   226.9180 </r>
       <r>     0.8175     9.6854   227.4467 </r>
       <r>     0.8720     6.7119   227.8130 </r>
       <r>     0.9266    23.6106   229.1017 </r>
       <r>     0.9812    19.0618   230.1421 </r>
       <r>     1.0358    13.4504   230.8763 </r>
       <r>     1.0904    39.6881   233.0425 </r>
       <r>     1.1449    36.1367   235.0149 </r>
       <r>     1.1995    30.6030   236.6852 </r>
       <r>     1.2541     8.8167   237.1664 </r>
       <r>     1.3087    24.5215   238.5048 </r>
       <r>     1.3633    39.7262   240.6731 </r>
       <r>     1.4178    48.4456   243.3173 </r>
       <r>     1.4724    51.7878   246.1440 </r>
       <r>     1.5270    77.6237   250.3807 </r>
       <r>     1.5816    86.4284   255.0981 </r>
       <r>     1.6362    68.1607   258.8184 </r>
       <r>     1.6907    87.3012   263.5834 </r>
       <r>     1.7453    66.3450   267.2046 </r>
       <r>     1.7999    54.2860   270.1676 </r>
       <r>     1.8545    35.4455   272.1023 </r>
       <r>     1.9091    17.4391   273.0541 </r>
       <r>     1.9636    26.7901   274.5163 </r>
       <r>     2.0182    43.3649   276.8832 </r>
       <r>     2.0728    56.3156   279.9570 </r>
       <r>     2.1274    87.9697   284.7585 </r>
       <r>     2.1820    83.1262   289.2957 </r>
       <r>     2.2366   125.3527   296.1376 </r>
       <r>     2.2911   123.2525   302.8648 </r>
       <r>     2.3457   119.1709   309.3693 </r>
       <r>     2.4003   101.1578   314.8906 </r>
       <r>     2.4549    73.6005   318.9078 </r>
       <r>     2.5095    59.4146   322.1507 </r>
       <r>     2.5640    39.4026   324.3013 </r>
       <r>     2.6186    35.8878   326.2601 </r>
       <r>     2.6732    72.3879   330.2111 </r>
       <r>     2.7278    70.6549   334.0675 </r>
       <r>     2.7824    78.4007   338.3467 </r>
       <r>     2.8369    92.0234   343.3695 </r>
       <r>     2.8915    99.3506   348.7921 </r>
       <r>     2.9461    91.9691   353.8119 </r>
       <r>     3.0007    97.7700   359.1483 </r>
       <r>     3.0553    99.7074   364.5905 </r>
       <r>     3.1098    89.4640   369.4735 </r>
       <r>     3.1644    74.3054   373.5292 </r>
       <r>     3.2190    79.5252   377.8697 </r>
       <r>     3.2736    73.5011   381.8815 </r>
       <r>     3.3282   103.1428   387.5112 </r>
       <r>     3.3828    97.9715   392.8586 </r>
       <r>     3.4373    96.5571   398.1288 </r>
       <r>     3.4919    96.2760   403.3836 </r>
       <r>     3.5465    77.7826   407.6291 </r>
       <r>     3.6011    76.8396   411.8231 </r>
       <r>     3.6557    73.6073   415.8407 </r>
       <r>     3.7102    72.0919   419.7756 </r>
       <r>     3.7648    76.9578   423.9760 </r>
       <r>     3.8194    82.2449   428.4650 </r>
       <r>     3.8740    77.9918   432.7219 </r>
       <r>     3.9286    86.5332   437.4450 </r>
       <r>     3.9831    74.2954   441.5001 </r>
       <r>     4.0377    53.1049   444.3986 </r>
       <r>     4.0923    63.1292   447.8442 </r>
       <r>     4.1469    82.3445   452.3387 </r>
       <r>     4.2015    70.1968   456.1701 </r>
       <r>     4.2560    84.5378   460.7843 </r>
       <r>     4.3106    64.6938   464.3153 </r>
       <r>     4.3652    66.5784   467.9493 </r>
       <r>     4.4198    79.5478   472.2911 </r>
       <r>     4.4744    60.4146   475.5886 </r>
       <r>     4.5290    60.4392   478.8874 </r>
       <r>     4.5835    66.1495   482.4979 </r>
       <r>     4.6381    62.1249   485.8888 </r>
       <r>     4.6927    46.6606   488.4355 </r>
       <r>     4.7473    40.7282   490.6585 </r>
       <r>     4.8019    33.2390   492.4728 </r>
       <r>     4.8564    20.1468   493.5724 </r>
       <r>     4.9110    24.3385   494.9008 </r>
       <r>     4.9656    48.9379   497.5719 </r>
       <r>     5.0202    27.9693   499.0985 </r>
       <r>     5.0748    22.4810   500.3255 </r>
       <r>     5.1293    30.9686   502.0159 </r>
       <r>     5.1839    22.2747   503.2316 </r>
       <r>     5.2385     7.2050   503.6249 </r>
       <r>     5.2931    16.0349   504.5001 </r>
       <r>     5.3477    13.2946   505.2257 </r>
       <r>     5.4022    14.1096   505.9958 </r>
       <r>     5.4568    13.4916   506.7322 </r>
       <r>     5.5114    22.8443   507.9791 </r>
       <r>     5.5660    32.1210   509.7323 </r>
       <r>     5.6206    17.7459   510.7009 </r>
       <r>     5.6751    10.0597   511.2499 </r>
       <r>     5.7297     4.5442   511.4980 </r>
       <r>     5.7843     4.6163   511.7500 </r>
       <r>     5.8389     0.0000   511.7500 </r>
       <r>     5.8935     0.0948   511.7552 </r>
       <r>     5.9481     4.4856   512.0000 </r>
       <r>     6.0026     0.0000   512.0000 </r>
       <r>     6.0572     0.0000   512.0000 </r>
       <r>     6.1118     2.1580   512.1178 </r>
       <r>     6.1664    16.7414   513.0315 </r>
       <r>     6.2210    17.8196   514.0042 </r>
       <r>     6.2755    13.6442   514.7489 </r>
       <r>     6.3301    13.3587   515.4780 </r>
       <r>     6.3847    27.4627   516.9769 </r>
       <r>     6.4393    29.9816   518.6134 </r>
       <r>     6.4939    15.9210   519.4823 </r>
       <r>     6.5484    23.0149   520.7385 </r>
       <r>     6.6030    23.6938   522.0318 </r>
       <r>     6.6576    18.1474   523.0223 </r>
       <r>     6.7122    23.2496   524.2913 </r>
       <r>     6.7668    18.6530   525.3094 </r>
       <r>     6.8213    41.9582   527.5995 </r>
       <r>     6.8759    36.3949   529.5860 </r>
       <r>     6.9305    30.7024   531.2618 </r>
       <r>     6.9851    36.6924   533.2645 </r>
       <r>     7.0397    61.1718   536.6033 </r>
       <r>     7.0943    27.3008   538.0934 </r>
       <r>     7.1488    29.5537   539.7065 </r>
       <r>     7.2034    19.9945   540.7978 </r>
       <r>     7.2580    48.8946   543.4665 </r>
       <r>     7.3126    84.4217   548.0743 </r>
       <r>     7.3672    66.6284   551.7110 </r>
       <r>     7.4217    79.3551   556.0423 </r>
       <r>     7.4763    91.5654   561.0400 </r>
       <r>     7.5309    68.9845   564.8054 </r>
       <r>     7.5855    89.6421   569.6981 </r>
       <r>     7.6401    93.4407   574.7982 </r>
       <r>     7.6946    79.2833   579.1256 </r>
       <r>     7.7492    88.5556   583.9591 </r>
       <r>     7.8038   100.9953   589.4716 </r>
       <r>     7.8584    90.4384   594.4079 </r>
       <r>     7.9130   101.0629   599.9240 </r>
       <r>     7.9675    87.8170   604.7172 </r>
       <r>     8.0221    88.1176   609.5267 </r>
       <r>     8.0767    90.3452   614.4579 </r>
       <r>     8.1313    74.1859   618.5070 </r>
       <r>     8.1859    87.2152   623.2673 </r>
       <r>     8.2405    90.5418   628.2092 </r>
       <r>     8.2950    77.4094   632.4343 </r>
       <r>     8.3496    82.1545   636.9184 </r>
       <r>     8.4042    75.9726   641.0650 </r>
       <r>     8.4588    37.5367   643.1139 </r>
       <r>     8.5134     2.4946   643.2500 </r>
       <r>     8.5679     9.1692   643.7505 </r>
       <r>     8.6225     4.5712   644.0000 </r>
       <r>     8.6771     0.0000   644.0000 </r>
       <r>     8.7317     0.0000   644.0000 </r>
       <r>     8.7863     0.0000   644.0000 </r>
       <r>     8.8408     0.0000   644.0000 </r>
       <r>     8.8954     0.0000   644.0000 </r>
       <r>     8.9500     0.0000   644.0000 </r>
       <r>     9.0046     0.0000   644.0000 </r>
       <r>     9.0592     0.0000   644.0000 </r>
       <r>     9.1137     0.0000   644.0000 </r>
       <r>     9.1683     0.0000   644.0000 </r>
       <r>     9.2229     0.0000   644.0000 </r>
       <r>     9.2775     0.0000   644.0000 </r>
       <r>     9.3321     0.0000   644.0000 </r>
      </set>
     </set>
    </array>
   </total>
  </dos>
 </calculation>
 <structure name="finalpos" >
  <crystal>
   <varray name="basis" >
    <v>       0.00000000      10.93733369      10.93733369 </v>
    <v>      10.93733369       0.00000000      10.93733369 </v>
    <v>      10.93733369      10.93733369       0.00000000 </v>
   </varray>
   <i name="volume">   2616.76295363 </i>
   <varray name="rec_basis" >
    <v>      -0.04571498       0.04571498       0.04571498 </v>
    <v>       0.04571498      -0.04571498       0.04571498 </v>
    <v>       0.04571498       0.04571498      -0.04571498 </v>
   </varray>
  </crystal>
  <varray name="positions" >
   <v>       0.99555173       0.00136898       0.00070106 </v>
   <v>       0.24992142       0.99606376       0.00801063 </v>
   <v>       0.49201387       0.99923441       0.99965113 </v>
   <v>       0.75425023       0.00384543       0.99719351 </v>
   <v>       0.00504696       0.24615216       0.99618284 </v>
   <v>       0.24420477       0.26499754       0.99665303 </v>
   <v>       0.50504766       0.25184354       0.99196604 </v>
   <v>       0.74844416       0.25353872       0.00002831 </v>
   <v>       0.99823048       0.50308659       0.98947649 </v>
   <v>       0.25223365       0.49744187       0.00243663 </v>
   <v>       0.51127150       0.49444039       0.99500949 </v>
   <v>       0.74538949       0.50439842       0.00830512 </v>
   <v>       0.00798501       0.74942089       0.99588474 </v>
   <v>       0.23691381       0.75682141       0.99744701 </v>
   <v>       0.50696443       0.74215107       0.00282962 </v>
   <v>       0.75732339       0.74578764       0.00473712 </v>
   <v>       0.00000086       0.99761642       0.23648270 </v>
   <v>       0.25484182       0.00825473       0.24253013 </v>
   <v>       0.50053171       0.99878948       0.25200022 </v>
   <v>       0.74979116       0.00270918       0.25336620 </v>
   <v>       0.00935952       0.24307440       0.25488047 </v>
   <v>       0.25267710       0.25006049       0.24362506 </v>
   <v>       0.49353476       0.25848130       0.24168594 </v>
   <v>       0.74282518       0.25344402       0.24981932 </v>
   <v>       0.00576896       0.49565395       0.25150110 </v>
   <v>       0.25234469       0.49594129       0.24637077 </v>
   <v>       0.48819587       0.49683483       0.25629257 </v>
   <v>       0.75984099       0.50221789       0.23736723 </v>
   <v>       0.99759719       0.74464477       0.24685505 </v>
   <v>       0.24255535       0.75778352       0.24382649 </v>
   <v>       0.49338275       0.74473650       0.25401929 </v>
   <v>       0.74509028       0.75370620       0.25529062 </v>
   <v>       0.00422014       0.00764026       0.49188059 </v>
   <v>       0.24756582       0.98967524       0.49803079 </v>
   <v>       0.48369285       0.00167755       0.50872114 </v>
   <v>       0.77387946       0.98558671       0.48968898 </v>
   <v>       0.99570470       0.25200618       0.49500426 </v>
   <v>       0.24724578       0.23942425       0.49853683 </v>
   <v>       0.50845495       0.25596527       0.49726025 </v>
   <v>       0.74461149       0.25608518       0.48929404 </v>
   <v>       0.99687779       0.49911784       0.50294568 </v>
   <v>       0.24969848       0.50826836       0.49872946 </v>
   <v>       0.49428511       0.50264179       0.49986642 </v>
   <v>       0.74348194       0.50515798       0.50058655 </v>
   <v>       0.99526677       0.76207950       0.48948615 </v>
   <v>       0.24444575       0.75112874       0.50783263 </v>
   <v>       0.50176694       0.73865565       0.50692497 </v>
   <v>       0.75820845       0.75138941       0.48997118 </v>
   <v>       0.99757740       0.00048370       0.74852287 </v>
   <v>       0.25496870       0.99846692       0.75546410 </v>
   <v>       0.51870063       0.99060346       0.74494742 </v>
   <v>       0.75915664       0.99542639       0.74428735 </v>
   <v>       0.00064814       0.24561272       0.76219823 </v>
   <v>       0.25671188       0.25340384       0.75212765 </v>
   <v>       0.49851035       0.25126077       0.75190009 </v>
   <v>       0.73609828       0.26264055       0.74894931 </v>
   <v>       0.99955415       0.49269012       0.74919096 </v>
   <v>       0.25542146       0.49156604       0.74641320 </v>
   <v>       0.50363141       0.49856788       0.74826581 </v>
   <v>       0.75644852       0.50088801       0.74242606 </v>
   <v>       0.00238869       0.75362746       0.75625848 </v>
   <v>       0.26436956       0.74290709       0.74805656 </v>
   <v>       0.48754962       0.75181042       0.75166487 </v>
   <v>       0.75319509       0.74216828       0.74874893 </v>
   <v>       0.06100863       0.06702000       0.05107381 </v>
   <v>       0.30911624       0.05340077       0.07004722 </v>
   <v>       0.55706490       0.06340611       0.06722319 </v>
   <v>       0.80400599       0.07258525       0.06865766 </v>
   <v>       0.06251590       0.30503070       0.07006003 </v>
   <v>       0.31290743       0.31243492       0.06160170 </v>
   <v>       0.55769830       0.31058114       0.07360486 </v>
   <v>       0.81783417       0.31020090       0.06453995 </v>
   <v>       0.05007258       0.56943120       0.06678234 </v>
   <v>       0.32345531       0.55554563       0.06719033 </v>
   <v>       0.56776853       0.55183421       0.05607093 </v>
   <v>       0.81137431       0.56780029       0.06036732 </v>
   <v>       0.05942339       0.80646857       0.07559515 </v>
   <v>       0.30950039       0.81810488       0.05861936 </v>
   <v>       0.57067987       0.81024215       0.06094895 </v>
   <v>       0.82467595       0.80594191       0.04796289 </v>
   <v>       0.06053191       0.06657348       0.30906728 </v>
   <v>       0.31326689       0.06006820       0.31129178 </v>
   <v>       0.56098088       0.06559483       0.31393288 </v>
   <v>       0.80166169       0.05731184       0.31833572 </v>
   <v>       0.06411623       0.31870852       0.31734424 </v>
   <v>       0.31010567       0.31882229       0.31370714 </v>
   <v>       0.55650434       0.31968027       0.30302521 </v>
   <v>       0.81644677       0.30768577       0.30834535 </v>
   <v>       0.06965554       0.55275411       0.31728422 </v>
   <v>       0.29486769       0.57848423       0.31981142 </v>
   <v>       0.56034855       0.56533319       0.31000445 </v>
   <v>       0.80556754       0.55834696       0.30992118 </v>
   <v>       0.05993325       0.80768921       0.30897067 </v>
   <v>       0.31264765       0.82303519       0.31608734 </v>
   <v>       0.55475390       0.81224518       0.31570729 </v>
   <v>       0.80864304       0.81287070       0.31237506 </v>
   <v>       0.06228810       0.07203940       0.56748993 </v>
   <v>       0.31088029       0.06117228       0.57312661 </v>
   <v>       0.56170028       0.07078754       0.56134482 </v>
   <v>       0.81371438       0.06676088       0.56157591 </v>
   <v>       0.06620289       0.29670047       0.57424306 </v>
   <v>       0.30887810       0.31740199       0.56359277 </v>
   <v>       0.54767569       0.32831038       0.55859902 </v>
   <v>       0.81956665       0.31682292       0.55526343 </v>
   <v>       0.05511038       0.57931369       0.56767970 </v>
   <v>       0.31801429       0.55638744       0.56760771 </v>
   <v>       0.55865984       0.55875995       0.56687226 </v>
   <v>       0.80136703       0.58190858       0.57122739 </v>
   <v>       0.06811265       0.81443827       0.56284889 </v>
   <v>       0.31554481       0.81386679       0.54880646 </v>
   <v>       0.56750175       0.81814401       0.56176198 </v>
   <v>       0.81112317       0.81085837       0.56317437 </v>
   <v>       0.05760545       0.06855436       0.82603158 </v>
   <v>       0.31679192       0.05950057       0.81864918 </v>
   <v>       0.57335296       0.05301152       0.82538808 </v>
   <v>       0.82297744       0.04903229       0.81286303 </v>
   <v>       0.06275060       0.30908203       0.81788797 </v>
   <v>       0.32191119       0.30571523       0.80772156 </v>
   <v>       0.54997801       0.31046473       0.82145895 </v>
   <v>       0.81295951       0.30570822       0.82115533 </v>
   <v>       0.06070678       0.56666698       0.79814516 </v>
   <v>       0.31454759       0.55801813       0.81397574 </v>
   <v>       0.56066923       0.56944553       0.81486115 </v>
   <v>       0.81626836       0.55424031       0.81104385 </v>
   <v>       0.06899046       0.82216285       0.80097074 </v>
   <v>       0.30498069       0.81429424       0.82107443 </v>
   <v>       0.56017504       0.81124954       0.80641938 </v>
   <v>       0.81062598       0.81593793       0.81513582 </v>
  </varray>
 </structure>
</modeling>
