potpaw_PBE@./ARUN.APL1ZEROSTATE         
           1
     0.000000   10.937334   10.937334
    10.937334    0.000000   10.937334
    10.937334   10.937334    0.000000
   Si
 128
Direct configuration=     1
   0.99555173  0.00136898  0.00070106
   0.24992142  0.99606376  0.00801063
   0.49201387  0.99923441  0.99965113
   0.75425023  0.00384543  0.99719351
   0.00504696  0.24615216  0.99618284
   0.24420477  0.26499754  0.99665303
   0.50504766  0.25184354  0.99196604
   0.74844416  0.25353872  0.00002831
   0.99823048  0.50308659  0.98947649
   0.25223365  0.49744187  0.00243663
   0.51127150  0.49444039  0.99500949
   0.74538949  0.50439842  0.00830512
   0.00798501  0.74942089  0.99588474
   0.23691381  0.75682141  0.99744701
   0.50696443  0.74215107  0.00282962
   0.75732339  0.74578764  0.00473712
   0.00000086  0.99761642  0.23648270
   0.25484182  0.00825473  0.24253013
   0.50053171  0.99878948  0.25200022
   0.74979116  0.00270918  0.25336620
   0.00935952  0.24307440  0.25488047
   0.25267710  0.25006049  0.24362506
   0.49353476  0.25848130  0.24168594
   0.74282518  0.25344402  0.24981932
   0.00576896  0.49565395  0.25150110
   0.25234469  0.49594129  0.24637077
   0.48819587  0.49683483  0.25629257
   0.75984099  0.50221789  0.23736723
   0.99759719  0.74464477  0.24685505
   0.24255535  0.75778352  0.24382649
   0.49338275  0.74473650  0.25401929
   0.74509028  0.75370620  0.25529062
   0.00422014  0.00764026  0.49188059
   0.24756582  0.98967524  0.49803079
   0.48369285  0.00167755  0.50872114
   0.77387946  0.98558671  0.48968898
   0.99570470  0.25200618  0.49500426
   0.24724578  0.23942425  0.49853683
   0.50845495  0.25596527  0.49726025
   0.74461149  0.25608518  0.48929404
   0.99687779  0.49911784  0.50294568
   0.24969848  0.50826836  0.49872946
   0.49428511  0.50264179  0.49986642
   0.74348194  0.50515798  0.50058655
   0.99526677  0.76207950  0.48948615
   0.24444575  0.75112874  0.50783263
   0.50176694  0.73865565  0.50692497
   0.75820845  0.75138941  0.48997118
   0.99757740  0.00048370  0.74852287
   0.25496870  0.99846692  0.75546410
   0.51870063  0.99060346  0.74494742
   0.75915664  0.99542639  0.74428735
   0.00064814  0.24561272  0.76219823
   0.25671188  0.25340384  0.75212765
   0.49851035  0.25126077  0.75190009
   0.73609828  0.26264055  0.74894931
   0.99955415  0.49269012  0.74919096
   0.25542146  0.49156604  0.74641320
   0.50363141  0.49856788  0.74826581
   0.75644852  0.50088801  0.74242606
   0.00238869  0.75362746  0.75625848
   0.26436956  0.74290709  0.74805656
   0.48754962  0.75181042  0.75166487
   0.75319509  0.74216828  0.74874893
   0.06100863  0.06702000  0.05107381
   0.30911624  0.05340077  0.07004722
   0.55706490  0.06340611  0.06722319
   0.80400599  0.07258525  0.06865766
   0.06251590  0.30503070  0.07006003
   0.31290743  0.31243492  0.06160170
   0.55769830  0.31058114  0.07360486
   0.81783417  0.31020090  0.06453995
   0.05007258  0.56943120  0.06678234
   0.32345531  0.55554563  0.06719033
   0.56776853  0.55183421  0.05607093
   0.81137431  0.56780029  0.06036732
   0.05942339  0.80646857  0.07559515
   0.30950039  0.81810488  0.05861936
   0.57067987  0.81024215  0.06094895
   0.82467595  0.80594191  0.04796289
   0.06053191  0.06657348  0.30906728
   0.31326689  0.06006820  0.31129178
   0.56098088  0.06559483  0.31393288
   0.80166169  0.05731184  0.31833572
   0.06411623  0.31870852  0.31734424
   0.31010567  0.31882229  0.31370714
   0.55650434  0.31968027  0.30302521
   0.81644677  0.30768577  0.30834535
   0.06965554  0.55275411  0.31728422
   0.29486769  0.57848423  0.31981142
   0.56034855  0.56533319  0.31000445
   0.80556754  0.55834696  0.30992118
   0.05993325  0.80768921  0.30897067
   0.31264765  0.82303519  0.31608734
   0.55475390  0.81224518  0.31570729
   0.80864304  0.81287070  0.31237506
   0.06228810  0.07203940  0.56748993
   0.31088029  0.06117228  0.57312661
   0.56170028  0.07078754  0.56134482
   0.81371438  0.06676088  0.56157591
   0.06620289  0.29670047  0.57424306
   0.30887810  0.31740199  0.56359277
   0.54767569  0.32831038  0.55859902
   0.81956665  0.31682292  0.55526343
   0.05511038  0.57931369  0.56767970
   0.31801429  0.55638744  0.56760771
   0.55865984  0.55875995  0.56687226
   0.80136703  0.58190858  0.57122739
   0.06811265  0.81443827  0.56284889
   0.31554481  0.81386679  0.54880646
   0.56750175  0.81814401  0.56176198
   0.81112317  0.81085837  0.56317437
   0.05760545  0.06855436  0.82603158
   0.31679192  0.05950057  0.81864918
   0.57335296  0.05301152  0.82538808
   0.82297744  0.04903229  0.81286303
   0.06275060  0.30908203  0.81788797
   0.32191119  0.30571523  0.80772156
   0.54997801  0.31046473  0.82145895
   0.81295951  0.30570822  0.82115533
   0.06070678  0.56666698  0.79814516
   0.31454759  0.55801813  0.81397574
   0.56066923  0.56944553  0.81486115
   0.81626836  0.55424031  0.81104385
   0.06899046  0.82216285  0.80097074
   0.30498069  0.81429424  0.82107443
   0.56017504  0.81124954  0.80641938
   0.81062598  0.81593793  0.81513582
