 128 128   0   0
  0.2044346E+02  0.1546773E-08  0.1546773E-08  0.1546773E-08  0.5000000E-15
  1.000000000000000E-004
  CAR 
 potpaw_PBE@./ARUN.APL1ZEROSTATE         
      9.36490761     -7.04703997  301      5.93207524      1.00000000
     -7.047  0.0000E+00  0.0000E+00
     -6.992  0.0000E+00  0.0000E+00
     -6.938  0.0000E+00  0.0000E+00
     -6.883  0.0000E+00  0.0000E+00
     -6.828  0.0000E+00  0.0000E+00
     -6.774  0.0000E+00  0.0000E+00
     -6.719  0.0000E+00  0.0000E+00
     -6.664  0.0000E+00  0.0000E+00
     -6.609  0.0000E+00  0.0000E+00
     -6.555  0.0000E+00  0.0000E+00
     -6.500  0.0000E+00  0.0000E+00
     -6.445  0.0000E+00  0.0000E+00
     -6.391  0.0000E+00  0.0000E+00
     -6.336  0.1944E-05  0.1064E-06
     -6.281  0.4559E+01  0.2494E+00
     -6.226  0.1120E-01  0.2500E+00
     -6.172  0.7563E-03  0.2500E+00
     -6.117  0.1810E+02  0.1240E+01
     -6.062  0.3077E+02  0.2923E+01
     -6.008  0.1077E+02  0.3512E+01
     -5.953  0.4344E+01  0.3750E+01
     -5.898  0.8785E-05  0.3750E+01
     -5.843  0.1303E+02  0.4463E+01
     -5.789  0.1053E+02  0.5039E+01
     -5.734  0.1939E+02  0.6100E+01
     -5.679  0.3536E+02  0.8034E+01
     -5.625  0.2150E+02  0.9210E+01
     -5.570  0.2515E+02  0.1059E+02
     -5.515  0.3733E+02  0.1263E+02
     -5.461  0.2934E+02  0.1423E+02
     -5.406  0.9175E+01  0.1474E+02
     -5.351  0.4740E+01  0.1499E+02
     -5.296  0.9428E-01  0.1500E+02
     -5.242  0.8974E+01  0.1549E+02
     -5.187  0.3355E+02  0.1733E+02
     -5.132  0.3223E+02  0.1909E+02
     -5.078  0.3965E+02  0.2126E+02
     -5.023  0.4655E+02  0.2381E+02
     -4.968  0.4453E+02  0.2624E+02
     -4.913  0.3022E+02  0.2789E+02
     -4.859  0.1563E+02  0.2875E+02
     -4.804  0.1795E+02  0.2973E+02
     -4.749  0.3064E+02  0.3141E+02
     -4.695  0.3670E+02  0.3342E+02
     -4.640  0.4811E+02  0.3605E+02
     -4.585  0.4861E+02  0.3871E+02
     -4.531  0.2348E+02  0.3999E+02
     -4.476  0.2311E+02  0.4126E+02
     -4.421  0.2468E+02  0.4261E+02
     -4.366  0.1643E+02  0.4350E+02
     -4.312  0.1422E+02  0.4428E+02
     -4.257  0.5881E+02  0.4750E+02
     -4.202  0.6597E+02  0.5111E+02
     -4.148  0.5167E+02  0.5394E+02
     -4.093  0.5360E+02  0.5687E+02
     -4.038  0.5645E+02  0.5996E+02
     -3.983  0.3900E+02  0.6209E+02
     -3.929  0.5367E+02  0.6503E+02
     -3.874  0.5668E+02  0.6813E+02
     -3.819  0.4975E+02  0.7085E+02
     -3.765  0.5606E+02  0.7391E+02
     -3.710  0.5143E+02  0.7673E+02
     -3.655  0.3272E+02  0.7852E+02
     -3.601  0.2745E+02  0.8002E+02
     -3.546  0.3004E+02  0.8166E+02
     -3.491  0.3664E+02  0.8367E+02
     -3.436  0.5683E+02  0.8678E+02
     -3.382  0.4834E+02  0.8942E+02
     -3.327  0.6277E+02  0.9286E+02
     -3.272  0.3963E+02  0.9502E+02
     -3.218  0.3619E+02  0.9700E+02
     -3.163  0.2981E+02  0.9863E+02
     -3.108  0.3885E+02  0.1008E+03
     -3.053  0.5355E+02  0.1037E+03
     -2.999  0.3592E+02  0.1057E+03
     -2.944  0.3990E+02  0.1078E+03
     -2.889  0.4231E+02  0.1102E+03
     -2.835  0.3117E+02  0.1119E+03
     -2.780  0.3478E+02  0.1138E+03
     -2.725  0.2864E+02  0.1153E+03
     -2.671  0.3822E+02  0.1174E+03
     -2.616  0.2310E+02  0.1187E+03
     -2.561  0.3823E+02  0.1208E+03
     -2.506  0.1965E+02  0.1218E+03
     -2.452  0.1649E+02  0.1227E+03
     -2.397  0.4567E+01  0.1230E+03
     -2.342  0.3667E+00  0.1230E+03
     -2.288  0.1701E+02  0.1240E+03
     -2.233  0.1262E+02  0.1246E+03
     -2.178  0.1726E+02  0.1256E+03
     -2.123  0.2855E+02  0.1271E+03
     -2.069  0.1678E+02  0.1281E+03
     -2.014  0.2723E+02  0.1296E+03
     -1.959  0.1981E+02  0.1306E+03
     -1.905  0.2129E+02  0.1318E+03
     -1.850  0.1467E+02  0.1326E+03
     -1.795  0.7208E+01  0.1330E+03
     -1.741  0.4295E+01  0.1332E+03
     -1.686  0.1782E+01  0.1333E+03
     -1.631  0.1266E+02  0.1340E+03
     -1.576  0.2026E+02  0.1351E+03
     -1.522  0.5608E+02  0.1382E+03
     -1.467  0.2207E+02  0.1394E+03
     -1.412  0.5226E+02  0.1423E+03
     -1.358  0.3109E+02  0.1440E+03
     -1.303  0.5525E+02  0.1470E+03
     -1.248  0.7928E+02  0.1513E+03
     -1.193  0.5592E+02  0.1544E+03
     -1.139  0.5712E+02  0.1575E+03
     -1.084  0.8153E+02  0.1620E+03
     -1.029  0.6067E+02  0.1653E+03
     -0.975  0.7565E+02  0.1694E+03
     -0.920  0.4933E+02  0.1721E+03
     -0.865  0.6544E+02  0.1757E+03
     -0.810  0.4908E+02  0.1784E+03
     -0.756  0.4881E+02  0.1811E+03
     -0.701  0.5898E+02  0.1843E+03
     -0.646  0.2591E+02  0.1857E+03
     -0.592  0.3521E+02  0.1876E+03
     -0.537  0.2953E+02  0.1893E+03
     -0.482  0.1303E+02  0.1900E+03
     -0.428  0.2216E+02  0.1912E+03
     -0.373  0.4456E+02  0.1936E+03
     -0.318  0.5469E+02  0.1966E+03
     -0.263  0.4217E+02  0.1989E+03
     -0.209  0.5347E+02  0.2018E+03
     -0.154  0.4856E+02  0.2045E+03
     -0.099  0.4182E+02  0.2068E+03
     -0.045  0.3905E+02  0.2089E+03
      0.010  0.4556E+02  0.2114E+03
      0.065  0.2067E+02  0.2125E+03
      0.120  0.1593E+02  0.2134E+03
      0.174  0.1942E+02  0.2145E+03
      0.229  0.7195E+01  0.2149E+03
      0.284  0.2442E+02  0.2162E+03
      0.338  0.2512E+02  0.2176E+03
      0.393  0.1366E+02  0.2183E+03
      0.448  0.1986E+02  0.2194E+03
      0.502  0.2789E+02  0.2209E+03
      0.557  0.2377E+02  0.2222E+03
      0.612  0.2345E+02  0.2235E+03
      0.667  0.2810E+02  0.2251E+03
      0.721  0.1447E+02  0.2259E+03
      0.776  0.2120E+02  0.2270E+03
      0.831  0.1341E+02  0.2277E+03
      0.885  0.3297E+00  0.2278E+03
      0.940  0.2628E+02  0.2292E+03
      0.995  0.2636E+02  0.2306E+03
      1.050  0.1982E+02  0.2317E+03
      1.104  0.2357E+02  0.2330E+03
      1.159  0.3927E+02  0.2352E+03
      1.214  0.2120E+02  0.2363E+03
      1.268  0.2214E+02  0.2375E+03
      1.323  0.3262E+02  0.2393E+03
      1.378  0.3417E+02  0.2412E+03
      1.432  0.5174E+02  0.2440E+03
      1.487  0.6930E+02  0.2478E+03
      1.542  0.8867E+02  0.2527E+03
      1.597  0.6342E+02  0.2561E+03
      1.651  0.8710E+02  0.2609E+03
      1.706  0.7510E+02  0.2650E+03
      1.761  0.5289E+02  0.2679E+03
      1.815  0.5516E+02  0.2709E+03
      1.870  0.2782E+02  0.2724E+03
      1.925  0.2009E+02  0.2735E+03
      1.980  0.1808E+02  0.2745E+03
      2.034  0.4936E+02  0.2772E+03
      2.089  0.8474E+02  0.2819E+03
      2.144  0.8573E+02  0.2866E+03
      2.198  0.1089E+03  0.2925E+03
      2.253  0.1221E+03  0.2992E+03
      2.308  0.1132E+03  0.3054E+03
      2.362  0.1043E+03  0.3111E+03
      2.417  0.1012E+03  0.3166E+03
      2.472  0.6899E+02  0.3204E+03
      2.527  0.4438E+02  0.3228E+03
      2.581  0.3138E+02  0.3245E+03
      2.636  0.4692E+02  0.3271E+03
      2.691  0.6935E+02  0.3309E+03
      2.745  0.9249E+02  0.3360E+03
      2.800  0.7998E+02  0.3403E+03
      2.855  0.9242E+02  0.3454E+03
      2.910  0.9894E+02  0.3508E+03
      2.964  0.9953E+02  0.3563E+03
      3.019  0.9060E+02  0.3612E+03
      3.074  0.7642E+02  0.3654E+03
      3.128  0.1013E+03  0.3709E+03
      3.183  0.6685E+02  0.3746E+03
      3.238  0.8438E+02  0.3792E+03
      3.292  0.1085E+03  0.3851E+03
      3.347  0.9433E+02  0.3903E+03
      3.402  0.8640E+02  0.3950E+03
      3.457  0.8833E+02  0.3999E+03
      3.511  0.8722E+02  0.4046E+03
      3.566  0.8664E+02  0.4094E+03
      3.621  0.7445E+02  0.4134E+03
      3.675  0.7105E+02  0.4173E+03
      3.730  0.6864E+02  0.4211E+03
      3.785  0.8941E+02  0.4260E+03
      3.840  0.7902E+02  0.4303E+03
      3.894  0.7658E+02  0.4345E+03
      3.949  0.8093E+02  0.4389E+03
      4.004  0.6287E+02  0.4424E+03
      4.058  0.6573E+02  0.4460E+03
      4.113  0.6394E+02  0.4495E+03
      4.168  0.6961E+02  0.4533E+03
      4.222  0.6088E+02  0.4566E+03
      4.277  0.8879E+02  0.4614E+03
      4.332  0.7033E+02  0.4653E+03
      4.387  0.7459E+02  0.4694E+03
      4.441  0.6561E+02  0.4730E+03
      4.496  0.7698E+02  0.4772E+03
      4.551  0.5391E+02  0.4801E+03
      4.605  0.7269E+02  0.4841E+03
      4.660  0.4333E+02  0.4865E+03
      4.715  0.5171E+02  0.4893E+03
      4.770  0.3742E+02  0.4914E+03
      4.824  0.2094E+02  0.4925E+03
      4.879  0.2282E+02  0.4937E+03
      4.934  0.4585E+02  0.4963E+03
      4.988  0.1985E+02  0.4973E+03
      5.043  0.3311E+02  0.4991E+03
      5.098  0.3858E+02  0.5013E+03
      5.153  0.3883E+02  0.5034E+03
      5.207  0.4546E+01  0.5036E+03
      5.262  0.8296E+01  0.5041E+03
      5.317  0.2972E+01  0.5043E+03
      5.371  0.1449E+02  0.5050E+03
      5.426  0.2983E+02  0.5067E+03
      5.481  0.2279E+02  0.5079E+03
      5.535  0.3187E+02  0.5097E+03
      5.590  0.1525E+02  0.5105E+03
      5.645  0.4151E+01  0.5107E+03
      5.700  0.1414E+02  0.5115E+03
      5.754  0.4169E+01  0.5117E+03
      5.809  0.4004E+00  0.5118E+03
      5.864  0.1700E+00  0.5118E+03
      5.918  0.4400E+01  0.5120E+03
      5.973  0.0000E+00  0.5120E+03
      6.028  0.0000E+00  0.5120E+03
      6.083  0.2870E-02  0.5120E+03
      6.137  0.1247E+02  0.5127E+03
      6.192  0.1783E+02  0.5137E+03
      6.247  0.1072E+02  0.5142E+03
      6.301  0.1970E+02  0.5153E+03
      6.356  0.2096E+02  0.5165E+03
      6.411  0.2543E+02  0.5179E+03
      6.465  0.2858E+02  0.5194E+03
      6.520  0.2104E+02  0.5206E+03
      6.575  0.1232E+02  0.5212E+03
      6.630  0.2273E+02  0.5225E+03
      6.684  0.1681E+02  0.5234E+03
      6.739  0.3926E+02  0.5256E+03
      6.794  0.3498E+02  0.5275E+03
      6.848  0.2225E+02  0.5287E+03
      6.903  0.3724E+02  0.5307E+03
      6.958  0.3730E+02  0.5328E+03
      7.013  0.4887E+02  0.5354E+03
      7.067  0.4115E+02  0.5377E+03
      7.122  0.2674E+02  0.5392E+03
      7.177  0.2390E+02  0.5405E+03
      7.231  0.4340E+02  0.5428E+03
      7.286  0.7212E+02  0.5468E+03
      7.341  0.7701E+02  0.5510E+03
      7.395  0.7307E+02  0.5550E+03
      7.450  0.7508E+02  0.5591E+03
      7.505  0.9217E+02  0.5641E+03
      7.560  0.7162E+02  0.5681E+03
      7.614  0.9608E+02  0.5733E+03
      7.669  0.9280E+02  0.5784E+03
      7.724  0.7112E+02  0.5823E+03
      7.778  0.9796E+02  0.5876E+03
      7.833  0.9307E+02  0.5927E+03
      7.888  0.9511E+02  0.5979E+03
      7.943  0.9129E+02  0.6029E+03
      7.997  0.8702E+02  0.6077E+03
      8.052  0.9250E+02  0.6128E+03
      8.107  0.8397E+02  0.6173E+03
      8.161  0.7366E+02  0.6214E+03
      8.216  0.7544E+02  0.6255E+03
      8.271  0.1009E+03  0.6310E+03
      8.325  0.7366E+02  0.6351E+03
      8.380  0.8126E+02  0.6395E+03
      8.435  0.5107E+02  0.6423E+03
      8.490  0.1745E+02  0.6432E+03
      8.544  0.1662E+01  0.6433E+03
      8.599  0.7488E+01  0.6438E+03
      8.654  0.4559E+01  0.6440E+03
      8.708  0.0000E+00  0.6440E+03
      8.763  0.0000E+00  0.6440E+03
      8.818  0.0000E+00  0.6440E+03
      8.873  0.0000E+00  0.6440E+03
      8.927  0.0000E+00  0.6440E+03
      8.982  0.0000E+00  0.6440E+03
      9.037  0.0000E+00  0.6440E+03
      9.091  0.0000E+00  0.6440E+03
      9.146  0.0000E+00  0.6440E+03
      9.201  0.0000E+00  0.6440E+03
      9.255  0.0000E+00  0.6440E+03
      9.310  0.0000E+00  0.6440E+03
      9.365  0.0000E+00  0.6440E+03
