 vasp.5.4.4.18Apr17-6-g9f103f2a35 (build Nov 08 2017 09:05:29) complex          
  
 executed on          Intel_17.33 date 2020.07.18  19:07:01
 running on   32 total cores
 distrk:  each k-point on   32 cores,    1 groups
 distr:  one band on NCORES_PER_BAND=  16 cores,    2 groups


--------------------------------------------------------------------------------------------------------


 INCAR:
 POTCAR:   PAW_PBE Si 05Jan2001                   

 ----------------------------------------------------------------------------- 
|                                                                             |
|           W    W    AA    RRRRR   N    N  II  N    N   GGGG   !!!           |
|           W    W   A  A   R    R  NN   N  II  NN   N  G    G  !!!           |
|           W    W  A    A  R    R  N N  N  II  N N  N  G       !!!           |
|           W WW W  AAAAAA  RRRRR   N  N N  II  N  N N  G  GGG   !            |
|           WW  WW  A    A  R   R   N   NN  II  N   NN  G    G                |
|           W    W  A    A  R    R  N    N  II  N    N   GGGG   !!!           |
|                                                                             |
|      For optimal performance we recommend to set                            |
|        NCORE= 4 - approx SQRT( number of cores)                             |
|      NCORE specifies how many cores store one orbital (NPAR=cpu/NCORE).     |
|      This setting can  greatly improve the performance of VASP for DFT.     |
|      The default,   NCORE=1            might be grossly inefficient         |
|      on modern multi-core architectures or massively parallel machines.     |
|      Do your own testing !!!!                                               |
|      Unfortunately you need to use the default for GW and RPA calculations. |
|      (for HF NCORE is supported but not extensively tested yet)             |
|                                                                             |
 ----------------------------------------------------------------------------- 

 POTCAR:   PAW_PBE Si 05Jan2001                   
   VRHFIN =Si: s2p2                                                             
   LEXCH  = PE                                                                  
   EATOM  =   103.0669 eV,    7.5752 Ry                                         
                                                                                
   TITEL  = PAW_PBE Si 05Jan2001                                                
   LULTRA =        F    use ultrasoft PP ?                                      
   IUNSCR =        1    unscreen: 0-lin 1-nonlin 2-no                           
   RPACOR =    1.500    partial core radius                                     
   POMASS =   28.085; ZVAL   =    4.000    mass and valenz                      
   RCORE  =    1.900    outmost cutoff radius                                   
   RWIGS  =    2.480; RWIGS  =    1.312    wigner-seitz radius (au A)           
   ENMAX  =  245.345; ENMIN  =  184.009 eV                                      
   ICORE  =        2    local potential                                         
   LCOR   =        T    correct aug charges                                     
   LPAW   =        T    paw PP                                                  
   EAUG   =  322.069                                                            
   DEXC   =    -.007                                                            
   RMAX   =    2.944    core radius for proj-oper                               
   RAUG   =    1.300    factor for augmentation sphere                          
   RDEP   =    1.993    radius for radial grids                                 
   QCUT   =   -4.246; QGAM   =    8.493    optimization parameters              
                                                                                
   Description                                                                  
     l     E      TYP  RCUT    TYP  RCUT                                        
     0   .000     23  1.900                                                     
     0   .000     23  1.900                                                     
     1   .000     23  1.900                                                     
     1   .000     23  1.900                                                     
     2   .000      7  1.900                                                     
  local pseudopotential read in
  partial core-charges read in
  atomic valenz-charges read in
  non local Contribution for L=           0  read in
    real space projection operators read in
  non local Contribution for L=           0  read in
    real space projection operators read in
  non local Contribution for L=           1  read in
    real space projection operators read in
  non local Contribution for L=           1  read in
    real space projection operators read in
    PAW grid and wavefunctions read in
 
   number of l-projection  operators is LMAX  =           4
   number of lm-projection operators is LMMAX =           8
 

 ----------------------------------------------------------------------------- 
|                                                                             |
|  ADVICE TO THIS USER RUNNING 'VASP/VAMP'   (HEAR YOUR MASTER'S VOICE ...):  |
|                                                                             |
|      You have a (more or less) 'large supercell' and for larger cells       |
|      it might be more efficient to use real space projection operators      |
|      So try LREAL= Auto  in the INCAR   file.                               |
|      Mind: If you want to do a very accurate calculations keep the          |
|      reciprocal projection scheme          (i.e. LREAL=.FALSE.)             |
|                                                                             |
 ----------------------------------------------------------------------------- 

 PAW_PBE Si 05Jan2001                   :
 energy of atom  1       EATOM= -103.0669
 kinetic energy error for atom=    0.0006 (will be added to EATOM!!)
 
 
 POSCAR: kk                                      
  positions in direct lattice
  No initial velocities read in
 exchange correlation table for  LEXCH =        8
   RHO(1)=    0.500       N(1)  =     2000
   RHO(2)=  100.500       N(2)  =     4000
 


--------------------------------------------------------------------------------------------------------


 ion  position               nearest neighbor table
   1  0.004  0.994  0.996-  68 2.25  77 2.26  65 2.39 113 2.43
   2  0.246  0.996  0.993- 114 2.28  78 2.31  65 2.37  66 2.48
   3  0.522  0.996  0.993- 115 2.22  79 2.29  67 2.32  66 2.77
   4  0.755  0.994  0.996- 116 2.23  80 2.25  67 2.42  68 2.48
   5  0.997  0.250  0.002-  72 2.34  65 2.37  69 2.49 117 2.51
   6  0.246  0.248  1.000-  69 2.21  66 2.32 118 2.44  70 2.51
   7  0.507  0.244  0.002-  67 2.25  71 2.32  70 2.42 119 2.53
   8  0.744  0.250  0.016-  72 2.33  71 2.35  68 2.45 120 2.67
   9  0.999  0.500  0.998-  73 2.23 121 2.23  69 2.31  76 2.38
  10  0.246  0.504  0.996- 122 2.26  74 2.30  73 2.43  70 2.50
  11  0.502  0.492  0.996-  71 2.28 123 2.31  74 2.54  75 2.56
  12  0.750  0.497  0.007-  72 2.25  75 2.31  76 2.43 124 2.47
  13  0.010  0.741  0.998- 125 2.38  73 2.39  80 2.47  77 2.64
  14  0.247  0.751  0.999-  78 2.31  77 2.34 126 2.43  74 2.44
  15  0.497  0.750  0.995-  75 2.28 127 2.42  78 2.46  79 2.49
  16  0.748  0.747  0.003- 128 2.24  76 2.28  80 2.38  79 2.39
  17  0.988  0.988  0.254-  84 2.24  93 2.35  65 2.43  81 2.47
  18  0.245  0.010  0.257-  82 2.14  94 2.33  81 2.42  66 2.45
  19  0.502  0.003  0.248-  95 2.23  67 2.34  83 2.36  82 2.59
  20  0.745  0.998  0.249-  83 2.26  96 2.38  68 2.42  84 2.47
  21  0.995  0.240  0.257-  81 2.28  88 2.34  85 2.49  69 2.56
  22  0.249  0.263  0.253-  82 2.30  70 2.33  85 2.37  86 2.39
  23  0.504  0.257  0.246-  71 2.25  86 2.34  87 2.42  83 2.43
  24  0.752  0.257  0.249-  72 2.35  88 2.40  87 2.45  84 2.47
  25  0.999  0.502  0.246-  73 2.27  85 2.41  89 2.42  92 2.45
  26  0.243  0.499  0.240-  74 2.17  89 2.26  86 2.36  90 2.70
  27  0.497  0.500  0.241-  87 2.34  75 2.38  90 2.39  91 2.60
  28  0.752  0.495  0.250-  88 2.22  76 2.30  91 2.35  92 2.46
  29  0.998  0.739  0.265-  93 2.21  96 2.35  89 2.37  77 2.38
  30  0.245  0.752  0.236-  78 2.18  90 2.27  93 2.36  94 2.67
  31  0.499  0.761  0.240-  79 2.22  95 2.33  91 2.45  94 2.50
  32  0.749  0.759  0.246-  96 2.23  92 2.39  80 2.39  95 2.47
  33  0.995  0.005  0.499- 100 2.33  81 2.38  97 2.39 109 2.48
  34  0.252  0.993  0.518-  98 2.25 110 2.27  97 2.29  82 2.76
  35  0.493  0.992  0.500- 111 2.24  98 2.33  83 2.43  99 2.68
  36  0.759  0.010  0.498- 100 2.23  84 2.34 112 2.39  99 2.44
  37  0.998  0.251  0.498-  85 2.31 101 2.45  97 2.50 104 2.53
  38  0.262  0.251  0.496- 102 2.11  86 2.23  98 2.39 101 2.61
  39  0.494  0.255  0.498-  87 2.20 102 2.21  99 2.38 103 2.51
  40  0.740  0.254  0.501- 103 2.23 104 2.31  88 2.33 100 2.34
  41  0.004  0.498  0.491-  89 2.14 105 2.37 101 2.47 108 2.50
  42  0.258  0.490  0.499- 102 2.37  90 2.39 106 2.40 105 2.57
  43  0.510  0.493  0.489-  91 2.27 103 2.36 107 2.39 106 2.44
  44  0.745  0.493  0.507- 104 2.25  92 2.42 108 2.44 107 2.47
  45  0.006  0.761  0.492- 109 2.22  93 2.26 105 2.45 112 2.54
  46  0.251  0.745  0.498- 109 2.24  94 2.29 106 2.34 110 2.43
  47  0.505  0.752  0.488- 107 2.30  95 2.32 110 2.41 111 2.52
  48  0.754  0.746  0.509- 112 2.30 108 2.30 111 2.31  96 2.53
  49  0.002  0.999  0.743-  97 2.28 116 2.30 125 2.35 113 2.40
  50  0.240  0.004  0.760- 113 2.29  98 2.41 114 2.46 126 2.51
  51  0.517  0.992  0.756- 115 2.26 127 2.36  99 2.44 114 2.51
  52  0.746  0.001  0.750- 100 2.36 116 2.42 115 2.49 128 2.49
  53  0.993  0.246  0.759- 113 2.21 101 2.26 120 2.32 117 2.40
  54  0.252  0.249  0.758- 118 2.19 117 2.32 114 2.33 102 2.60
  55  0.494  0.258  0.747- 103 2.21 119 2.23 118 2.29 115 2.36
  56  0.763  0.250  0.740- 104 2.24 120 2.28 119 2.50 116 2.57
  57  0.990  0.498  0.764- 124 2.29 121 2.31 117 2.32 105 2.60
  58  0.255  0.499  0.746- 118 2.34 106 2.36 121 2.41 122 2.43
  59  0.499  0.501  0.755- 123 2.30 122 2.42 119 2.46 107 2.49
  60  0.759  0.497  0.738- 108 2.16 120 2.27 123 2.44 124 2.47
  61  0.994  0.755  0.760- 125 2.27 128 2.31 121 2.61 109 2.64
  62  0.250  0.749  0.747- 122 2.30 125 2.34 110 2.38 126 2.53
  63  0.506  0.741  0.751- 126 2.21 123 2.31 127 2.31 111 2.46
  64  0.762  0.739  0.757- 124 2.17 128 2.32 127 2.43 112 2.46
  65  0.058  0.062  0.063-   2 2.37   5 2.37   1 2.39  17 2.43
  66  0.303  0.064  0.064-   6 2.32  18 2.45   2 2.48   3 2.77
  67  0.564  0.067  0.063-   7 2.25   3 2.32  19 2.34   4 2.42
  68  0.826  0.057  0.058-   1 2.25  20 2.42   8 2.45   4 2.48
  69  0.072  0.318  0.056-   6 2.21   9 2.31   5 2.49  21 2.56
  70  0.316  0.307  0.069-  22 2.33   7 2.42  10 2.50   6 2.51
  71  0.558  0.311  0.068-  23 2.25  11 2.28   7 2.32   8 2.35
  72  0.812  0.319  0.063-  12 2.25   8 2.33   5 2.34  24 2.35
  73  0.054  0.553  0.067-   9 2.23  25 2.27  13 2.39  10 2.43
  74  0.301  0.558  0.068-  26 2.17  10 2.30  14 2.44  11 2.54
  75  0.568  0.570  0.054-  15 2.28  12 2.31  27 2.38  11 2.56
  76  0.810  0.567  0.068-  16 2.28  28 2.30   9 2.38  12 2.43
  77  0.063  0.817  0.077-   1 2.26  14 2.34  29 2.38  13 2.64
  78  0.302  0.814  0.064-  30 2.18   2 2.31  14 2.31  15 2.46
  79  0.559  0.816  0.065-  31 2.22   3 2.29  16 2.39  15 2.49
  80  0.815  0.815  0.057-   4 2.25  16 2.38  32 2.39  13 2.47
  81  0.055  0.060  0.311-  21 2.28  33 2.38  18 2.42  17 2.47
  82  0.297  0.082  0.302-  18 2.14  22 2.30  19 2.59  34 2.76
  83  0.567  0.064  0.309-  20 2.26  19 2.36  23 2.43  35 2.43
  84  0.812  0.062  0.313-  17 2.24  36 2.34  24 2.47  20 2.47
  85  0.062  0.311  0.316-  37 2.31  22 2.37  25 2.41  21 2.49
  86  0.319  0.315  0.319-  38 2.23  23 2.34  26 2.36  22 2.39
  87  0.558  0.316  0.324-  39 2.20  27 2.34  23 2.42  24 2.45
  88  0.811  0.320  0.317-  28 2.22  40 2.33  21 2.34  24 2.40
  89  0.066  0.551  0.322-  41 2.14  26 2.26  29 2.37  25 2.42
  90  0.309  0.575  0.312-  30 2.27  42 2.39  27 2.39  26 2.70
  91  0.566  0.568  0.310-  43 2.27  28 2.35  31 2.45  27 2.60
  92  0.805  0.570  0.316-  32 2.39  44 2.42  25 2.45  28 2.46
  93  0.059  0.802  0.315-  29 2.21  45 2.26  17 2.35  30 2.36
  94  0.302  0.825  0.318-  46 2.29  18 2.33  31 2.50  30 2.67
  95  0.554  0.827  0.305-  19 2.23  47 2.32  31 2.33  32 2.47
  96  0.812  0.809  0.310-  32 2.23  29 2.35  20 2.38  48 2.53
  97  0.072  0.053  0.562-  49 2.28  34 2.29  33 2.39  37 2.50
  98  0.309  0.063  0.569-  34 2.25  35 2.33  38 2.39  50 2.41
  99  0.566  0.067  0.563-  39 2.38  51 2.44  36 2.44  35 2.68
 100  0.810  0.069  0.563-  36 2.23  33 2.33  40 2.34  52 2.36
 101  0.056  0.304  0.580-  53 2.26  37 2.45  41 2.47  38 2.61
 102  0.320  0.303  0.553-  38 2.11  39 2.21  42 2.37  54 2.60
 103  0.564  0.308  0.573-  55 2.21  40 2.23  43 2.36  39 2.51
 104  0.798  0.315  0.565-  56 2.24  44 2.25  40 2.31  37 2.53
 105  0.055  0.567  0.559-  41 2.37  45 2.45  42 2.57  57 2.60
 106  0.318  0.560  0.559-  46 2.34  58 2.36  42 2.40  43 2.44
 107  0.550  0.571  0.559-  47 2.30  43 2.39  44 2.47  59 2.49
 108  0.806  0.564  0.567-  60 2.16  48 2.30  44 2.44  41 2.50
 109  0.074  0.809  0.551-  45 2.22  46 2.24  33 2.48  61 2.64
 110  0.314  0.815  0.558-  34 2.27  62 2.38  47 2.41  46 2.43
 111  0.572  0.815  0.557-  35 2.24  48 2.31  63 2.46  47 2.52
 112  0.806  0.821  0.564-  48 2.30  36 2.39  64 2.46  45 2.54
 113  0.060  0.071  0.804-  53 2.21  50 2.29  49 2.40   1 2.43
 114  0.319  0.065  0.814-   2 2.28  54 2.33  50 2.46  51 2.51
 115  0.549  0.072  0.820-   3 2.22  51 2.26  55 2.36  52 2.49
 116  0.821  0.046  0.819-   4 2.23  49 2.30  52 2.42  56 2.57
 117  0.069  0.315  0.803-  57 2.32  54 2.32  53 2.40   5 2.51
 118  0.312  0.313  0.806-  54 2.19  55 2.29  58 2.34   6 2.44
 119  0.566  0.307  0.802-  55 2.23  59 2.46  56 2.50   7 2.53
 120  0.810  0.318  0.805-  60 2.27  56 2.28  53 2.32   8 2.67
 121  0.065  0.548  0.822-   9 2.23  57 2.31  58 2.41  61 2.61
 122  0.307  0.568  0.817-  10 2.26  62 2.30  59 2.42  58 2.43
 123  0.566  0.558  0.813-  59 2.30  63 2.31  11 2.31  60 2.44
 124  0.810  0.568  0.811-  64 2.17  57 2.29  60 2.47  12 2.47
 125  0.065  0.813  0.810-  61 2.27  62 2.34  49 2.35  13 2.38
 126  0.332  0.807  0.808-  63 2.21  14 2.43  50 2.51  62 2.53
 127  0.570  0.806  0.804-  63 2.31  51 2.36  15 2.42  64 2.43
 128  0.812  0.804  0.826-  16 2.24  61 2.31  64 2.32  52 2.49
 
  LATTYP: Found a face centered cubic cell.
 ALAT       =    21.8746673814
  
  Lattice vectors:
  
 A1 = (   0.0000000000,  10.9373336907,  10.9373336907)
 A2 = (  10.9373336907,   0.0000000000,  10.9373336907)
 A3 = (  10.9373336907,  10.9373336907,   0.0000000000)


Analysis of symmetry for initial positions (statically):
=====================================================================
 Subroutine PRICEL returns:
 Original cell was already a primitive cell.
 

 Routine SETGRP: Setting up the symmetry group for a 
 face centered cubic supercell.


 Subroutine GETGRP returns: Found  1 space group operations
 (whereof  1 operations were pure point group operations)
 out of a pool of 48 trial point group operations.


The static configuration has the point symmetry C_1 .


Analysis of symmetry for dynamics (positions and initial velocities):
=====================================================================
 Subroutine PRICEL returns:
 Original cell was already a primitive cell.
 

 Routine SETGRP: Setting up the symmetry group for a 
 face centered cubic supercell.


 Subroutine GETGRP returns: Found  1 space group operations
 (whereof  1 operations were pure point group operations)
 out of a pool of 48 trial point group operations.


The dynamic configuration has the point symmetry C_1 .


 Subroutine INISYM returns: Found  1 space group operations
 (whereof  1 operations are pure point group operations),
 and found     1 'primitive' translations

 
 
 KPOINTS: KPOINTS File, automatically generated by

Automatic generation of k-mesh.
Space group operators:
 irot       det(A)        alpha          n_x          n_y          n_z        tau_x        tau_y        tau_z
    1     1.000000     0.000001     1.000000     0.000000     0.000000     0.000000     0.000000     0.000000
 
 Subroutine IBZKPT returns following result:
 ===========================================
 
 Found      8 irreducible k-points:
 
 Following reciprocal coordinates:
            Coordinates               Weight
  0.000000  0.000000  0.000000      1.000000
  0.500000  0.000000  0.000000      1.000000
  0.000000  0.500000  0.000000      1.000000
  0.500000  0.500000  0.000000      1.000000
  0.000000  0.000000  0.500000      1.000000
  0.500000  0.000000  0.500000      1.000000
  0.000000  0.500000  0.500000      1.000000
  0.500000  0.500000  0.500000      1.000000
 
 Following cartesian coordinates:
            Coordinates               Weight
  0.000000  0.000000  0.000000      1.000000
 -0.022857  0.022857  0.022857      1.000000
  0.022857 -0.022857  0.022857      1.000000
  0.000000  0.000000  0.045715      1.000000
  0.022857  0.022857 -0.022857      1.000000
  0.000000  0.045715  0.000000      1.000000
  0.045715  0.000000  0.000000      1.000000
  0.022857  0.022857  0.022857      1.000000
 


--------------------------------------------------------------------------------------------------------




 Dimension of arrays:
   k-points           NKPTS =      8   k-points in BZ     NKDIM =      8   number of bands    NBANDS=    322
   number of dos      NEDOS =    301   number of ions     NIONS =    128
   non local maximal  LDIM  =      4   non local SUM 2l+1 LMDIM =      8
   total plane-waves  NPLWV = ******
   max r-space proj   IRMAX =      1   max aug-charges    IRDMAX= 176811
   dimension x,y,z NGX =   120 NGY =  120 NGZ =  120
   dimension x,y,z NGXF=   240 NGYF=  240 NGZF=  240
   support grid    NGXF=   480 NGYF=  480 NGZF=  480
   ions per type =             128
   NGX,Y,Z   is equivalent  to a cutoff of  12.90, 12.90, 12.90 a.u.
   NGXF,Y,Z  is equivalent  to a cutoff of  25.80, 25.80, 25.80 a.u.

 SYSTEM =  potpaw_PBE@./ARUN.APL1ZEROSTATE         
 POSCAR =  kk                                      

 Startparameter for this run:
   NWRITE =      2    write-flag & timer
   PREC   = accura    normal or accurate (medium, high low for compatibility)
   ISTART =      0    job   : 0-new  1-cont  2-samecut
   ICHARG =      2    charge: 1-file 2-atom 10-const
   ISPIN  =      1    spin polarized calculation?
   LNONCOLLINEAR =      F non collinear calculations
   LSORBIT =      F    spin-orbit coupling
   INIWAV =      1    electr: 0-lowe 1-rand  2-diag
   LASPH  =      F    aspherical Exc in radial PAW
   METAGGA=      F    non-selfconsistent MetaGGA calc.

 Electronic Relaxation 1
   ENCUT  =  500.0 eV  36.75 Ry    6.06 a.u.  28.20 28.20 28.20*2*pi/ulx,y,z
   ENINI  =  500.0     initial cutoff
   ENAUG  =  322.1 eV  augmentation charge cutoff
   NELM   =    120;   NELMIN=  4; NELMDL= -5     # of ELM steps 
   EDIFF  = 0.1E-07   stopping-criterion for ELM
   LREAL  =      F    real-space projection
   NLSPLINE    = F    spline interpolate recip. space projectors
   LCOMPAT=      F    compatible to vasp.4.4
   GGA_COMPAT  = T    GGA compatible to vasp.4.4-vasp.4.6
   LMAXPAW     = -100 max onsite density
   LMAXMIX     =    2 max onsite mixed and CHGCAR
   VOSKOWN=      0    Vosko Wilk Nusair interpolation
   ROPT   =    0.00000
 Ionic relaxation
   EDIFFG = 0.1E-06   stopping-criterion for IOM
   NSW    =      0    number of steps for IOM
   NBLOCK =      1;   KBLOCK =      1    inner block; outer block 
   IBRION =     -1    ionic relax: 0-MD 1-quasi-New 2-CG
   NFREE  =      0    steps in history (QN), initial steepest desc. (CG)
   ISIF   =      2    stress and relaxation
   IWAVPR =     10    prediction:  0-non 1-charg 2-wave 3-comb
   ISYM   =      2    0-nonsym 1-usesym 2-fastsym
   LCORR  =      T    Harris-Foulkes like correction to forces

   POTIM  = 0.5000    time-step for ionic-motion
   TEIN   =    0.0    initial temperature
   TEBEG  =    0.0;   TEEND  =   0.0 temperature during run
   SMASS  =  -3.00    Nose mass-parameter (am)
   estimated Nose-frequenzy (Omega)   =  0.10E-29 period in steps =****** mass=  -0.547E-26a.u.
   SCALEE = 1.0000    scale energy and forces
   NPACO  =    256;   APACO  = 16.0  distance and # of slots for P.C.
   PSTRESS=    0.0 pullay stress

  Mass of Ions in am
   POMASS =  28.09
  Ionic Valenz
   ZVAL   =   4.00
  Atomic Wigner-Seitz radii
   RWIGS  =  -1.00
  virtual crystal weights 
   VCA    =   1.00
   NELECT =     512.0000    total number of electrons
   NUPDOWN=      -1.0000    fix difference up-down

 DOS related values:
   EMIN   =  10.00;   EMAX   =-10.00  energy-range for DOS
   EFERMI =   0.00
   ISMEAR =     0;   SIGMA  =   0.01  broadening in eV -4-tet -1-fermi 0-gaus

 Electronic relaxation 2 (details)
   IALGO  =     38    algorithm
   LDIAG  =      T    sub-space diagonalisation (order eigenvalues)
   LSUBROT=      F    optimize rotation matrix (better conditioning)
   TURBO    =      0    0=normal 1=particle mesh
   IRESTART =      0    0=no restart 2=restart with 2 vectors
   NREBOOT  =      0    no. of reboots
   NMIN     =      0    reboot dimension
   EREF     =   0.00    reference energy to select bands
   IMIX   =      4    mixing-type and parameters
     AMIX     =   0.40;   BMIX     =  1.00
     AMIX_MAG =   1.60;   BMIX_MAG =  1.00
     AMIN     =   0.10
     WC   =   100.;   INIMIX=   1;  MIXPRE=   1;  MAXMIX= -45

 Intra band minimization:
   WEIMIN = 0.0000     energy-eigenvalue tresh-hold
   EBREAK =  0.78E-11  absolut break condition
   DEPER  =   0.30     relativ break condition  

   TIME   =   0.40     timestep for ELM

  volume/ion in A,a.u.               =      20.44       137.96
  Fermi-wavevector in a.u.,A,eV,Ry     =   0.950408  1.796010 12.289804  0.903275
  Thomas-Fermi vector in A             =   2.078782
 
 Write flags
   LWAVE        =      F    write WAVECAR
   LDOWNSAMPLE  =      F    k-point downsampling of WAVECAR
   LCHARG       =      F    write CHGCAR
   LVTOT        =      F    write LOCPOT, total local potential
   LVHAR        =      F    write LOCPOT, Hartree potential only
   LELF         =      F    write electronic localiz. function (ELF)
   LORBIT       =      0    0 simple, 1 ext, 2 COOP (PROOUT), +10 PAW based schemes


 Dipole corrections
   LMONO  =      F    monopole corrections only (constant potential shift)
   LDIPOL =      F    correct potential (dipole corrections)
   IDIPOL =      0    1-x, 2-y, 3-z, 4-all directions 
   EPSILON=  1.0000000 bulk dielectric constant

 Exchange correlation treatment:
   GGA     =    --    GGA type
   LEXCH   =     8    internal setting for exchange type
   VOSKOWN=      0    Vosko Wilk Nusair interpolation
   LHFCALC =     F    Hartree Fock is set to
   LHFONE  =     F    Hartree Fock one center treatment
   AEXX    =    0.0000 exact exchange contribution

 Linear response parameters
   LEPSILON=     F    determine dielectric tensor
   LRPA    =     F    only Hartree local field effects (RPA)
   LNABLA  =     F    use nabla operator in PAW spheres
   LVEL    =     F    velocity operator in full k-point grid
   LINTERFAST=   F  fast interpolation
   KINTER  =     0    interpolate to denser k-point grid
   CSHIFT  =0.1000    complex shift for real part using Kramers Kronig
   OMEGAMAX=  -1.0    maximum frequency
   DEG_THRESHOLD= 0.2000000E-02 threshold for treating states as degnerate
   RTIME   =   -0.100 relaxation time in fs
  (WPLASMAI=    0.000 imaginary part of plasma frequency in eV, 0.658/RTIME)
   DFIELD  = 0.0000000 0.0000000 0.0000000 field for delta impulse in time
 
 Orbital magnetization related:
   ORBITALMAG=     F  switch on orbital magnetization
   LCHIMAG   =     F  perturbation theory with respect to B field
   DQ        =  0.001000  dq finite difference perturbation B field
   LLRAUG    =     F  two centre corrections for induced B field



--------------------------------------------------------------------------------------------------------


 Static calculation
 charge density and potential will be updated during run
 non-spin polarized calculation
 Variant of blocked Davidson
 Davidson routine will perform the subspace rotation
 perform sub-space diagonalisation
    after iterative eigenvector-optimisation
 modified Broyden-mixing scheme, WC =      100.0
 initial mixing is a Kerker type mixing with AMIX =  0.4000 and BMIX =      1.0000
 Hartree-type preconditioning will be used
 using additional bands           66
 reciprocal scheme for non local part
 use partial core corrections
 calculate Harris-corrections to forces 
   (improved forces if not selfconsistent)
 use gradient corrections 
 use of overlap-Matrix (Vanderbilt PP)
 Gauss-broadening in eV      SIGMA  =   0.01


--------------------------------------------------------------------------------------------------------


  energy-cutoff  :      500.00
  volume of cell :     2616.76
      direct lattice vectors                 reciprocal lattice vectors
     0.000000000 10.937333691 10.937333691    -0.045714981  0.045714981  0.045714981
    10.937333691  0.000000000 10.937333691     0.045714981 -0.045714981  0.045714981
    10.937333691 10.937333691  0.000000000     0.045714981  0.045714981 -0.045714981

  length of vectors
    15.467725642 15.467725642 15.467725642     0.079180669  0.079180669  0.079180669


 
 k-points in units of 2pi/SCALE and weight: KPOINTS File, automatically generated by
   0.00000000  0.00000000  0.00000000       0.125
  -0.02285749  0.02285749  0.02285749       0.125
   0.02285749 -0.02285749  0.02285749       0.125
   0.00000000  0.00000000  0.04571498       0.125
   0.02285749  0.02285749 -0.02285749       0.125
   0.00000000  0.04571498  0.00000000       0.125
   0.04571498  0.00000000  0.00000000       0.125
   0.02285749  0.02285749  0.02285749       0.125
 
 k-points in reciprocal lattice and weights: KPOINTS File, automatically generated by
   0.00000000  0.00000000  0.00000000       0.125
   0.50000000  0.00000000  0.00000000       0.125
   0.00000000  0.50000000  0.00000000       0.125
   0.50000000  0.50000000  0.00000000       0.125
   0.00000000  0.00000000  0.50000000       0.125
   0.50000000  0.00000000  0.50000000       0.125
   0.00000000  0.50000000  0.50000000       0.125
   0.50000000  0.50000000  0.50000000       0.125
 
 position of ions in fractional coordinates (direct lattice) 
   0.00382336  0.99400596  0.99583543
   0.24574637  0.99602085  0.99334178
   0.52246970  0.99564291  0.99311302
   0.75518253  0.99358915  0.99578137
   0.99737037  0.24953972  0.00170027
   0.24630914  0.24768639  0.99977288
   0.50744828  0.24447940  0.00184497
   0.74382821  0.24950465  0.01636686
   0.99881119  0.50049791  0.99817117
   0.24608719  0.50383442  0.99590053
   0.50242298  0.49168366  0.99575868
   0.74994607  0.49709035  0.00651057
   0.00974788  0.74091826  0.99771350
   0.24678321  0.75080678  0.99904844
   0.49687005  0.75030878  0.99510507
   0.74805186  0.74726317  0.00299159
   0.98770751  0.98807142  0.25417338
   0.24452388  0.01015927  0.25726504
   0.50176541  0.00330542  0.24787031
   0.74504321  0.99751813  0.24920533
   0.99478976  0.24005030  0.25692426
   0.24892634  0.26251176  0.25261557
   0.50441555  0.25669877  0.24552836
   0.75155798  0.25730154  0.24857979
   0.99876325  0.50248690  0.24599794
   0.24295378  0.49853528  0.24008855
   0.49720739  0.49969146  0.24133081
   0.75175028  0.49540930  0.24989419
   0.99756254  0.73868512  0.26476874
   0.24502842  0.75247652  0.23628618
   0.49938065  0.76148034  0.24049724
   0.74946405  0.75919728  0.24619515
   0.99500944  0.00502332  0.49879951
   0.25208239  0.99319687  0.51840804
   0.49272190  0.99154687  0.50038490
   0.75910451  0.00959305  0.49769184
   0.99839561  0.25076920  0.49839194
   0.26205231  0.25110315  0.49552352
   0.49424372  0.25513946  0.49754607
   0.74026049  0.25448103  0.50066142
   0.00412532  0.49797897  0.49104763
   0.25773697  0.48986322  0.49941911
   0.51040144  0.49342950  0.48860196
   0.74500196  0.49269596  0.50726557
   0.00631990  0.76055050  0.49222297
   0.25086352  0.74511713  0.49783775
   0.50474497  0.75236038  0.48809448
   0.75416982  0.74559993  0.50943063
   0.00235779  0.99894086  0.74262245
   0.23958826  0.00381111  0.76032175
   0.51739253  0.99163621  0.75552310
   0.74574691  0.00099088  0.75019778
   0.99343758  0.24561461  0.75913079
   0.25191539  0.24893567  0.75835336
   0.49354766  0.25785373  0.74741637
   0.76317967  0.24981398  0.74019132
   0.99044548  0.49755196  0.76445158
   0.25546629  0.49870373  0.74589755
   0.49853862  0.50089701  0.75538418
   0.75866130  0.49741485  0.73794753
   0.99430367  0.75457871  0.75981761
   0.25045123  0.74919200  0.74677044
   0.50589780  0.74065468  0.75064843
   0.76183807  0.73930463  0.75737476
   0.05849299  0.06168395  0.06250188
   0.30298457  0.06367271  0.06431579
   0.56410829  0.06657205  0.06281863
   0.82551807  0.05743197  0.05813173
   0.07206580  0.31804253  0.05560074
   0.31624551  0.30655723  0.06922342
   0.55833710  0.31128232  0.06777436
   0.81209881  0.31872771  0.06284569
   0.05436166  0.55255434  0.06666246
   0.30140436  0.55758480  0.06837403
   0.56801110  0.57025217  0.05355004
   0.81046524  0.56726618  0.06825931
   0.06293509  0.81688790  0.07723888
   0.30181709  0.81364235  0.06384231
   0.55879517  0.81576418  0.06495734
   0.81473227  0.81505525  0.05701609
   0.05468608  0.05973550  0.31072471
   0.29723856  0.08165842  0.30177711
   0.56657766  0.06445530  0.30911709
   0.81156451  0.06220018  0.31340434
   0.06173555  0.31142926  0.31587187
   0.31941701  0.31485152  0.31895492
   0.55788824  0.31629936  0.32370293
   0.81068213  0.31977283  0.31660098
   0.06568462  0.55100362  0.32161962
   0.30894518  0.57452221  0.31155854
   0.56619256  0.56799918  0.30971742
   0.80506710  0.57007903  0.31605760
   0.05891757  0.80212972  0.31484122
   0.30181895  0.82543463  0.31754678
   0.55380655  0.82687181  0.30524386
   0.81234256  0.80911971  0.30975341
   0.07222291  0.05274213  0.56249813
   0.30925626  0.06276453  0.56947114
   0.56626651  0.06728046  0.56341668
   0.81038826  0.06928207  0.56343127
   0.05638823  0.30383375  0.58015878
   0.32021951  0.30271742  0.55297713
   0.56434538  0.30773795  0.57296616
   0.79836611  0.31501436  0.56464894
   0.05472808  0.56726642  0.55859962
   0.31750988  0.56013268  0.55918392
   0.54980105  0.57113611  0.55916499
   0.80642963  0.56413715  0.56739783
   0.07390446  0.80945522  0.55137224
   0.31396674  0.81457961  0.55798490
   0.57221497  0.81543159  0.55667442
   0.80557996  0.82092706  0.56374694
   0.05950305  0.07091704  0.80363498
   0.31921181  0.06461622  0.81437473
   0.54909803  0.07170390  0.82023508
   0.82135093  0.04643415  0.81939594
   0.06869425  0.31542561  0.80308265
   0.31207834  0.31345248  0.80646307
   0.56606156  0.30692219  0.80211421
   0.81019346  0.31810234  0.80493167
   0.06510531  0.54808808  0.82170228
   0.30719057  0.56759794  0.81728426
   0.56616399  0.55773715  0.81277984
   0.81010536  0.56821370  0.81083747
   0.06544155  0.81277689  0.80982448
   0.33152920  0.80683472  0.80792231
   0.57018661  0.80628725  0.80368795
   0.81211887  0.80394612  0.82598850
 
 position of ions in cartesian coordinates  (Angst):
  21.76355923 10.93360181 10.91359225
  21.75832295 13.55232051 13.58162244
  21.75168727 16.57643392 16.60410422
  21.75840921 19.15087641 19.12689938
   2.74789559 10.92716900 13.63787172
  13.64387831 13.62881483  5.40299397
   2.69413190  5.57031023  8.22408393
   2.90792542  8.31450715 10.86441301
  16.39144384 21.84166240 16.39844393
  16.40310158 13.58403415  8.20214296
  16.26865322 16.38611279 10.87287601
   5.50805137  8.27361875 13.63925348
  19.01599566 11.01894129  8.21028603
  19.13875051 13.62607651 10.91097463
  19.09017379 16.31822976 13.64081105
   8.20578666  8.21441288 16.35475947
  13.58684594 13.58286568 21.60975346
   2.92490893  5.48823291  2.78555457
   2.74719274  8.19901605  5.52412819
  13.63583056 10.87442810 19.05897486
   5.43557653 13.69041389 13.50585775
   5.63411956  5.48553124  5.59376918
   5.49302578  8.20238680  8.32456134
   5.53299293 10.93884051 11.03423328
   8.18642849 13.61436844 16.41967384
   8.07857530  5.28319518  8.10991327
   8.10480790  8.07763874 10.90341538
   8.15163299 10.95531980 13.64060043
  10.97510973 13.80653845 18.98991999
  10.81442763  5.26429844 10.91004443
  10.95896308  8.09229139 13.79045737
  10.99631245 10.88985695 16.50073242
   5.51047835 16.33828696 10.93769201
  16.53292728  8.42711086 13.62003475
  16.31775555 10.86194041 16.23394276
   5.54834409 13.74600110  8.40750176
   8.19382542 16.37086491 13.66253238
   8.16610503  8.28585962  5.61255253
   8.23237281 10.84753585  8.19625384
   8.25924493 13.57237698 10.87981997
  10.81731398  5.41587178  5.49168216
  10.82011091  8.28126868  8.17675273
  10.74080574 10.92643360 10.97923396
  10.93691289 13.69646780 13.53711513
  13.70200146  5.45272968  8.38751745
  13.59461225  8.18879562 10.89337274
  13.56726874 10.85901635 13.74938078
  13.72668802 13.82041971 16.40348223
  19.04805909  8.14809754 10.95153747
   8.35757598 10.93634942  2.66214011
  19.10926443 13.92230298 16.50475088
   8.21600100 16.36164629  8.16732036
  10.98923566 19.16842511 13.55192728
  11.01705626 11.04964640  5.47797514
  10.99497456 13.57283773  8.21832781
  10.82801829 16.44287015 11.07944961
  13.80295382 19.19389481 16.27472453
  13.61261952 10.95225040  8.24860920
  13.74036663 13.71457218 10.93116104
  13.51157060 16.36891020 13.73812394
  16.56345788 19.18540980 19.12811018
  16.36184039 10.90694614 10.93343149
  16.31087980 13.74326544 13.63396051
  16.36968189 16.61613772 16.41849863
   1.35826190  1.32336134  1.31441534
   1.39985294  4.01728662  4.01025304
   1.41518907  6.85690896  6.89796142
   1.26395876  9.66477280  9.65711923
   4.08666112  1.39633153  4.26674504
   4.11003842  4.21600234  6.81180138
   4.14586932  6.84798997  9.51131779
   4.17339554  9.56955990 12.36822691
   6.77258079  1.32368119  6.63804282
   6.84632062  4.04438963  9.39505104
   6.82273287  6.79822156 12.44956519
   6.95095442  9.61090365 15.06870833
   9.77936294  1.53312951  9.62291760
   9.59734251  3.99933886 12.20015210
   9.63274510  6.82218926 15.03401422
   9.53813519  9.53460265 17.82552992
   4.05184692  3.99661969  1.25146696
   4.19376237  6.55163433  4.14412271
   4.08588582  9.57776562  6.90181798
   4.10811194 12.30415972  9.55665595
   6.86100181  4.13001845  4.08142808
   6.93215254  6.98208680  6.93720652
   6.99991860  9.64225684  9.56128153
   6.96023280 12.32947160 12.36416318
   9.54417161  4.23607570  6.74492502
   9.69136086  6.78665627  9.66277764
   9.59987934  9.58011974 12.40503359
   9.69197202 12.26211496 15.04043213
  12.21668390  4.08792456  9.41756159
  12.50116902  6.77420957 12.32914850
  12.38232687  9.39572098 15.10093995
  12.23748865 12.27273807 17.73447394
   6.72908803  6.94215585  1.36678434
   6.91497252  9.61093487  4.06891552
   6.89814507 12.35572196  6.92931460
   6.92019696 15.02592270  9.62124798
   9.66852131  6.96212711  3.93986806
   9.35901681  9.55044303  6.81326910
   9.63255482 12.43915582  9.53826641
   9.62117104 14.90775045 12.17741376
  12.31397262  6.70816975  6.80296137
  12.24233915  9.58869270  9.59906952
  12.36248026 12.12913166 12.26006379
  12.37597575 15.02600939 14.99034626
  14.88382398  6.83885987  9.66159951
  15.01219604  9.53682605 12.34328798
  15.00718132 12.34703996 15.17715351
  15.14464151 14.97678519 17.78964997
   9.56526723  9.44042864  1.42644799
   9.61381727 12.39841423  4.19805524
   9.75543431 14.97685321  6.78991796
   9.46987258 17.94539596  9.49125497
  12.23349807  9.53491487  4.20124705
  12.24889013 12.23386072  6.84163939
  12.12990123 14.96419492  9.54811455
  12.28299765 17.66516254 12.34054767
  14.98185425  9.69931053  6.70670065
  15.14691882 12.29875641  9.56785384
  14.98980157 15.08196874 12.29248176
  15.08314282 17.72879262 15.07513540
  17.74693268  9.57307670  9.60536815
  17.66113647 12.46256136 12.45066601
  17.60883606 15.02652458 15.05495402
  17.82713886 17.91652688 17.67544204
 


--------------------------------------------------------------------------------------------------------


 k-point  1 :   0.0000 0.0000 0.0000  plane waves:   66299
 k-point  2 :   0.5000 0.0000 0.0000  plane waves:   66394
 k-point  3 :   0.0000 0.5000 0.0000  plane waves:   66394
 k-point  4 :   0.5000 0.5000 0.0000  plane waves:   66552
 k-point  5 :   0.0000 0.0000 0.5000  plane waves:   66394
 k-point  6 :   0.5000 0.0000 0.5000  plane waves:   66552
 k-point  7 :   0.0000 0.5000 0.5000  plane waves:   66552
 k-point  8 :   0.5000 0.5000 0.5000  plane waves:   66394

 maximum and minimum number of plane-waves per node :      4207     4110

 maximum number of plane-waves:     66552
 maximum index in each direction: 
   IXMAX=   28   IYMAX=   28   IZMAX=   28
   IXMIN=  -28   IYMIN=  -28   IZMIN=  -28


 parallel 3D FFT for wavefunctions:
    minimum data exchange during FFTs selected (reduces bandwidth)
 parallel 3D FFT for charge:
    minimum data exchange during FFTs selected (reduces bandwidth)


 total amount of memory used by VASP MPI-rank0   221701. kBytes
=======================================================================

   base      :      30000. kBytes
   nonl-proj :      10690. kBytes
   fftplans  :      66746. kBytes
   grid      :      26864. kBytes
   one-center:         24. kBytes
   wavefun   :      87377. kBytes
 
     INWAV:  cpu time    0.0000: real time    0.0002
 Broyden mixing: mesh for mixing (old mesh)
   NGX = 57   NGY = 57   NGZ = 57
  (NGX  =240   NGY  =240   NGZ  =240)
  gives a total of 185193 points

 initial charge density was supplied:
 charge density of overlapping atoms calculated
 number of electron     512.0000000 magnetization 
 keeping initial charge density in first step


--------------------------------------------------------------------------------------------------------


 Maximum index for augmentation-charges         5604 (set IRDMAX)


--------------------------------------------------------------------------------------------------------


 First call to EWALD:  gamma=   0.129
 Maximum number of real-space cells 3x 3x 3
 Maximum number of reciprocal cells 3x 3x 3

    FEWALD:  cpu time    0.0059: real time    0.0059


--------------------------------------- Iteration      1(   1)  ---------------------------------------


    POTLOK:  cpu time    0.4919: real time    0.4999
    SETDIJ:  cpu time    0.5097: real time    0.5097
     EDDAV:  cpu time   69.5136: real time   69.5540
       DOS:  cpu time    0.0060: real time    0.0060
    --------------------------------------------
      LOOP:  cpu time   70.5212: real time   70.5696

 eigenvalue-minimisations  :  5152
 total energy-change (2. order) : 0.1383989E+04  (-0.1908337E+05)
 number of electron     512.0000000 magnetization 
 augmentation part      512.0000000 magnetization 

 Free energy of the ion-electron system (eV)
  ---------------------------------------------------
  alpha Z        PSCENC =       210.77028614
  Ewald energy   TEWEN  =    -14471.81468576
  -Hartree energ DENC   =      -753.91151909
  -exchange      EXHF   =         0.00000000
  -V(xc)+E(xc)   XCENC  =     -1195.30041387
  PAW double counting   =      4221.13331941    -1969.18571412
  entropy T*S    EENTRO =        -0.00205761
  eigenvalues    EBANDS =      2149.81905075
  atomic energy  EATOM  =     13192.48085998
  Solvation  Ediel_sol  =         0.00000000
  ---------------------------------------------------
  free energy    TOTEN  =      1383.98912584 eV

  energy without entropy =     1383.99118345  energy(sigma->0) =     1383.99015464


--------------------------------------------------------------------------------------------------------




--------------------------------------- Iteration      1(   2)  ---------------------------------------


     EDDAV:  cpu time   79.1596: real time   79.2031
       DOS:  cpu time    0.0021: real time    0.0021
    --------------------------------------------
      LOOP:  cpu time   79.1618: real time   79.2052

 eigenvalue-minimisations  :  6120
 total energy-change (2. order) :-0.1920061E+04  (-0.1826302E+04)
 number of electron     512.0000000 magnetization 
 augmentation part      512.0000000 magnetization 

 Free energy of the ion-electron system (eV)
  ---------------------------------------------------
  alpha Z        PSCENC =       210.77028614
  Ewald energy   TEWEN  =    -14471.81468576
  -Hartree energ DENC   =      -753.91151909
  -exchange      EXHF   =         0.00000000
  -V(xc)+E(xc)   XCENC  =     -1195.30041387
  PAW double counting   =      4221.13331941    -1969.18571412
  entropy T*S    EENTRO =        -0.00000000
  eigenvalues    EBANDS =       229.75566438
  atomic energy  EATOM  =     13192.48085998
  Solvation  Ediel_sol  =         0.00000000
  ---------------------------------------------------
  free energy    TOTEN  =      -536.07220292 eV

  energy without entropy =     -536.07220292  energy(sigma->0) =     -536.07220292


--------------------------------------------------------------------------------------------------------




--------------------------------------- Iteration      1(   3)  ---------------------------------------


     EDDAV:  cpu time   81.0011: real time   81.0370
       DOS:  cpu time    0.0017: real time    0.0017
    --------------------------------------------
      LOOP:  cpu time   81.0028: real time   81.0387

 eigenvalue-minimisations  :  6304
 total energy-change (2. order) :-0.1494395E+03  (-0.1464050E+03)
 number of electron     512.0000000 magnetization 
 augmentation part      512.0000000 magnetization 

 Free energy of the ion-electron system (eV)
  ---------------------------------------------------
  alpha Z        PSCENC =       210.77028614
  Ewald energy   TEWEN  =    -14471.81468576
  -Hartree energ DENC   =      -753.91151909
  -exchange      EXHF   =         0.00000000
  -V(xc)+E(xc)   XCENC  =     -1195.30041387
  PAW double counting   =      4221.13331941    -1969.18571412
  entropy T*S    EENTRO =        -0.00000000
  eigenvalues    EBANDS =        80.31615118
  atomic energy  EATOM  =     13192.48085998
  Solvation  Ediel_sol  =         0.00000000
  ---------------------------------------------------
  free energy    TOTEN  =      -685.51171612 eV

  energy without entropy =     -685.51171612  energy(sigma->0) =     -685.51171612


--------------------------------------------------------------------------------------------------------




--------------------------------------- Iteration      1(   4)  ---------------------------------------


     EDDAV:  cpu time   79.8512: real time   79.8885
       DOS:  cpu time    0.0018: real time    0.0018
    --------------------------------------------
      LOOP:  cpu time   79.8530: real time   79.8903

 eigenvalue-minimisations  :  6184
 total energy-change (2. order) :-0.4208778E+01  (-0.4173430E+01)
 number of electron     512.0000000 magnetization 
 augmentation part      512.0000000 magnetization 

 Free energy of the ion-electron system (eV)
  ---------------------------------------------------
  alpha Z        PSCENC =       210.77028614
  Ewald energy   TEWEN  =    -14471.81468576
  -Hartree energ DENC   =      -753.91151909
  -exchange      EXHF   =         0.00000000
  -V(xc)+E(xc)   XCENC  =     -1195.30041387
  PAW double counting   =      4221.13331941    -1969.18571412
  entropy T*S    EENTRO =        -0.00000000
  eigenvalues    EBANDS =        76.10737342
  atomic energy  EATOM  =     13192.48085998
  Solvation  Ediel_sol  =         0.00000000
  ---------------------------------------------------
  free energy    TOTEN  =      -689.72049388 eV

  energy without entropy =     -689.72049388  energy(sigma->0) =     -689.72049388


--------------------------------------------------------------------------------------------------------




--------------------------------------- Iteration      1(   5)  ---------------------------------------


     EDDAV:  cpu time   80.6232: real time   80.6565
       DOS:  cpu time    0.0017: real time    0.0017
    CHARGE:  cpu time    3.1987: real time    3.1993
    MIXING:  cpu time    0.0469: real time    0.0470
    --------------------------------------------
      LOOP:  cpu time   83.8705: real time   83.9046

 eigenvalue-minimisations  :  6264
 total energy-change (2. order) :-0.1451678E+00  (-0.1447422E+00)
 number of electron     511.9999998 magnetization 
 augmentation part      -30.1910767 magnetization 

 Broyden mixing:
  rms(total) = 0.23999E+01    rms(broyden)= 0.23999E+01
  rms(prec ) = 0.29086E+01
  weight for this iteration     100.00

 Free energy of the ion-electron system (eV)
  ---------------------------------------------------
  alpha Z        PSCENC =       210.77028614
  Ewald energy   TEWEN  =    -14471.81468576
  -Hartree energ DENC   =      -753.91151909
  -exchange      EXHF   =         0.00000000
  -V(xc)+E(xc)   XCENC  =     -1195.30041387
  PAW double counting   =      4221.13331941    -1969.18571412
  entropy T*S    EENTRO =        -0.00000000
  eigenvalues    EBANDS =        75.96220560
  atomic energy  EATOM  =     13192.48085998
  Solvation  Ediel_sol  =         0.00000000
  ---------------------------------------------------
  free energy    TOTEN  =      -689.86566170 eV

  energy without entropy =     -689.86566170  energy(sigma->0) =     -689.86566170


--------------------------------------------------------------------------------------------------------




--------------------------------------- Iteration      1(   6)  ---------------------------------------


    POTLOK:  cpu time    0.4916: real time    0.4947
    SETDIJ:  cpu time    0.5082: real time    0.5082
     EDDAV:  cpu time   77.1427: real time   77.1657
       DOS:  cpu time    0.0018: real time    0.0018
    CHARGE:  cpu time    3.1955: real time    3.1964
    MIXING:  cpu time    0.0349: real time    0.0349
    --------------------------------------------
      LOOP:  cpu time   81.3746: real time   81.4017

 eigenvalue-minimisations  :  5912
 total energy-change (2. order) : 0.8530247E+01  (-0.5967804E+00)
 number of electron     511.9999998 magnetization 
 augmentation part      -29.8500549 magnetization 

 Broyden mixing:
  rms(total) = 0.14254E+01    rms(broyden)= 0.14254E+01
  rms(prec ) = 0.17176E+01
  weight for this iteration     100.00

 eigenvalues of (default mixing * dielectric matrix)
  average eigenvalue GAMMA=   2.4283
  2.4283

 Free energy of the ion-electron system (eV)
  ---------------------------------------------------
  alpha Z        PSCENC =       210.77028614
  Ewald energy   TEWEN  =    -14471.81468576
  -Hartree energ DENC   =      -849.17926960
  -exchange      EXHF   =         0.00000000
  -V(xc)+E(xc)   XCENC  =     -1180.66234512
  PAW double counting   =      4466.53890257    -2221.38324180
  entropy T*S    EENTRO =        -0.00000000
  eigenvalues    EBANDS =       171.91407929
  atomic energy  EATOM  =     13192.48085998
  Solvation  Ediel_sol  =         0.00000000
  ---------------------------------------------------
  free energy    TOTEN  =      -681.33541430 eV

  energy without entropy =     -681.33541430  energy(sigma->0) =     -681.33541430


--------------------------------------------------------------------------------------------------------




--------------------------------------- Iteration      1(   7)  ---------------------------------------


    POTLOK:  cpu time    0.4919: real time    0.4929
    SETDIJ:  cpu time    0.5082: real time    0.5082
     EDDAV:  cpu time   76.2412: real time   76.2652
       DOS:  cpu time    0.0018: real time    0.0018
    CHARGE:  cpu time    3.1947: real time    3.1955
    MIXING:  cpu time    0.0499: real time    0.0499
    --------------------------------------------
      LOOP:  cpu time   80.4876: real time   80.5135

 eigenvalue-minimisations  :  5840
 total energy-change (2. order) : 0.3540580E+01  (-0.1144191E+01)
 number of electron     511.9999998 magnetization 
 augmentation part      -29.3992901 magnetization 

 Broyden mixing:
  rms(total) = 0.15802E+00    rms(broyden)= 0.15802E+00
  rms(prec ) = 0.20561E+00
  weight for this iteration     100.00

 eigenvalues of (default mixing * dielectric matrix)
  average eigenvalue GAMMA=   2.0993
  2.0993  2.0993

 Free energy of the ion-electron system (eV)
  ---------------------------------------------------
  alpha Z        PSCENC =       210.77028614
  Ewald energy   TEWEN  =    -14471.81468576
  -Hartree energ DENC   =      -999.42027707
  -exchange      EXHF   =         0.00000000
  -V(xc)+E(xc)   XCENC  =     -1156.79612848
  PAW double counting   =      4787.12475337    -2550.52071927
  entropy T*S    EENTRO =        -0.00000000
  eigenvalues    EBANDS =       310.38107699
  atomic energy  EATOM  =     13192.48085998
  Solvation  Ediel_sol  =         0.00000000
  ---------------------------------------------------
  free energy    TOTEN  =      -677.79483408 eV

  energy without entropy =     -677.79483408  energy(sigma->0) =     -677.79483408


--------------------------------------------------------------------------------------------------------




--------------------------------------- Iteration      1(   8)  ---------------------------------------


    POTLOK:  cpu time    0.4930: real time    0.4940
    SETDIJ:  cpu time    0.5083: real time    0.5089
     EDDAV:  cpu time   76.0063: real time   76.0362
       DOS:  cpu time    0.0018: real time    0.0018
    CHARGE:  cpu time    3.0735: real time    3.0749
    MIXING:  cpu time    0.0386: real time    0.0386
    --------------------------------------------
      LOOP:  cpu time   80.1215: real time   80.1544

 eigenvalue-minimisations  :  5808
 total energy-change (2. order) :-0.5410699E-01  (-0.1130658E+00)
 number of electron     511.9999998 magnetization 
 augmentation part      -29.4702329 magnetization 

 Broyden mixing:
  rms(total) = 0.62802E-01    rms(broyden)= 0.62802E-01
  rms(prec ) = 0.77719E-01
  weight for this iteration     100.00

 eigenvalues of (default mixing * dielectric matrix)
  average eigenvalue GAMMA=   2.0113
  2.6816  1.6761  1.6761

 Free energy of the ion-electron system (eV)
  ---------------------------------------------------
  alpha Z        PSCENC =       210.77028614
  Ewald energy   TEWEN  =    -14471.81468576
  -Hartree energ DENC   =      -992.71588324
  -exchange      EXHF   =         0.00000000
  -V(xc)+E(xc)   XCENC  =     -1156.91300784
  PAW double counting   =      4739.36368374    -2501.27287406
  entropy T*S    EENTRO =        -0.00000000
  eigenvalues    EBANDS =       302.25267995
  atomic energy  EATOM  =     13192.48085998
  Solvation  Ediel_sol  =         0.00000000
  ---------------------------------------------------
  free energy    TOTEN  =      -677.84894108 eV

  energy without entropy =     -677.84894108  energy(sigma->0) =     -677.84894108


--------------------------------------------------------------------------------------------------------




--------------------------------------- Iteration      1(   9)  ---------------------------------------


    POTLOK:  cpu time    0.4896: real time    0.4928
    SETDIJ:  cpu time    0.5102: real time    0.5108
     EDDAV:  cpu time   78.3479: real time   78.3789
       DOS:  cpu time    0.0010: real time    0.0010
    CHARGE:  cpu time    3.0601: real time    3.0616
    MIXING:  cpu time    0.0442: real time    0.0442
    --------------------------------------------
      LOOP:  cpu time   82.4529: real time   82.4893

 eigenvalue-minimisations  :  6048
 total energy-change (2. order) :-0.2174586E-01  (-0.1043054E-01)
 number of electron     511.9999998 magnetization 
 augmentation part      -29.4744510 magnetization 

 Broyden mixing:
  rms(total) = 0.29013E-01    rms(broyden)= 0.29013E-01
  rms(prec ) = 0.33671E-01
  weight for this iteration     100.00

 eigenvalues of (default mixing * dielectric matrix)
  average eigenvalue GAMMA=   1.7933
  2.5962  1.8435  1.8435  0.8900

 Free energy of the ion-electron system (eV)
  ---------------------------------------------------
  alpha Z        PSCENC =       210.77028614
  Ewald energy   TEWEN  =    -14471.81468576
  -Hartree energ DENC   =      -999.61670694
  -exchange      EXHF   =         0.00000000
  -V(xc)+E(xc)   XCENC  =     -1155.71545486
  PAW double counting   =      4743.42002796    -2505.44114274
  entropy T*S    EENTRO =        -0.00000000
  eigenvalues    EBANDS =       308.04612927
  atomic energy  EATOM  =     13192.48085998
  Solvation  Ediel_sol  =         0.00000000
  ---------------------------------------------------
  free energy    TOTEN  =      -677.87068693 eV

  energy without entropy =     -677.87068693  energy(sigma->0) =     -677.87068693


--------------------------------------------------------------------------------------------------------




--------------------------------------- Iteration      1(  10)  ---------------------------------------


    POTLOK:  cpu time    0.4909: real time    0.4944
    SETDIJ:  cpu time    0.5069: real time    0.5071
     EDDAV:  cpu time   78.2368: real time   78.2803
       DOS:  cpu time    0.0012: real time    0.0012
    CHARGE:  cpu time    3.0633: real time    3.0635
    MIXING:  cpu time    0.0367: real time    0.0367
    --------------------------------------------
      LOOP:  cpu time   82.3358: real time   82.3832

 eigenvalue-minimisations  :  6040
 total energy-change (2. order) :-0.2379914E-02  (-0.8905663E-03)
 number of electron     511.9999998 magnetization 
 augmentation part      -29.4839778 magnetization 

 Broyden mixing:
  rms(total) = 0.11662E-01    rms(broyden)= 0.11662E-01
  rms(prec ) = 0.13952E-01
  weight for this iteration     100.00

 eigenvalues of (default mixing * dielectric matrix)
  average eigenvalue GAMMA=   1.8608
  2.6975  2.6975  1.5053  1.5053  0.8982

 Free energy of the ion-electron system (eV)
  ---------------------------------------------------
  alpha Z        PSCENC =       210.77028614
  Ewald energy   TEWEN  =    -14471.81468576
  -Hartree energ DENC   =      -998.47234023
  -exchange      EXHF   =         0.00000000
  -V(xc)+E(xc)   XCENC  =     -1155.88833311
  PAW double counting   =      4736.40594801    -2498.25298949
  entropy T*S    EENTRO =        -0.00000000
  eigenvalues    EBANDS =       306.89818761
  atomic energy  EATOM  =     13192.48085998
  Solvation  Ediel_sol  =         0.00000000
  ---------------------------------------------------
  free energy    TOTEN  =      -677.87306685 eV

  energy without entropy =     -677.87306685  energy(sigma->0) =     -677.87306685


--------------------------------------------------------------------------------------------------------




--------------------------------------- Iteration      1(  11)  ---------------------------------------


    POTLOK:  cpu time    0.4848: real time    0.4941
    SETDIJ:  cpu time    0.5091: real time    0.5092
     EDDAV:  cpu time   75.4427: real time   75.4727
       DOS:  cpu time    0.0010: real time    0.0010
    CHARGE:  cpu time    3.0553: real time    3.0568
    MIXING:  cpu time    0.0476: real time    0.0476
    --------------------------------------------
      LOOP:  cpu time   79.5405: real time   79.5814

 eigenvalue-minimisations  :  5760
 total energy-change (2. order) :-0.1508760E-02  (-0.2509166E-03)
 number of electron     511.9999998 magnetization 
 augmentation part      -29.4868485 magnetization 

 Broyden mixing:
  rms(total) = 0.41874E-02    rms(broyden)= 0.41874E-02
  rms(prec ) = 0.58749E-02
  weight for this iteration     100.00

 eigenvalues of (default mixing * dielectric matrix)
  average eigenvalue GAMMA=   1.7735
  2.8388  2.0450  2.0450  1.6224  1.2348  0.8549

 Free energy of the ion-electron system (eV)
  ---------------------------------------------------
  alpha Z        PSCENC =       210.77028614
  Ewald energy   TEWEN  =    -14471.81468576
  -Hartree energ DENC   =      -998.28084568
  -exchange      EXHF   =         0.00000000
  -V(xc)+E(xc)   XCENC  =     -1155.91286179
  PAW double counting   =      4731.74162875    -2493.47963529
  entropy T*S    EENTRO =        -0.00000000
  eigenvalues    EBANDS =       306.62067804
  atomic energy  EATOM  =     13192.48085998
  Solvation  Ediel_sol  =         0.00000000
  ---------------------------------------------------
  free energy    TOTEN  =      -677.87457561 eV

  energy without entropy =     -677.87457561  energy(sigma->0) =     -677.87457561


--------------------------------------------------------------------------------------------------------




--------------------------------------- Iteration      1(  12)  ---------------------------------------


    POTLOK:  cpu time    0.4904: real time    0.4942
    SETDIJ:  cpu time    0.5081: real time    0.5087
     EDDAV:  cpu time   79.2350: real time   79.2721
       DOS:  cpu time    0.0010: real time    0.0010
    CHARGE:  cpu time    3.0547: real time    3.0563
    MIXING:  cpu time    0.0441: real time    0.0441
    --------------------------------------------
      LOOP:  cpu time   83.3333: real time   83.3764

 eigenvalue-minimisations  :  6144
 total energy-change (2. order) :-0.3098051E-04  (-0.4723642E-04)
 number of electron     511.9999998 magnetization 
 augmentation part      -29.4848206 magnetization 

 Broyden mixing:
  rms(total) = 0.18198E-02    rms(broyden)= 0.18198E-02
  rms(prec ) = 0.21672E-02
  weight for this iteration     100.00

 eigenvalues of (default mixing * dielectric matrix)
  average eigenvalue GAMMA=   1.8337
  3.1715  2.6929  1.7772  1.7772  0.8889  1.2640  1.2640

 Free energy of the ion-electron system (eV)
  ---------------------------------------------------
  alpha Z        PSCENC =       210.77028614
  Ewald energy   TEWEN  =    -14471.81468576
  -Hartree energ DENC   =      -998.94508643
  -exchange      EXHF   =         0.00000000
  -V(xc)+E(xc)   XCENC  =     -1155.83685878
  PAW double counting   =      4733.21397146    -2495.00029100
  entropy T*S    EENTRO =        -0.00000000
  eigenvalues    EBANDS =       307.25719779
  atomic energy  EATOM  =     13192.48085998
  Solvation  Ediel_sol  =         0.00000000
  ---------------------------------------------------
  free energy    TOTEN  =      -677.87460659 eV

  energy without entropy =     -677.87460659  energy(sigma->0) =     -677.87460659


--------------------------------------------------------------------------------------------------------




--------------------------------------- Iteration      1(  13)  ---------------------------------------


    POTLOK:  cpu time    0.4895: real time    0.4931
    SETDIJ:  cpu time    0.5089: real time    0.5089
     EDDAV:  cpu time   75.5051: real time   75.5422
       DOS:  cpu time    0.0010: real time    0.0010
    CHARGE:  cpu time    3.0501: real time    3.0509
    MIXING:  cpu time    0.0472: real time    0.0471
    --------------------------------------------
      LOOP:  cpu time   79.6018: real time   79.6432

 eigenvalue-minimisations  :  5768
 total energy-change (2. order) :-0.3270700E-04  (-0.1314184E-04)
 number of electron     511.9999998 magnetization 
 augmentation part      -29.4846363 magnetization 

 Broyden mixing:
  rms(total) = 0.56249E-03    rms(broyden)= 0.56247E-03
  rms(prec ) = 0.75096E-03
  weight for this iteration     100.00

 eigenvalues of (default mixing * dielectric matrix)
  average eigenvalue GAMMA=   1.7789
  3.1434  2.5667  1.9464  1.9464  1.3785  1.3785  0.9358  0.9358

 Free energy of the ion-electron system (eV)
  ---------------------------------------------------
  alpha Z        PSCENC =       210.77028614
  Ewald energy   TEWEN  =    -14471.81468576
  -Hartree energ DENC   =      -998.95513284
  -exchange      EXHF   =         0.00000000
  -V(xc)+E(xc)   XCENC  =     -1155.84660832
  PAW double counting   =      4732.67952164    -2494.45584044
  entropy T*S    EENTRO =        -0.00000000
  eigenvalues    EBANDS =       307.26696029
  atomic energy  EATOM  =     13192.48085998
  Solvation  Ediel_sol  =         0.00000000
  ---------------------------------------------------
  free energy    TOTEN  =      -677.87463930 eV

  energy without entropy =     -677.87463930  energy(sigma->0) =     -677.87463930


--------------------------------------------------------------------------------------------------------




--------------------------------------- Iteration      1(  14)  ---------------------------------------


    POTLOK:  cpu time    0.4956: real time    0.4966
    SETDIJ:  cpu time    0.5097: real time    0.5097
     EDDAV:  cpu time   79.0901: real time   79.1194
       DOS:  cpu time    0.0011: real time    0.0011
    CHARGE:  cpu time    3.0490: real time    3.0497
    MIXING:  cpu time    0.0433: real time    0.0433
    --------------------------------------------
      LOOP:  cpu time   83.1888: real time   83.2198

 eigenvalue-minimisations  :  6128
 total energy-change (2. order) :-0.8426796E-06  (-0.8771653E-06)
 number of electron     511.9999998 magnetization 
 augmentation part      -29.4846456 magnetization 

 Broyden mixing:
  rms(total) = 0.23580E-03    rms(broyden)= 0.23575E-03
  rms(prec ) = 0.31481E-03
  weight for this iteration     100.00

 eigenvalues of (default mixing * dielectric matrix)
  average eigenvalue GAMMA=   1.7768
  3.2248  2.6287  2.2484  1.6949  1.6949  1.2804  1.2804  0.9185  1.0201

 Free energy of the ion-electron system (eV)
  ---------------------------------------------------
  alpha Z        PSCENC =       210.77028614
  Ewald energy   TEWEN  =    -14471.81468576
  -Hartree energ DENC   =      -998.97712275
  -exchange      EXHF   =         0.00000000
  -V(xc)+E(xc)   XCENC  =     -1155.84212135
  PAW double counting   =      4732.76004147    -2494.53720738
  entropy T*S    EENTRO =        -0.00000000
  eigenvalues    EBANDS =       307.28530950
  atomic energy  EATOM  =     13192.48085998
  Solvation  Ediel_sol  =         0.00000000
  ---------------------------------------------------
  free energy    TOTEN  =      -677.87464014 eV

  energy without entropy =     -677.87464014  energy(sigma->0) =     -677.87464014


--------------------------------------------------------------------------------------------------------




--------------------------------------- Iteration      1(  15)  ---------------------------------------


    POTLOK:  cpu time    0.4924: real time    0.4943
    SETDIJ:  cpu time    0.5070: real time    0.5072
     EDDAV:  cpu time   77.6372: real time   77.6663
       DOS:  cpu time    0.0010: real time    0.0010
    CHARGE:  cpu time    3.0503: real time    3.0522
    MIXING:  cpu time    0.0414: real time    0.0414
    --------------------------------------------
      LOOP:  cpu time   81.7293: real time   81.7623

 eigenvalue-minimisations  :  5984
 total energy-change (2. order) :-0.5091897E-05  (-0.3122181E-06)
 number of electron     511.9999998 magnetization 
 augmentation part      -29.4844586 magnetization 

 Broyden mixing:
  rms(total) = 0.68401E-04    rms(broyden)= 0.68241E-04
  rms(prec ) = 0.90831E-04
  weight for this iteration     100.00

 eigenvalues of (default mixing * dielectric matrix)
  average eigenvalue GAMMA=   1.7071
  3.2346  2.5858  2.2070  1.6853  1.6853  1.4063  1.4063  0.9782  0.9782  0.9044

 Free energy of the ion-electron system (eV)
  ---------------------------------------------------
  alpha Z        PSCENC =       210.77028614
  Ewald energy   TEWEN  =    -14471.81468576
  -Hartree energ DENC   =      -999.01290058
  -exchange      EXHF   =         0.00000000
  -V(xc)+E(xc)   XCENC  =     -1155.83973715
  PAW double counting   =      4732.86246409    -2494.64285949
  entropy T*S    EENTRO =        -0.00000000
  eigenvalues    EBANDS =       307.32192753
  atomic energy  EATOM  =     13192.48085998
  Solvation  Ediel_sol  =         0.00000000
  ---------------------------------------------------
  free energy    TOTEN  =      -677.87464523 eV

  energy without entropy =     -677.87464523  energy(sigma->0) =     -677.87464523


--------------------------------------------------------------------------------------------------------




--------------------------------------- Iteration      1(  16)  ---------------------------------------


    POTLOK:  cpu time    0.4898: real time    0.4937
    SETDIJ:  cpu time    0.5094: real time    0.5101
     EDDAV:  cpu time   79.9906: real time   80.0164
       DOS:  cpu time    0.0013: real time    0.0013
    CHARGE:  cpu time    3.2007: real time    3.2010
    MIXING:  cpu time    0.0451: real time    0.0451
    --------------------------------------------
      LOOP:  cpu time   84.2369: real time   84.2677

 eigenvalue-minimisations  :  6224
 total energy-change (2. order) : 0.5007278E-06  (-0.1884696E-07)
 number of electron     511.9999998 magnetization 
 augmentation part      -29.4844628 magnetization 

 Broyden mixing:
  rms(total) = 0.40410E-04    rms(broyden)= 0.40139E-04
  rms(prec ) = 0.52537E-04
  weight for this iteration     100.00

 eigenvalues of (default mixing * dielectric matrix)
  average eigenvalue GAMMA=   1.7244
  3.2946  2.6374  2.0915  2.0915  1.4937  1.4937  1.5001  1.3372  0.9065  1.0611
  1.0611

 Free energy of the ion-electron system (eV)
  ---------------------------------------------------
  alpha Z        PSCENC =       210.77028614
  Ewald energy   TEWEN  =    -14471.81468576
  -Hartree energ DENC   =      -999.01094449
  -exchange      EXHF   =         0.00000000
  -V(xc)+E(xc)   XCENC  =     -1155.83980592
  PAW double counting   =      4732.85494129    -2494.63495809
  entropy T*S    EENTRO =        -0.00000000
  eigenvalues    EBANDS =       307.31966211
  atomic energy  EATOM  =     13192.48085998
  Solvation  Ediel_sol  =         0.00000000
  ---------------------------------------------------
  free energy    TOTEN  =      -677.87464473 eV

  energy without entropy =     -677.87464473  energy(sigma->0) =     -677.87464473


--------------------------------------------------------------------------------------------------------




--------------------------------------- Iteration      1(  17)  ---------------------------------------


    POTLOK:  cpu time    0.4938: real time    0.4943
    SETDIJ:  cpu time    0.5089: real time    0.5091
     EDDAV:  cpu time   72.8796: real time   72.9095
       DOS:  cpu time    0.0010: real time    0.0010
    CHARGE:  cpu time    3.2884: real time    3.2888
    MIXING:  cpu time    0.0380: real time    0.0380
    --------------------------------------------
      LOOP:  cpu time   77.2097: real time   77.2407

 eigenvalue-minimisations  :  5504
 total energy-change (2. order) : 0.3483001E-06  (-0.5445348E-08)
 number of electron     511.9999998 magnetization 
 augmentation part      -29.4844736 magnetization 

 Broyden mixing:
  rms(total) = 0.16376E-04    rms(broyden)= 0.15695E-04
  rms(prec ) = 0.19354E-04
  weight for this iteration     100.00

 eigenvalues of (default mixing * dielectric matrix)
  average eigenvalue GAMMA=   1.6882
  3.2890  2.6395  2.0918  2.0918  1.6773  1.6773  1.3982  1.3982  0.9251  0.9441
  1.0629  1.0629

 Free energy of the ion-electron system (eV)
  ---------------------------------------------------
  alpha Z        PSCENC =       210.77028614
  Ewald energy   TEWEN  =    -14471.81468576
  -Hartree energ DENC   =      -999.00874717
  -exchange      EXHF   =         0.00000000
  -V(xc)+E(xc)   XCENC  =     -1155.83997278
  PAW double counting   =      4732.85081641    -2494.63053104
  entropy T*S    EENTRO =        -0.00000000
  eigenvalues    EBANDS =       307.31732982
  atomic energy  EATOM  =     13192.48085998
  Solvation  Ediel_sol  =         0.00000000
  ---------------------------------------------------
  free energy    TOTEN  =      -677.87464438 eV

  energy without entropy =     -677.87464438  energy(sigma->0) =     -677.87464438


--------------------------------------------------------------------------------------------------------




--------------------------------------- Iteration      1(  18)  ---------------------------------------


    POTLOK:  cpu time    0.4937: real time    0.4949
    SETDIJ:  cpu time    0.5073: real time    0.5073
     EDDAV:  cpu time   51.3958: real time   51.4184
       DOS:  cpu time    0.0017: real time    0.0017
    CHARGE:  cpu time    3.2052: real time    3.2075
    MIXING:  cpu time    0.0445: real time    0.0445
    --------------------------------------------
      LOOP:  cpu time   55.6483: real time   55.6743

 eigenvalue-minimisations  :  3328
 total energy-change (2. order) :-0.1611006E-06  (-0.8655618E-09)
 number of electron     511.9999998 magnetization 
 augmentation part      -29.4844690 magnetization 

 Broyden mixing:
  rms(total) = 0.74287E-05    rms(broyden)= 0.57747E-05
  rms(prec ) = 0.73747E-05
  weight for this iteration     100.00
  WARNING: grid for Broyden might be to small

 eigenvalues of (default mixing * dielectric matrix)
  average eigenvalue GAMMA=   1.7172
  3.3145  2.6998  2.5166  2.1736  1.7904  1.7904  1.2961  1.2961  0.9140  0.9758
  1.0711  1.2422  1.2422

 Free energy of the ion-electron system (eV)
  ---------------------------------------------------
  alpha Z        PSCENC =       210.77028614
  Ewald energy   TEWEN  =    -14471.81468576
  -Hartree energ DENC   =      -999.00967166
  -exchange      EXHF   =         0.00000000
  -V(xc)+E(xc)   XCENC  =     -1155.83986774
  PAW double counting   =      4732.85594951    -2494.63576383
  entropy T*S    EENTRO =        -0.00000000
  eigenvalues    EBANDS =       307.31824881
  atomic energy  EATOM  =     13192.48085998
  Solvation  Ediel_sol  =         0.00000000
  ---------------------------------------------------
  free energy    TOTEN  =      -677.87464454 eV

  energy without entropy =     -677.87464454  energy(sigma->0) =     -677.87464454


--------------------------------------------------------------------------------------------------------




--------------------------------------- Iteration      1(  19)  ---------------------------------------


    POTLOK:  cpu time    0.4923: real time    0.4927
    SETDIJ:  cpu time    0.5064: real time    0.5067
     EDDAV:  cpu time   50.2308: real time   50.2448
       DOS:  cpu time    0.0016: real time    0.0016
    CHARGE:  cpu time    3.2012: real time    3.2021
    MIXING:  cpu time    0.0408: real time    0.0408
    --------------------------------------------
      LOOP:  cpu time   54.4731: real time   54.4887

 eigenvalue-minimisations  :  3208
 total energy-change (2. order) : 0.1345870E-07  (-0.2137393E-09)
 number of electron     511.9999998 magnetization 
 augmentation part      -29.4844688 magnetization 

 Broyden mixing:
  rms(total) = 0.53520E-05    rms(broyden)= 0.26087E-05
  rms(prec ) = 0.35720E-05
  weight for this iteration     100.00
  WARNING: grid for Broyden might be to small

 eigenvalues of (default mixing * dielectric matrix)
  average eigenvalue GAMMA=   1.6927
  3.3122  2.7216  2.4644  2.0954  1.8365  1.8365  1.4328  1.4328  0.9143  0.9734
  1.1848  1.1848  1.1540  1.1540

 Free energy of the ion-electron system (eV)
  ---------------------------------------------------
  alpha Z        PSCENC =       210.77028614
  Ewald energy   TEWEN  =    -14471.81468576
  -Hartree energ DENC   =      -999.00970546
  -exchange      EXHF   =         0.00000000
  -V(xc)+E(xc)   XCENC  =     -1155.83985543
  PAW double counting   =      4732.85640228    -2494.63620194
  entropy T*S    EENTRO =        -0.00000000
  eigenvalues    EBANDS =       307.31825566
  atomic energy  EATOM  =     13192.48085998
  Solvation  Ediel_sol  =         0.00000000
  ---------------------------------------------------
  free energy    TOTEN  =      -677.87464453 eV

  energy without entropy =     -677.87464453  energy(sigma->0) =     -677.87464453


--------------------------------------------------------------------------------------------------------




--------------------------------------- Iteration      1(  20)  ---------------------------------------


    POTLOK:  cpu time    0.4917: real time    0.4949
    SETDIJ:  cpu time    0.5059: real time    0.5059
     EDDAV:  cpu time   49.8464: real time   49.8695
       DOS:  cpu time    0.0019: real time    0.0019
    --------------------------------------------
      LOOP:  cpu time   50.8459: real time   50.8722

 eigenvalue-minimisations  :  3168
 total energy-change (2. order) :-0.6210030E-08  (-0.2948412E-10)
 number of electron     511.9999998 magnetization 
 augmentation part      -29.4844688 magnetization 

 Free energy of the ion-electron system (eV)
  ---------------------------------------------------
  alpha Z        PSCENC =       210.77028614
  Ewald energy   TEWEN  =    -14471.81468576
  -Hartree energ DENC   =      -999.00975063
  -exchange      EXHF   =         0.00000000
  -V(xc)+E(xc)   XCENC  =     -1155.83984827
  PAW double counting   =      4732.85655244    -2494.63635712
  entropy T*S    EENTRO =        -0.00000000
  eigenvalues    EBANDS =       307.31829869
  atomic energy  EATOM  =     13192.48085998
  Solvation  Ediel_sol  =         0.00000000
  ---------------------------------------------------
  free energy    TOTEN  =      -677.87464453 eV

  energy without entropy =     -677.87464453  energy(sigma->0) =     -677.87464453


--------------------------------------------------------------------------------------------------------




 average (electrostatic) potential at core
  the test charge radii are     0.9892
  (the norm of the test charge is              1.0000)
       1 -83.4405       2 -83.4335       3 -83.5515       4 -83.3896       5 -83.4897
       6 -83.5291       7 -83.5457       8 -83.7159       9 -83.3950      10 -83.3479
      11 -83.6369      12 -83.4915      13 -83.4738      14 -83.4606      15 -83.5816
      16 -83.4783      17 -83.4742      18 -83.4338      19 -83.4140      20 -83.5561
      21 -83.5212      22 -83.4070      23 -83.5982      24 -83.5831      25 -83.3991
      26 -83.4894      27 -83.4353      28 -83.4479      29 -83.5646      30 -83.5112
      31 -83.5676      32 -83.4429      33 -83.4443      34 -83.4419      35 -83.6131
      36 -83.5017      37 -83.4493      38 -83.5626      39 -83.4713      40 -83.6440
      41 -83.5174      42 -83.4920      43 -83.5245      44 -83.4635      45 -83.3389
      46 -83.5255      47 -83.4453      48 -83.6125      49 -83.4109      50 -83.6658
      51 -83.6968      52 -83.5957      53 -83.5885      54 -83.6771      55 -83.6982
      56 -83.6110      57 -83.4950      58 -83.5741      59 -83.5268      60 -83.5824
      61 -83.5685      62 -83.4497      63 -83.6701      64 -83.5626      65 -83.4202
      66 -83.4741      67 -83.4111      68 -83.5509      69 -83.4485      70 -83.5237
      71 -83.5652      72 -83.5347      73 -83.3877      74 -83.5199      75 -83.4948
      76 -83.5527      77 -83.5979      78 -83.3989      79 -83.5682      80 -83.4132
      81 -83.4044      82 -83.4626      83 -83.5874      84 -83.5050      85 -83.3936
      86 -83.5546      87 -83.5526      88 -83.5741      89 -83.5211      90 -83.4645
      91 -83.5293      92 -83.4270      93 -83.3621      94 -83.5809      95 -83.3989
      96 -83.5412      97 -83.3664      98 -83.5360      99 -83.5302     100 -83.5529
     101 -83.6104     102 -83.4794     103 -83.6705     104 -83.5032     105 -83.4505
     106 -83.5619     107 -83.3842     108 -83.5293     109 -83.4750     110 -83.4684
     111 -83.5617     112 -83.6438     113 -83.6462     114 -83.5515     115 -83.6046
     116 -83.4972     117 -83.6089     118 -83.5663     119 -83.6893     120 -83.6603
     121 -83.5157     122 -83.4068     123 -83.6253     124 -83.4924     125 -83.4103
     126 -83.7221     127 -83.6699     128 -83.5856
 
 
 
 E-fermi :   5.9321     XC(G=0):  -9.3333     alpha+bet :-11.7321


 k-point     1 :       0.0000    0.0000    0.0000
  band No.  band energies     occupation 
      1      -6.3010      2.00000
      2      -5.7353      2.00000
      3      -5.6416      2.00000
      4      -5.5608      2.00000
      5      -5.5353      2.00000
      6      -5.5139      2.00000
      7      -5.4955      2.00000
      8      -5.4585      2.00000
      9      -5.4170      2.00000
     10      -5.3656      2.00000
     11      -5.2639      2.00000
     12      -5.2153      2.00000
     13      -5.1983      2.00000
     14      -5.1351      2.00000
     15      -5.1087      2.00000
     16      -4.5479      2.00000
     17      -4.4659      2.00000
     18      -4.4530      2.00000
     19      -4.3887      2.00000
     20      -4.3516      2.00000
     21      -4.3230      2.00000
     22      -4.2971      2.00000
     23      -4.2700      2.00000
     24      -4.2653      2.00000
     25      -4.2076      2.00000
     26      -4.1681      2.00000
     27      -4.1373      2.00000
     28      -4.0716      2.00000
     29      -4.0362      2.00000
     30      -4.0166      2.00000
     31      -3.9672      2.00000
     32      -3.8859      2.00000
     33      -3.8414      2.00000
     34      -3.7952      2.00000
     35      -3.7772      2.00000
     36      -3.7450      2.00000
     37      -3.7194      2.00000
     38      -3.7099      2.00000
     39      -3.6959      2.00000
     40      -3.6560      2.00000
     41      -3.6186      2.00000
     42      -3.5959      2.00000
     43      -3.5678      2.00000
     44      -3.5465      2.00000
     45      -3.5274      2.00000
     46      -3.5109      2.00000
     47      -3.4669      2.00000
     48      -3.4423      2.00000
     49      -3.3949      2.00000
     50      -3.3642      2.00000
     51      -3.3474      2.00000
     52      -3.3262      2.00000
     53      -3.2886      2.00000
     54      -3.2402      2.00000
     55      -3.2344      2.00000
     56      -2.4198      2.00000
     57      -2.3279      2.00000
     58      -2.3043      2.00000
     59      -2.2665      2.00000
     60      -2.2340      2.00000
     61      -2.1927      2.00000
     62      -2.1446      2.00000
     63      -2.0870      2.00000
     64      -2.0423      2.00000
     65      -2.0148      2.00000
     66      -1.9821      2.00000
     67      -1.9604      2.00000
     68      -1.9367      2.00000
     69      -1.9037      2.00000
     70      -1.8817      2.00000
     71      -1.8486      2.00000
     72      -1.8191      2.00000
     73      -1.7515      2.00000
     74      -1.4137      2.00000
     75      -1.3452      2.00000
     76      -1.2593      2.00000
     77      -1.2128      2.00000
     78      -1.0997      2.00000
     79      -1.0130      2.00000
     80      -0.9879      2.00000
     81      -0.9374      2.00000
     82      -0.9208      2.00000
     83      -0.8955      2.00000
     84      -0.8690      2.00000
     85      -0.8410      2.00000
     86      -0.8037      2.00000
     87      -0.7790      2.00000
     88      -0.7593      2.00000
     89      -0.7509      2.00000
     90      -0.7183      2.00000
     91      -0.7007      2.00000
     92      -0.6718      2.00000
     93      -0.6380      2.00000
     94      -0.6251      2.00000
     95      -0.5613      2.00000
     96      -0.5516      2.00000
     97      -0.5222      2.00000
     98      -0.4778      2.00000
     99      -0.4517      2.00000
    100      -0.3713      2.00000
    101      -0.3445      2.00000
    102      -0.0013      2.00000
    103       0.0498      2.00000
[...]
   0.226E+01 -.242E+00 0.177E+01   -.191E+01 0.900E-01 -.196E+01   -.190E+01 0.114E+00 -.348E+00   0.794E-06 0.371E-05 0.104E-05
   0.521E+01 0.361E+01 0.879E+01   -.568E+01 -.365E+01 -.776E+01   -.149E+01 -.462E+00 -.244E+01   -.767E-06 -.182E-05 -.236E-05
   0.447E+01 -.663E+01 -.129E+02   -.444E+01 0.586E+01 0.113E+02   -.191E+01 0.576E+00 0.311E+01   0.363E-05 0.263E-05 0.239E-05
   0.408E+01 0.106E+02 0.846E+01   -.339E+01 -.959E+01 -.831E+01   -.269E+01 -.185E+01 0.150E+00   0.173E-05 -.118E-05 -.152E-05
   0.345E+01 -.864E+01 0.452E+00   -.309E+01 0.821E+01 0.115E+00   -.124E+01 0.161E+01 -.101E+01   0.792E-06 0.234E-05 0.130E-05
   0.111E+02 0.572E+00 0.143E+01   -.973E+01 -.155E+00 -.946E+00   -.181E+01 0.133E+00 -.102E+01   -.755E-06 0.617E-06 0.264E-06
   -.545E+01 -.151E+02 -.132E+01   0.516E+01 0.131E+02 0.135E+01   0.167E+01 0.567E+01 0.128E+01   -.931E-06 0.703E-06 -.211E-05
   -.996E+01 -.246E+00 0.174E+01   0.866E+01 0.190E+00 -.177E+01   0.222E+01 -.743E+00 -.904E+00   -.160E-05 -.193E-05 -.136E-05
   -.440E+01 0.120E+02 0.439E+01   0.361E+01 -.106E+02 -.403E+01   0.138E+01 -.278E+01 -.802E+00   -.221E-07 0.237E-05 0.966E-06
   0.411E+01 0.282E+01 0.260E+01   -.327E+01 -.227E+01 -.256E+01   -.122E+01 -.134E+01 0.881E-01   0.119E-05 -.900E-06 0.423E-06
   0.245E+01 -.359E-02 0.133E-01   -.249E+01 -.683E-02 -.165E+00   -.102E+01 -.143E+01 0.468E+00   -.403E-06 -.110E-05 -.303E-05
   0.682E+01 0.193E+00 -.561E+01   -.621E+01 -.229E+00 0.531E+01   -.272E+01 -.108E+01 0.170E+01   -.130E-05 0.172E-05 0.531E-06
   0.417E+01 -.447E+01 -.690E+00   -.473E+01 0.354E+01 0.114E+01   -.782E+00 0.118E+01 -.143E+01   -.258E-06 0.132E-05 0.154E-05
   0.311E+01 0.470E+01 0.114E+01   -.313E+01 -.399E+01 -.152E+01   -.151E+01 -.339E+01 0.128E+01   0.509E-06 -.344E-05 -.359E-05
   0.453E+00 -.210E+01 0.216E+01   -.459E+00 0.242E+01 -.143E+01   -.180E+01 -.196E+00 -.193E+01   0.287E-05 -.185E-05 0.201E-05
   -.306E+01 0.143E+02 -.103E+01   0.214E+01 -.134E+02 0.356E+00   -.232E+00 -.242E+01 0.482E+00   0.754E-06 -.945E-06 0.282E-05
   -.407E+01 -.117E+01 -.429E+00   0.352E+01 0.125E+01 0.525E+00   -.243E+00 0.176E+00 -.274E+00   -.189E-05 -.330E-06 0.489E-05
   -.248E+01 -.663E+01 -.634E+01   0.266E+01 0.641E+01 0.525E+01   0.401E+00 0.527E+00 0.253E+01   0.803E-06 -.383E-06 0.172E-05
   0.111E+02 0.511E+01 0.375E-01   -.999E+01 -.454E+01 -.591E-01   -.313E+01 -.106E+01 0.159E+00   -.309E-06 -.189E-05 0.200E-05
   0.227E+01 -.252E+01 0.361E+01   -.163E+01 0.197E+01 -.348E+01   -.190E+01 0.180E+01 -.857E-01   0.164E-06 -.619E-06 0.623E-06
   -.738E+01 -.517E+01 0.178E+01   0.643E+01 0.408E+01 -.199E+01   0.247E+01 0.236E+01 0.460E+00   -.296E-05 0.557E-06 -.248E-05
   0.384E+01 0.904E+01 -.506E+01   -.359E+01 -.808E+01 0.475E+01   0.309E+00 -.272E+01 0.543E+00   -.312E-06 0.170E-05 -.106E-05
   -.476E+01 -.375E+01 -.377E+01   0.414E+01 0.376E+01 0.291E+01   0.128E+01 0.547E+00 0.126E+01   -.101E-05 -.404E-05 -.245E-05
   0.796E+01 0.384E+01 0.109E+02   -.768E+01 -.355E+01 -.993E+01   -.102E+01 -.535E+00 -.156E+01   -.136E-05 0.147E-05 0.166E-05
   -.351E+01 -.890E+01 -.136E+01   0.241E+01 0.857E+01 0.803E+00   0.152E+01 0.127E+01 0.881E+00   -.549E-06 0.170E-05 0.578E-07
   0.635E+01 0.395E+00 -.895E+01   -.557E+01 -.886E+00 0.744E+01   -.225E+01 -.804E+00 0.323E+01   -.230E-05 -.951E-06 0.142E-05
   -.178E+02 -.605E+01 0.686E+01   0.156E+02 0.514E+01 -.620E+01   0.586E+01 0.256E+01 -.941E-01   0.270E-05 0.211E-06 -.173E-05
   0.339E+00 0.805E+01 0.528E+01   -.507E+00 -.755E+01 -.470E+01   -.735E+00 -.319E+01 -.695E+00   -.756E-06 0.111E-05 -.132E-05
   0.774E+01 -.470E+01 -.587E+01   -.671E+01 0.484E+01 0.558E+01   -.260E+01 0.912E+00 0.139E+01   -.624E-05 -.900E-06 0.118E-05
   -.537E+01 -.966E+01 -.229E+00   0.514E+01 0.903E+01 0.554E+00   0.460E+00 0.192E+01 0.178E+00   0.811E-07 0.167E-06 0.196E-06
   -.120E+01 0.257E+01 -.290E+00   0.636E+00 -.256E+01 -.549E-01   -.259E+00 0.149E+00 0.153E+00   0.165E-05 -.666E-06 -.106E-05
   -.647E+01 -.957E+00 0.275E+01   0.577E+01 0.609E+00 -.236E+01   -.409E-01 0.176E+01 -.690E+00   0.641E-06 -.296E-05 0.128E-05
   0.101E+02 0.674E+01 -.643E+01   -.903E+01 -.564E+01 0.536E+01   -.359E+01 -.201E+01 0.224E+01   -.124E-05 -.856E-06 0.371E-05
   -.121E+02 -.754E+01 0.550E+01   0.105E+02 0.664E+01 -.525E+01   0.463E+01 0.992E+00 -.842E+00   0.265E-05 0.233E-06 0.397E-06
   0.672E+01 -.150E+00 0.180E+01   -.595E+01 0.740E+00 -.134E+01   -.152E+01 0.150E+00 -.104E+01   0.151E-05 -.292E-05 0.105E-05
   0.532E+00 0.795E+00 0.543E+01   -.471E+00 -.102E+01 -.431E+01   -.727E+00 0.284E+00 -.314E+01   -.253E-05 -.316E-06 0.976E-06
   -.379E+01 -.312E+01 -.206E+01   0.352E+01 0.311E+01 0.227E+01   0.297E+00 0.164E+01 0.864E+00   0.675E-06 -.406E-07 0.113E-05
   0.289E+01 -.206E+01 0.546E+01   -.278E+01 0.190E+01 -.509E+01   -.811E+00 0.116E+01 -.241E+01   -.178E-05 -.223E-05 -.393E-05
   0.121E+02 -.822E+00 -.526E+01   -.112E+02 0.107E+01 0.421E+01   -.215E+01 -.523E+00 0.816E+00   0.231E-05 0.138E-05 -.330E-06
   -.331E+01 0.304E+01 -.171E+01   0.259E+01 -.197E+01 0.720E+00   -.487E+00 -.531E+00 0.258E+01   0.162E-05 0.141E-05 0.167E-05
   -.327E+01 0.878E+01 -.530E+01   0.284E+01 -.757E+01 0.459E+01   0.331E+00 -.345E+01 0.183E+01   -.209E-05 0.340E-05 -.940E-06
   0.395E+01 0.190E+01 0.352E+00   -.273E+01 -.194E+01 -.492E+00   -.491E+00 0.469E+00 -.142E+01   -.166E-05 0.253E-06 0.130E-05
   -.867E+01 -.422E+01 -.139E+01   0.817E+01 0.322E+01 0.135E+01   0.235E+01 0.203E+01 0.725E+00   0.180E-06 0.175E-06 0.516E-06
   -.853E+01 -.980E+01 -.305E+01   0.819E+01 0.929E+01 0.312E+01   0.220E+01 0.226E+01 0.122E+01   0.113E-05 0.426E-06 -.449E-05
   -.111E+02 -.883E+01 0.113E+02   0.104E+02 0.795E+01 -.105E+02   0.162E+01 0.245E+01 -.179E+01   0.244E-05 0.384E-05 -.480E-06
   0.609E+01 0.835E+01 -.152E+02   -.562E+01 -.803E+01 0.140E+02   -.256E+00 -.155E+01 0.331E+01   0.107E-05 0.797E-06 0.208E-05
   0.670E+01 0.146E+01 -.141E+01   -.567E+01 -.111E+01 0.165E+01   -.253E+01 -.475E+00 -.588E-01   0.145E-05 -.679E-06 -.284E-05
   0.918E+00 -.457E+01 -.176E+01   -.117E+01 0.403E+01 0.606E+00   -.411E+00 0.960E+00 0.145E+01   0.848E-06 0.260E-05 -.909E-06
   0.595E+01 0.953E+00 0.122E+02   -.536E+01 -.505E+00 -.104E+02   -.179E+01 0.813E+00 -.429E+01   -.262E-06 -.715E-06 -.212E-07
   -.863E+00 -.510E+01 -.386E+01   0.605E+00 0.476E+01 0.360E+01   0.874E+00 0.105E+01 0.575E+00   0.196E-05 -.128E-05 0.112E-05
   -.424E+01 0.826E+01 0.564E+00   0.347E+01 -.739E+01 -.857E+00   0.253E+01 -.317E+01 -.172E+01   0.138E-05 -.234E-05 -.236E-05
   -.137E+01 0.294E+01 -.251E+01   0.135E+01 -.237E+01 0.199E+01   0.772E+00 0.659E+00 0.753E+00   0.942E-06 0.166E-05 0.128E-05
   0.191E+01 0.916E+01 -.714E+01   -.224E+01 -.822E+01 0.657E+01   0.257E+00 -.245E+01 0.173E+01   -.484E-06 -.151E-05 0.314E-05
 -----------------------------------------------------------------------------------------------
   -.361E+00 0.237E+00 -.450E-01   0.108E-12 -.243E-12 0.124E-12   0.361E+00 -.237E+00 0.450E-01   0.549E-06 -.287E-06 0.150E-05
 
 
 POSITION                                       TOTAL-FORCE (eV/Angst)
 -----------------------------------------------------------------------------------
     21.76356     10.93360     10.91359         0.407609     -0.149275      1.401928
     21.75832     13.55232     13.58162         1.618293      0.837382      0.334448
     21.75169     16.57643     16.60410         2.028368     -0.841694     -1.633729
     21.75841     19.15088     19.12690         2.151974      0.406008      0.299480
      2.74790     10.92717     13.63787        -0.321613      0.229626      1.248085
     13.64388     13.62881      5.40299        -0.545097      1.243867      1.679690
      2.69413      5.57031      8.22408         0.069922     -1.671540      0.371385
      2.90793      8.31451     10.86441        -1.651976     -0.764748      0.521162
     16.39144     21.84166     16.39844         0.291608     -0.078955     -1.227063
     16.40310     13.58403      8.20214        -0.031422      0.648621     -1.721353
     16.26865     16.38611     10.87288         1.958417     -0.069930      0.484273
      5.50805      8.27362     13.63925         0.361021     -0.901733      1.600250
     19.01600     11.01894      8.21029         1.351486      0.039440      0.079157
     19.13875     13.62608     10.91097        -0.737259      0.330275     -0.179560
     19.09017     16.31823     13.64081         1.069027     -0.386007      0.731028
      8.20579      8.21441     16.35476         1.513540      0.343238     -0.277046
     13.58685     13.58287     21.60975        -0.621492      0.743096      1.908031
      2.92491      5.48823      2.78555        -1.783119     -2.284443     -1.638293
      2.74719      8.19902      5.52413         1.357392     -1.511378      0.064639
     13.63583     10.87443     19.05897        -0.457298      1.161814      1.264368
      5.43558     13.69041     13.50586         0.295308     -0.284745      2.035859
      5.63412      5.48553      5.59377         0.099385     -0.008424     -0.344402
      5.49303      8.20239      8.32456         0.712304      1.309511     -0.926109
      5.53299     10.93884     11.03423         0.252573      0.374392     -0.771317
      8.18643     13.61437     16.41967         0.993222      0.615052     -1.209978
      8.07858      5.28320      8.10991         1.857998      2.990445      0.213596
      8.10481      8.07764     10.90342         1.367838      0.384640      0.966604
      8.15163     10.95532     13.64060         1.853240     -0.224148      1.219070
     10.97511     13.80654     18.98992        -0.919492     -1.045227     -0.468637
     10.81443      5.26430     10.91004         2.762442      1.619541     -0.052048
     10.95896      8.09229     13.79046         1.189626      0.793839     -1.759558
     10.99631     10.88986     16.50073        -0.679243     -1.070881     -1.376017
      5.51048     16.33829     10.93769        -0.896148      0.874948      0.263882
     16.53293      8.42711     13.62003        -1.295262     -2.178696      0.795622
     16.31776     10.86194     16.23394         1.166672      0.452786      2.175695
      5.54834     13.74600      8.40750        -0.550540     -1.197755     -1.825725
      8.19383     16.37086     13.66253         0.512172      0.805799     -0.793172
      8.16611      8.28586      5.61255        -0.444260     -1.566336     -3.688447
      8.23237     10.84754      8.19625         0.389814      2.757462      0.096291
      8.25924     13.57238     10.87982        -0.687018      0.831442      0.460128
     10.81731      5.41587      5.49168         2.310287      1.900021     -2.563293
     10.82011      8.28127      8.17675         1.055654     -1.128937     -0.211042
     10.74081     10.92643     10.97923         1.810388      0.356930     -0.596513
     10.93691     13.69647     13.53712         1.431769     -1.427462      1.160092
     13.70200      5.45273      8.38752        -0.291431     -0.360643     -2.572505
     13.59461      8.18880     10.89337         0.167931      0.985708      0.996493
     13.56727     10.85902     13.74938         1.250802      0.275395      0.181609
     13.72669     13.82042     16.40348        -0.750147     -1.442523      0.688650
     19.04806      8.14810     10.95154         0.420193      0.868650     -0.050521
      8.35758     10.93635      2.66214        -1.176343      1.157248      1.387853
     19.10926     13.92230     16.50475        -0.282245     -2.016049     -0.741334
      8.21600     16.36165      8.16732         0.453188      0.419133     -0.458887
     10.98924     19.16843     13.55193         1.213642     -0.058778      1.168728
     11.01706     11.04965      5.47798        -2.078104     -1.806161     -0.281232
     10.99497     13.57284      8.21833        -0.070747      0.603613     -1.410258
     10.82802     16.44287     11.07945         0.096039      0.271003     -2.544235
     13.80295     19.19389     16.27472        -1.439149     -0.873823      1.205925
     13.61262     10.95225      8.24861         0.695162      0.011789     -0.107198
     13.74037     13.71457     10.93116        -1.006939     -1.142254     -0.477382
     13.51157     16.36891     13.73812         2.640327      1.171822     -0.711906
     16.56346     19.18541     19.12811        -2.566421     -0.141835     -0.236810
     16.36184     10.90695     10.93343         0.319417      0.364191      1.121369
     16.31088     13.74327     13.63396        -1.000415     -0.125275      1.552484
     16.36968     16.61614     16.41850         0.974257     -2.381619      1.163085
      1.35826      1.32336      1.31442        -0.002109     -0.066577     -0.341034
      1.39985      4.01729      4.01025        -1.000215      1.040547      0.030286
      1.41519      6.85691      6.89796        -1.017897      1.007502     -0.178201
      1.26396      9.66477      9.65712         0.971960     -1.221537     -1.270089
      4.08666      1.39633      4.26675         0.943389     -0.781552     -2.859599
      4.11004      4.21600      6.81180        -0.383420     -1.178832      0.596212
      4.14587      6.84799      9.51132        -0.890791      0.024038      0.595888
      4.17340      9.56956     12.36823        -0.418890      0.553210     -0.598706
      6.77258      1.32368      6.63804         0.279927      0.548522      2.194000
      6.84632      4.04439      9.39505        -1.224016     -0.923542      2.535716
      6.82273      6.79822     12.44957        -0.674860     -0.001689     -1.961939
      6.95095      9.61090     15.06871        -1.549169     -0.037776     -0.535559
      9.77936      1.53313      9.62292        -1.955232     -0.508246     -1.411829
      9.59734      3.99934     12.20015        -1.875423     -0.193842      1.582793
      9.63275      6.82219     15.03401        -2.000672     -0.879898      0.303294
      9.53814      9.53460     17.82553        -0.876815      1.180296     -0.447571
      4.05185      3.99662      1.25147        -0.430970      0.550202     -0.538408
      4.19376      6.55163      4.14412         1.374374      3.698467      1.308145
      4.08589      9.57777      6.90182         0.919189     -0.797904     -0.931395
      4.10811     12.30416      9.55666         0.594845     -1.364002     -0.439582
      6.86100      4.13002      4.08143        -0.385601     -0.785928      0.125156
      6.93215      6.98209      6.93721        -1.057931     -1.438185      0.316034
      6.99992      9.64226      9.56128        -2.118239     -1.112259      1.398011
      6.96023     12.32947     12.36416        -1.338399      0.248401     -0.982021
      9.54417      4.23608      6.74493        -1.532367     -2.686992      0.901765
      9.69136      6.78666      9.66278        -1.809383      0.130313     -1.206123
      9.59988      9.58012     12.40503        -1.145650     -1.552812     -0.195127
      9.69197     12.26211     15.04043        -0.788631      0.252643     -0.178055
     12.21668      4.08792      9.41756         0.577133      0.305650      1.438278
     12.50117      6.77421     12.32915        -2.057952     -0.490473      0.137452
     12.38233      9.39572     15.10094        -1.265827      1.240764      0.039367
     12.23749     12.27274     17.73447         1.522496      1.273616      0.249753
      6.72909      6.94216      1.36678         0.555312     -1.760470      0.236909
      6.91497      9.61093      4.06892         0.659114      0.552846      0.395967
      6.89815     12.35572      6.92931        -0.737469     -0.246485     -0.604558
      6.92020     15.02592      9.62125         0.413804      0.936385      0.324184
      9.66852      6.96213      3.93987        -1.472906     -1.294938      1.721132
      9.35902      9.55044      6.81327         3.671463      1.641729      0.564366
      9.63255     12.43916      9.53827        -0.903316     -2.690271     -0.119847
      9.62117     14.90775     12.17741        -1.568331      1.049237      1.099207
     12.31397      6.70817      6.80296         0.229152      1.287457      0.502607
     12.24234      9.58869      9.59907        -0.826058      0.157500     -0.192333
     12.36248     12.12913     12.26006        -0.741548      1.413548     -0.299900
     12.37598     15.02601     14.99035        -2.564357     -0.901052      1.177401
     14.88382      6.83886      9.66160         2.990814      0.087694     -0.590291
     15.01220      9.53683     12.34329        -0.744037      0.739505     -0.587306
     15.00718     12.34704     15.17715        -0.666502      0.060087     -2.019458
     15.14464     14.97679     17.78965         0.026363      1.631339      1.073152
      9.56527      9.44043      1.42645        -0.699945      1.002930     -2.047855
      9.61382     12.39841      4.19806        -1.228180     -0.276818     -0.230730
      9.75543     14.97685      6.78992        -1.206434      0.536761      1.581954
      9.46987     17.94540      9.49125        -0.096000     -2.243669      1.111490
     12.23350      9.53491      4.20125         0.737751      0.434866     -1.561951
     12.24889     12.23386      6.84164         1.857574      1.032606      0.687847
     12.12990     14.96419      9.54811         1.859615      1.748488      1.288268
     12.28300     17.66516     12.34055         0.968564      1.578995     -0.971525
     14.98185      9.69931      6.70670         0.220469     -1.229583      2.085178
     15.14692     12.29876      9.56785        -1.502545     -0.127376      0.181760
     14.98980     15.08197     12.29248        -0.663218      0.425505      0.289712
     15.08314     17.72879     15.07514        -1.194506      1.260154     -2.466075
     17.74693      9.57308      9.60537         0.615487      0.700018      0.312537
     17.66114     12.46256     12.45067         1.760722     -2.299617     -2.010521
     17.60884     15.02652     15.05495         0.753306      1.235357      0.236907
     17.82714     17.91653     17.67544        -0.074136     -1.512305      1.169472
 -----------------------------------------------------------------------------------
    total drift:                               -0.000011      0.000012      0.000011


--------------------------------------------------------------------------------------------------------



  FREE ENERGIE OF THE ION-ELECTRON SYSTEM (eV)
  ---------------------------------------------------
  free  energy   TOTEN  =      -677.87464453 eV

  energy  without entropy=     -677.87464453  energy(sigma->0) =     -677.87464453
 


--------------------------------------------------------------------------------------------------------


    POTLOK:  cpu time    1.0003: real time    1.0010


--------------------------------------------------------------------------------------------------------


     LOOP+:  cpu time 1647.3569: real time 1648.0821
    4ORBIT:  cpu time    0.0000: real time    0.0000

 total amount of memory used by VASP MPI-rank0   221701. kBytes
=======================================================================

   base      :      30000. kBytes
   nonl-proj :      10690. kBytes
   fftplans  :      66746. kBytes
   grid      :      26864. kBytes
   one-center:         24. kBytes
   wavefun   :      87377. kBytes
 
  
  
 General timing and accounting informations for this job:
 ========================================================
  
                  Total CPU time used (sec):     1671.675
                            User time (sec):     1670.387
                          System time (sec):        1.288
                         Elapsed time (sec):     1673.407
  
                   Maximum memory used (kb):      338412.
                   Average memory used (kb):           0.
  
                          Minor page faults:       144767
                          Major page faults:            0
                 Voluntary context switches:         1351
