potpaw_PBE@./ARUN.APL1ZEROSTATE         
           1
     0.000000   10.937334   10.937334
    10.937334    0.000000   10.937334
    10.937334   10.937334    0.000000
   Si
 128
Direct configuration=     1
   0.00382336  0.99400596  0.99583543
   0.24574637  0.99602085  0.99334178
   0.52246970  0.99564291  0.99311302
   0.75518253  0.99358915  0.99578137
   0.99737037  0.24953972  0.00170027
   0.24630914  0.24768639  0.99977288
   0.50744828  0.24447940  0.00184497
   0.74382821  0.24950465  0.01636686
   0.99881119  0.50049791  0.99817117
   0.24608719  0.50383442  0.99590053
   0.50242298  0.49168366  0.99575868
   0.74994607  0.49709035  0.00651057
   0.00974788  0.74091826  0.99771350
   0.24678321  0.75080678  0.99904844
   0.49687005  0.75030878  0.99510507
   0.74805186  0.74726317  0.00299159
   0.98770751  0.98807142  0.25417338
   0.24452388  0.01015927  0.25726504
   0.50176541  0.00330542  0.24787031
   0.74504321  0.99751813  0.24920533
   0.99478976  0.24005030  0.25692426
   0.24892634  0.26251176  0.25261557
   0.50441555  0.25669877  0.24552836
   0.75155798  0.25730154  0.24857979
   0.99876325  0.50248690  0.24599794
   0.24295378  0.49853528  0.24008855
   0.49720739  0.49969146  0.24133081
   0.75175028  0.49540930  0.24989419
   0.99756254  0.73868512  0.26476874
   0.24502842  0.75247652  0.23628618
   0.49938065  0.76148034  0.24049724
   0.74946405  0.75919728  0.24619515
   0.99500944  0.00502332  0.49879951
   0.25208239  0.99319687  0.51840804
   0.49272190  0.99154687  0.50038490
   0.75910451  0.00959305  0.49769184
   0.99839561  0.25076920  0.49839194
   0.26205231  0.25110315  0.49552352
   0.49424372  0.25513946  0.49754607
   0.74026049  0.25448103  0.50066142
   0.00412532  0.49797897  0.49104763
   0.25773697  0.48986322  0.49941911
   0.51040144  0.49342950  0.48860196
   0.74500196  0.49269596  0.50726557
   0.00631990  0.76055050  0.49222297
   0.25086352  0.74511713  0.49783775
   0.50474497  0.75236038  0.48809448
   0.75416982  0.74559993  0.50943063
   0.00235779  0.99894086  0.74262245
   0.23958826  0.00381111  0.76032175
   0.51739253  0.99163621  0.75552310
   0.74574691  0.00099088  0.75019778
   0.99343758  0.24561461  0.75913079
   0.25191539  0.24893567  0.75835336
   0.49354766  0.25785373  0.74741637
   0.76317967  0.24981398  0.74019132
   0.99044548  0.49755196  0.76445158
   0.25546629  0.49870373  0.74589755
   0.49853862  0.50089701  0.75538418
   0.75866130  0.49741485  0.73794753
   0.99430367  0.75457871  0.75981761
   0.25045123  0.74919200  0.74677044
   0.50589780  0.74065468  0.75064843
   0.76183807  0.73930463  0.75737476
   0.05849299  0.06168395  0.06250188
   0.30298457  0.06367271  0.06431579
   0.56410829  0.06657205  0.06281863
   0.82551807  0.05743197  0.05813173
   0.07206580  0.31804253  0.05560074
   0.31624551  0.30655723  0.06922342
   0.55833710  0.31128232  0.06777436
   0.81209881  0.31872771  0.06284569
   0.05436166  0.55255434  0.06666246
   0.30140436  0.55758480  0.06837403
   0.56801110  0.57025217  0.05355004
   0.81046524  0.56726618  0.06825931
   0.06293509  0.81688790  0.07723888
   0.30181709  0.81364235  0.06384231
   0.55879517  0.81576418  0.06495734
   0.81473227  0.81505525  0.05701609
   0.05468608  0.05973550  0.31072471
   0.29723856  0.08165842  0.30177711
   0.56657766  0.06445530  0.30911709
   0.81156451  0.06220018  0.31340434
   0.06173555  0.31142926  0.31587187
   0.31941701  0.31485152  0.31895492
   0.55788824  0.31629936  0.32370293
   0.81068213  0.31977283  0.31660098
   0.06568462  0.55100362  0.32161962
   0.30894518  0.57452221  0.31155854
   0.56619256  0.56799918  0.30971742
   0.80506710  0.57007903  0.31605760
   0.05891757  0.80212972  0.31484122
   0.30181895  0.82543463  0.31754678
   0.55380655  0.82687181  0.30524386
   0.81234256  0.80911971  0.30975341
   0.07222291  0.05274213  0.56249813
   0.30925626  0.06276453  0.56947114
   0.56626651  0.06728046  0.56341668
   0.81038826  0.06928207  0.56343127
   0.05638823  0.30383375  0.58015878
   0.32021951  0.30271742  0.55297713
   0.56434538  0.30773795  0.57296616
   0.79836611  0.31501436  0.56464894
   0.05472808  0.56726642  0.55859962
   0.31750988  0.56013268  0.55918392
   0.54980105  0.57113611  0.55916499
   0.80642963  0.56413715  0.56739783
   0.07390446  0.80945522  0.55137224
   0.31396674  0.81457961  0.55798490
   0.57221497  0.81543159  0.55667442
   0.80557996  0.82092706  0.56374694
   0.05950305  0.07091704  0.80363498
   0.31921181  0.06461622  0.81437473
   0.54909803  0.07170390  0.82023508
   0.82135093  0.04643415  0.81939594
   0.06869425  0.31542561  0.80308265
   0.31207834  0.31345248  0.80646307
   0.56606156  0.30692219  0.80211421
   0.81019346  0.31810234  0.80493167
   0.06510531  0.54808808  0.82170228
   0.30719057  0.56759794  0.81728426
   0.56616399  0.55773715  0.81277984
   0.81010536  0.56821370  0.81083747
   0.06544155  0.81277689  0.80982448
   0.33152920  0.80683472  0.80792231
   0.57018661  0.80628725  0.80368795
   0.81211887  0.80394612  0.82598850
