 128 128   0   0
  0.2044346E+02  0.1546773E-08  0.1546773E-08  0.1546773E-08  0.5000000E-15
  1.000000000000000E-004
  CAR 
 potpaw_PBE@./ARUN.APL1ZEROSTATE         
      9.33635999     -7.06863053  301      5.98359005      1.00000000
     -7.069  0.0000E+00  0.0000E+00
     -7.014  0.0000E+00  0.0000E+00
     -6.959  0.0000E+00  0.0000E+00
     -6.905  0.0000E+00  0.0000E+00
     -6.850  0.0000E+00  0.0000E+00
     -6.795  0.0000E+00  0.0000E+00
     -6.741  0.0000E+00  0.0000E+00
     -6.686  0.0000E+00  0.0000E+00
     -6.631  0.0000E+00  0.0000E+00
     -6.576  0.0000E+00  0.0000E+00
     -6.522  0.0000E+00  0.0000E+00
     -6.467  0.0000E+00  0.0000E+00
     -6.412  0.0000E+00  0.0000E+00
     -6.358  0.1966E-05  0.1075E-06
     -6.303  0.4561E+01  0.2494E+00
     -6.248  0.1125E-01  0.2500E+00
     -6.194  0.4501E+01  0.4961E+00
     -6.139  0.1576E+02  0.1358E+01
     -6.084  0.2516E+02  0.2734E+01
     -6.030  0.1250E+02  0.3417E+01
     -5.975  0.6081E+01  0.3750E+01
     -5.920  0.6708E-01  0.3754E+01
     -5.866  0.6670E+01  0.4118E+01
     -5.811  0.1573E+02  0.4979E+01
     -5.756  0.2761E+02  0.6488E+01
     -5.702  0.1617E+02  0.7373E+01
     -5.647  0.4081E+02  0.9605E+01
     -5.592  0.1973E+02  0.1068E+02
     -5.537  0.1972E+02  0.1176E+02
     -5.483  0.2487E+02  0.1312E+02
     -5.428  0.2464E+02  0.1447E+02
     -5.373  0.5121E+01  0.1475E+02
     -5.319  0.4564E+01  0.1500E+02
     -5.264  0.1119E+02  0.1561E+02
     -5.209  0.2048E+02  0.1673E+02
     -5.155  0.4204E+02  0.1903E+02
     -5.100  0.3156E+02  0.2076E+02
     -5.045  0.4360E+02  0.2314E+02
     -4.991  0.3365E+02  0.2498E+02
     -4.936  0.3878E+02  0.2710E+02
     -4.881  0.2351E+02  0.2839E+02
     -4.827  0.1678E+02  0.2930E+02
     -4.772  0.2450E+02  0.3064E+02
     -4.717  0.2996E+02  0.3228E+02
     -4.663  0.5377E+02  0.3522E+02
     -4.608  0.2353E+02  0.3651E+02
     -4.553  0.4005E+02  0.3870E+02
     -4.499  0.3116E+02  0.4040E+02
     -4.444  0.2620E+02  0.4184E+02
     -4.389  0.2568E+02  0.4324E+02
     -4.334  0.2297E+02  0.4450E+02
     -4.280  0.5190E+02  0.4733E+02
     -4.225  0.5204E+02  0.5018E+02
     -4.170  0.3691E+02  0.5220E+02
     -4.116  0.4580E+02  0.5470E+02
     -4.061  0.5555E+02  0.5774E+02
     -4.006  0.5219E+02  0.6059E+02
     -3.952  0.5222E+02  0.6345E+02
     -3.897  0.5810E+02  0.6663E+02
     -3.842  0.4550E+02  0.6911E+02
     -3.788  0.4811E+02  0.7175E+02
     -3.733  0.5047E+02  0.7451E+02
     -3.678  0.5300E+02  0.7740E+02
     -3.624  0.2975E+02  0.7903E+02
     -3.569  0.2770E+02  0.8055E+02
     -3.514  0.4274E+02  0.8288E+02
     -3.460  0.5421E+02  0.8585E+02
     -3.405  0.4921E+02  0.8854E+02
     -3.350  0.4699E+02  0.9111E+02
     -3.295  0.5074E+02  0.9388E+02
     -3.241  0.3700E+02  0.9591E+02
     -3.186  0.3948E+02  0.9806E+02
     -3.131  0.2337E+02  0.9934E+02
     -3.077  0.5045E+02  0.1021E+03
     -3.022  0.5135E+02  0.1049E+03
     -2.967  0.3729E+02  0.1069E+03
     -2.913  0.3481E+02  0.1089E+03
     -2.858  0.3546E+02  0.1108E+03
     -2.803  0.3537E+02  0.1127E+03
     -2.749  0.2600E+02  0.1141E+03
     -2.694  0.3148E+02  0.1159E+03
     -2.639  0.4341E+02  0.1182E+03
     -2.585  0.3547E+02  0.1202E+03
     -2.530  0.2770E+02  0.1217E+03
     -2.475  0.9217E+01  0.1222E+03
     -2.421  0.9931E+01  0.1227E+03
     -2.366  0.1119E+01  0.1228E+03
     -2.311  0.8141E+01  0.1232E+03
     -2.256  0.1061E+02  0.1238E+03
     -2.202  0.2774E+02  0.1253E+03
     -2.147  0.1827E+02  0.1263E+03
     -2.092  0.2711E+02  0.1278E+03
     -2.038  0.2192E+02  0.1290E+03
     -1.983  0.2393E+02  0.1303E+03
     -1.928  0.1565E+02  0.1312E+03
     -1.874  0.1938E+02  0.1323E+03
     -1.819  0.1232E+02  0.1329E+03
     -1.764  0.1492E+01  0.1330E+03
     -1.710  0.8744E+01  0.1335E+03
     -1.655  0.9418E+01  0.1340E+03
     -1.600  0.1820E+02  0.1350E+03
     -1.546  0.2833E+02  0.1365E+03
     -1.491  0.3657E+02  0.1385E+03
     -1.436  0.5443E+02  0.1415E+03
     -1.382  0.3249E+02  0.1433E+03
     -1.327  0.4779E+02  0.1459E+03
     -1.272  0.6658E+02  0.1496E+03
     -1.218  0.7404E+02  0.1536E+03
     -1.163  0.5175E+02  0.1564E+03
     -1.108  0.5892E+02  0.1597E+03
     -1.053  0.6796E+02  0.1634E+03
     -0.999  0.7111E+02  0.1673E+03
     -0.944  0.5495E+02  0.1703E+03
     -0.889  0.6235E+02  0.1737E+03
     -0.835  0.6360E+02  0.1771E+03
     -0.780  0.4258E+02  0.1795E+03
     -0.725  0.6784E+02  0.1832E+03
     -0.671  0.3784E+02  0.1853E+03
     -0.616  0.3689E+02  0.1873E+03
     -0.561  0.3031E+02  0.1889E+03
     -0.507  0.1956E+02  0.1900E+03
     -0.452  0.1388E+02  0.1908E+03
     -0.397  0.3432E+02  0.1926E+03
     -0.343  0.4122E+02  0.1949E+03
     -0.288  0.5415E+02  0.1979E+03
     -0.233  0.4303E+02  0.2002E+03
     -0.179  0.5289E+02  0.2031E+03
     -0.124  0.4920E+02  0.2058E+03
     -0.069  0.3984E+02  0.2080E+03
     -0.014  0.4749E+02  0.2106E+03
      0.040  0.2842E+02  0.2121E+03
      0.095  0.1407E+02  0.2129E+03
      0.150  0.1762E+02  0.2139E+03
      0.204  0.1396E+02  0.2146E+03
      0.259  0.2528E+02  0.2160E+03
      0.314  0.1863E+02  0.2170E+03
      0.368  0.2266E+02  0.2183E+03
      0.423  0.1703E+02  0.2192E+03
      0.478  0.2030E+02  0.2203E+03
      0.532  0.2340E+02  0.2216E+03
      0.587  0.2204E+02  0.2228E+03
      0.642  0.2628E+02  0.2242E+03
      0.696  0.2415E+02  0.2255E+03
      0.751  0.1931E+02  0.2266E+03
      0.806  0.1943E+02  0.2277E+03
      0.860  0.9554E+01  0.2282E+03
      0.915  0.1563E+02  0.2290E+03
      0.970  0.1459E+02  0.2298E+03
      1.024  0.1794E+02  0.2308E+03
      1.079  0.2388E+02  0.2321E+03
      1.134  0.5162E+02  0.2349E+03
      1.189  0.2355E+02  0.2362E+03
      1.243  0.1297E+02  0.2369E+03
      1.298  0.2745E+02  0.2384E+03
      1.353  0.3300E+02  0.2402E+03
      1.407  0.3577E+02  0.2422E+03
      1.462  0.5337E+02  0.2451E+03
      1.517  0.9659E+02  0.2504E+03
      1.571  0.8312E+02  0.2549E+03
      1.626  0.8431E+02  0.2596E+03
      1.681  0.6590E+02  0.2632E+03
      1.735  0.5881E+02  0.2664E+03
      1.790  0.5609E+02  0.2694E+03
      1.845  0.4591E+02  0.2720E+03
      1.899  0.2269E+02  0.2732E+03
      1.954  0.2034E+02  0.2743E+03
      2.009  0.3366E+02  0.2761E+03
      2.063  0.6040E+02  0.2794E+03
      2.118  0.8473E+02  0.2841E+03
      2.173  0.9443E+02  0.2892E+03
      2.228  0.1135E+03  0.2955E+03
      2.282  0.1252E+03  0.3023E+03
      2.337  0.1223E+03  0.3090E+03
      2.392  0.1009E+03  0.3145E+03
      2.446  0.7301E+02  0.3185E+03
      2.501  0.5877E+02  0.3217E+03
      2.556  0.3578E+02  0.3237E+03
      2.610  0.4014E+02  0.3259E+03
      2.665  0.6938E+02  0.3297E+03
      2.720  0.6883E+02  0.3334E+03
      2.774  0.8159E+02  0.3379E+03
      2.829  0.1035E+03  0.3435E+03
      2.884  0.8916E+02  0.3484E+03
      2.938  0.9919E+02  0.3538E+03
      2.993  0.9249E+02  0.3589E+03
      3.048  0.9138E+02  0.3639E+03
      3.102  0.8165E+02  0.3684E+03
      3.157  0.7846E+02  0.3727E+03
      3.212  0.7176E+02  0.3766E+03
      3.267  0.9523E+02  0.3818E+03
      3.321  0.9143E+02  0.3868E+03
      3.376  0.1022E+03  0.3924E+03
      3.431  0.1012E+03  0.3979E+03
      3.485  0.8360E+02  0.4025E+03
      3.540  0.7959E+02  0.4068E+03
      3.595  0.7427E+02  0.4109E+03
      3.649  0.6728E+02  0.4146E+03
      3.704  0.7905E+02  0.4189E+03
      3.759  0.8212E+02  0.4234E+03
      3.813  0.7275E+02  0.4274E+03
      3.868  0.7867E+02  0.4317E+03
      3.923  0.8269E+02  0.4362E+03
      3.977  0.7467E+02  0.4403E+03
      4.032  0.7813E+02  0.4445E+03
      4.087  0.6890E+02  0.4483E+03
      4.141  0.7362E+02  0.4523E+03
      4.196  0.7826E+02  0.4566E+03
      4.251  0.4464E+02  0.4591E+03
      4.305  0.7432E+02  0.4631E+03
      4.360  0.8269E+02  0.4676E+03
      4.415  0.6923E+02  0.4714E+03
      4.470  0.5939E+02  0.4747E+03
      4.524  0.6832E+02  0.4784E+03
      4.579  0.6458E+02  0.4819E+03
      4.634  0.5252E+02  0.4848E+03
      4.688  0.5593E+02  0.4879E+03
      4.743  0.2374E+02  0.4892E+03
      4.798  0.3735E+02  0.4912E+03
      4.852  0.2860E+02  0.4928E+03
      4.907  0.2339E+02  0.4941E+03
      4.962  0.5037E+02  0.4968E+03
      5.016  0.4248E+02  0.4991E+03
      5.071  0.2710E+02  0.5006E+03
      5.126  0.3504E+02  0.5025E+03
      5.180  0.1796E+02  0.5035E+03
      5.235  0.4376E+01  0.5038E+03
      5.290  0.7604E+01  0.5042E+03
      5.344  0.2148E+02  0.5053E+03
      5.399  0.2327E+02  0.5066E+03
      5.454  0.1177E+02  0.5073E+03
      5.509  0.1876E+02  0.5083E+03
      5.563  0.1310E+02  0.5090E+03
      5.618  0.1375E+02  0.5098E+03
      5.673  0.1580E+02  0.5106E+03
      5.727  0.1403E+02  0.5114E+03
      5.782  0.6133E+01  0.5117E+03
      5.837  0.6037E+00  0.5118E+03
      5.891  0.1128E-06  0.5118E+03
      5.946  0.4520E+01  0.5120E+03
      6.001  0.5170E-01  0.5120E+03
      6.055  0.3553E+01  0.5122E+03
      6.110  0.9239E+01  0.5127E+03
      6.165  0.1172E+02  0.5133E+03
      6.219  0.1862E+02  0.5144E+03
      6.274  0.1083E+02  0.5150E+03
      6.329  0.2072E+02  0.5161E+03
      6.383  0.1623E+02  0.5170E+03
      6.438  0.2530E+02  0.5184E+03
      6.493  0.3018E+02  0.5200E+03
      6.548  0.1501E+02  0.5208E+03
      6.602  0.1590E+02  0.5217E+03
      6.657  0.2341E+02  0.5230E+03
      6.712  0.2177E+02  0.5242E+03
      6.766  0.4086E+02  0.5264E+03
      6.821  0.2911E+02  0.5280E+03
      6.876  0.4239E+02  0.5303E+03
      6.930  0.3665E+02  0.5323E+03
      6.985  0.4011E+02  0.5345E+03
      7.040  0.4281E+02  0.5369E+03
      7.094  0.3211E+02  0.5386E+03
      7.149  0.2121E+02  0.5398E+03
      7.204  0.4110E+02  0.5420E+03
      7.258  0.5852E+02  0.5452E+03
      7.313  0.7012E+02  0.5490E+03
      7.368  0.8376E+02  0.5536E+03
      7.422  0.6954E+02  0.5574E+03
      7.477  0.7442E+02  0.5615E+03
      7.532  0.8099E+02  0.5659E+03
      7.586  0.8892E+02  0.5708E+03
      7.641  0.8330E+02  0.5753E+03
      7.696  0.8780E+02  0.5801E+03
      7.751  0.9114E+02  0.5851E+03
      7.805  0.1009E+03  0.5906E+03
      7.860  0.9103E+02  0.5956E+03
      7.915  0.9592E+02  0.6009E+03
      7.969  0.8600E+02  0.6056E+03
      8.024  0.9487E+02  0.6108E+03
      8.079  0.7613E+02  0.6149E+03
      8.133  0.8389E+02  0.6195E+03
      8.188  0.8151E+02  0.6240E+03
      8.243  0.8343E+02  0.6285E+03
      8.297  0.9814E+02  0.6339E+03
      8.352  0.7547E+02  0.6380E+03
      8.407  0.6374E+02  0.6415E+03
      8.461  0.3150E+02  0.6432E+03
      8.516  0.7115E+01  0.6436E+03
      8.571  0.2338E+01  0.6438E+03
      8.625  0.4561E+01  0.6440E+03
      8.680  0.0000E+00  0.6440E+03
      8.735  0.0000E+00  0.6440E+03
      8.790  0.0000E+00  0.6440E+03
      8.844  0.0000E+00  0.6440E+03
      8.899  0.0000E+00  0.6440E+03
      8.954  0.0000E+00  0.6440E+03
      9.008  0.0000E+00  0.6440E+03
      9.063  0.0000E+00  0.6440E+03
      9.118  0.0000E+00  0.6440E+03
      9.172  0.0000E+00  0.6440E+03
      9.227  0.0000E+00  0.6440E+03
      9.282  0.0000E+00  0.6440E+03
      9.336  0.0000E+00  0.6440E+03
