 vasp.5.4.4.18Apr17-6-g9f103f2a35 (build Nov 08 2017 09:05:29) complex          
  
 executed on          Intel_17.33 date 2020.07.18  20:03:31
 running on   32 total cores
 distrk:  each k-point on   32 cores,    1 groups
 distr:  one band on NCORES_PER_BAND=  16 cores,    2 groups


--------------------------------------------------------------------------------------------------------


 INCAR:
 POTCAR:   PAW_PBE Si 05Jan2001                   

 ----------------------------------------------------------------------------- 
|                                                                             |
|           W    W    AA    RRRRR   N    N  II  N    N   GGGG   !!!           |
|           W    W   A  A   R    R  NN   N  II  NN   N  G    G  !!!           |
|           W    W  A    A  R    R  N N  N  II  N N  N  G       !!!           |
|           W WW W  AAAAAA  RRRRR   N  N N  II  N  N N  G  GGG   !            |
|           WW  WW  A    A  R   R   N   NN  II  N   NN  G    G                |
|           W    W  A    A  R    R  N    N  II  N    N   GGGG   !!!           |
|                                                                             |
|      For optimal performance we recommend to set                            |
|        NCORE= 4 - approx SQRT( number of cores)                             |
|      NCORE specifies how many cores store one orbital (NPAR=cpu/NCORE).     |
|      This setting can  greatly improve the performance of VASP for DFT.     |
|      The default,   NCORE=1            might be grossly inefficient         |
|      on modern multi-core architectures or massively parallel machines.     |
|      Do your own testing !!!!                                               |
|      Unfortunately you need to use the default for GW and RPA calculations. |
|      (for HF NCORE is supported but not extensively tested yet)             |
|                                                                             |
 ----------------------------------------------------------------------------- 

 POTCAR:   PAW_PBE Si 05Jan2001                   
   VRHFIN =Si: s2p2                                                             
   LEXCH  = PE                                                                  
   EATOM  =   103.0669 eV,    7.5752 Ry                                         
                                                                                
   TITEL  = PAW_PBE Si 05Jan2001                                                
   LULTRA =        F    use ultrasoft PP ?                                      
   IUNSCR =        1    unscreen: 0-lin 1-nonlin 2-no                           
   RPACOR =    1.500    partial core radius                                     
   POMASS =   28.085; ZVAL   =    4.000    mass and valenz                      
   RCORE  =    1.900    outmost cutoff radius                                   
   RWIGS  =    2.480; RWIGS  =    1.312    wigner-seitz radius (au A)           
   ENMAX  =  245.345; ENMIN  =  184.009 eV                                      
   ICORE  =        2    local potential                                         
   LCOR   =        T    correct aug charges                                     
   LPAW   =        T    paw PP                                                  
   EAUG   =  322.069                                                            
   DEXC   =    -.007                                                            
   RMAX   =    2.944    core radius for proj-oper                               
   RAUG   =    1.300    factor for augmentation sphere                          
   RDEP   =    1.993    radius for radial grids                                 
   QCUT   =   -4.246; QGAM   =    8.493    optimization parameters              
                                                                                
   Description                                                                  
     l     E      TYP  RCUT    TYP  RCUT                                        
     0   .000     23  1.900                                                     
     0   .000     23  1.900                                                     
     1   .000     23  1.900                                                     
     1   .000     23  1.900                                                     
     2   .000      7  1.900                                                     
  local pseudopotential read in
  partial core-charges read in
  atomic valenz-charges read in
  non local Contribution for L=           0  read in
    real space projection operators read in
  non local Contribution for L=           0  read in
    real space projection operators read in
  non local Contribution for L=           1  read in
    real space projection operators read in
  non local Contribution for L=           1  read in
    real space projection operators read in
    PAW grid and wavefunctions read in
 
   number of l-projection  operators is LMAX  =           4
   number of lm-projection operators is LMMAX =           8
 

 ----------------------------------------------------------------------------- 
|                                                                             |
|  ADVICE TO THIS USER RUNNING 'VASP/VAMP'   (HEAR YOUR MASTER'S VOICE ...):  |
|                                                                             |
|      You have a (more or less) 'large supercell' and for larger cells       |
|      it might be more efficient to use real space projection operators      |
|      So try LREAL= Auto  in the INCAR   file.                               |
|      Mind: If you want to do a very accurate calculations keep the          |
|      reciprocal projection scheme          (i.e. LREAL=.FALSE.)             |
|                                                                             |
 ----------------------------------------------------------------------------- 

 PAW_PBE Si 05Jan2001                   :
 energy of atom  1       EATOM= -103.0669
 kinetic energy error for atom=    0.0006 (will be added to EATOM!!)
 
 
 POSCAR: kk                                      
  positions in direct lattice
  No initial velocities read in
 exchange correlation table for  LEXCH =        8
   RHO(1)=    0.500       N(1)  =     2000
   RHO(2)=  100.500       N(2)  =     4000
 


--------------------------------------------------------------------------------------------------------


 ion  position               nearest neighbor table
   1  0.010  0.990  0.005-  77 2.15  65 2.23 113 2.44  68 2.67
   2  0.249  0.010  0.005-  66 2.29 114 2.30  65 2.33  78 2.54
   3  0.511  0.994  0.002-  67 2.27  79 2.38  66 2.42 115 2.47
   4  0.739  0.999  0.003-  67 2.33  80 2.35 116 2.38  68 2.40
   5  0.999  0.253  0.001-  72 2.26 117 2.29  69 2.36  65 2.50
   6  0.256  0.244  0.004-  66 2.35  70 2.37 118 2.40  69 2.55
   7  0.494  0.255  0.994-  67 2.37 119 2.39  70 2.42  71 2.45
   8  0.747  0.240  0.003-  68 2.27  71 2.28 120 2.32  72 2.39
   9  0.995  0.500  0.004- 121 2.19  69 2.35  76 2.38  73 2.49
  10  0.264  0.507  0.993- 122 2.23  70 2.33  74 2.44  73 2.62
  11  0.505  0.498  0.003-  75 2.15  74 2.26  71 2.34 123 2.42
  12  0.745  0.493  0.004-  75 2.26 124 2.31  76 2.34  72 2.40
  13  0.990  0.762  0.003- 125 2.31  80 2.31  73 2.33  77 2.36
  14  0.256  0.738  0.013-  74 2.16  78 2.32  77 2.50 126 2.54
  15  0.495  0.763  0.006-  79 2.17  78 2.30 127 2.67  75 2.72
  16  0.762  0.751  0.993-  80 2.28 128 2.34  76 2.53  79 2.67
  17  0.997  0.012  0.248-  81 2.28  65 2.40  84 2.46  93 2.62
  18  0.248  0.006  0.244-  66 2.22  81 2.24  82 2.29  94 2.36
  19  0.491  0.003  0.258-  83 2.45  67 2.45  82 2.47  95 2.47
  20  0.750  0.009  0.249-  83 2.17  84 2.22  68 2.26  96 2.51
  21  0.016  0.233  0.253-  85 2.27  69 2.31  81 2.39  88 2.48
  22  0.261  0.254  0.243-  70 2.27  86 2.36  85 2.39  82 2.43
  23  0.494  0.242  0.268-  87 2.26  86 2.31  83 2.40  71 2.68
  24  0.750  0.245  0.248-  84 2.18  87 2.20  72 2.45  88 2.48
  25  0.004  0.499  0.244-  73 2.32  85 2.40  89 2.43  92 2.43
  26  0.249  0.496  0.253-  86 2.27  89 2.35  74 2.40  90 2.45
  27  0.502  0.499  0.253-  90 2.35  75 2.43  87 2.47  91 2.48
  28  0.745  0.517  0.247-  92 2.24  91 2.26  76 2.27  88 2.66
  29  0.009  0.760  0.239-  77 2.22  93 2.38  96 2.41  89 2.50
  30  0.251  0.753  0.256-  93 2.20  94 2.27  78 2.38  90 2.38
  31  0.510  0.743  0.248-  79 2.17  95 2.22  91 2.26  94 2.50
  32  0.753  0.743  0.248-  92 2.26  80 2.31  95 2.32  96 2.35
  33  0.010  0.986  0.497- 109 2.20  81 2.26  97 2.47 100 2.50
  34  0.251  0.005  0.493-  82 2.21  97 2.34  98 2.44 110 2.51
  35  0.505  0.996  0.495-  83 2.32  98 2.33  99 2.43 111 2.44
  36  0.756  0.002  0.497- 112 2.36  99 2.38  84 2.39 100 2.49
  37  0.002  0.244  0.500- 104 2.21  97 2.28 101 2.34  85 2.53
  38  0.249  0.245  0.495-  86 2.27 101 2.33 102 2.45  98 2.51
  39  0.494  0.263  0.488- 102 2.34  87 2.42  99 2.46 103 2.53
  40  0.743  0.247  0.492- 100 2.24 103 2.25  88 2.27 104 2.76
  41  0.007  0.494  0.496-  89 2.31 101 2.39 108 2.40 105 2.48
  42  0.251  0.507  0.494- 105 2.29  90 2.31 106 2.43 102 2.52
  43  0.490  0.502  0.503- 106 2.31  91 2.34 107 2.42 103 2.43
  44  0.752  0.499  0.492-  92 2.33 104 2.34 108 2.36 107 2.37
  45  0.022  0.749  0.491- 109 2.13  93 2.25 105 2.37 112 2.58
  46  0.254  0.747  0.493- 106 2.28  94 2.32 109 2.38 110 2.39
  47  0.500  0.754  0.502- 110 2.25 111 2.34 107 2.43  95 2.58
  48  0.754  0.751  0.486- 111 2.28  96 2.35 112 2.54 108 2.56
  49  1.000  0.990  0.755- 125 2.31 116 2.40 113 2.42  97 2.47
  50  0.254  0.009  0.751-  98 2.28 113 2.39 114 2.39 126 2.61
  51  0.500  0.006  0.744- 115 2.27 127 2.35 114 2.37  99 2.41
  52  0.747  0.002  0.754- 116 2.36 100 2.36 115 2.41 128 2.44
  53  0.998  0.253  0.755- 117 2.20 120 2.28 101 2.45 113 2.46
  54  0.236  0.251  0.752- 117 2.16 114 2.36 102 2.37 118 2.44
  55  0.502  0.267  0.742- 103 2.21 119 2.31 118 2.43 115 2.54
  56  0.746  0.252  0.750- 119 2.34 116 2.38 104 2.45 120 2.48
  57  0.018  0.491  0.749- 121 2.32 105 2.39 117 2.52 124 2.69
  58  0.249  0.499  0.761- 122 2.31 106 2.43 121 2.44 118 2.45
  59  0.495  0.507  0.753- 123 2.18 119 2.26 122 2.30 107 2.43
  60  0.754  0.503  0.745- 108 2.29 124 2.35 120 2.47 123 2.47
  61  0.003  0.759  0.747- 128 2.39 109 2.47 125 2.59 121 2.63
  62  0.252  0.752  0.741- 125 2.21 110 2.36 122 2.40 126 2.46
  63  0.503  0.742  0.760- 126 2.25 127 2.32 123 2.35 111 2.49
  64  0.741  0.745  0.750- 127 2.16 124 2.33 112 2.43 128 2.49
  65  0.066  0.056  0.058-   1 2.23   2 2.33  17 2.40   5 2.50
  66  0.319  0.058  0.068-  18 2.22   2 2.29   6 2.35   3 2.42
  67  0.554  0.067  0.064-   3 2.27   4 2.33   7 2.37  19 2.45
  68  0.799  0.060  0.071-  20 2.26   8 2.27   4 2.40   1 2.67
  69  0.054  0.314  0.072-  21 2.31   9 2.35   5 2.36   6 2.55
  70  0.302  0.324  0.064-  22 2.27  10 2.33   6 2.37   7 2.42
  71  0.567  0.313  0.055-   8 2.28  11 2.34   7 2.45  23 2.68
  72  0.820  0.304  0.055-   5 2.26   8 2.39  12 2.40  24 2.45
  73  0.057  0.577  0.061-  25 2.32  13 2.33   9 2.49  10 2.62
  74  0.326  0.567  0.065-  14 2.16  11 2.26  26 2.40  10 2.44
  75  0.566  0.549  0.061-  11 2.15  12 2.26  27 2.43  15 2.72
  76  0.807  0.552  0.069-  28 2.27  12 2.34   9 2.38  16 2.53
  77  0.059  0.819  0.064-   1 2.15  29 2.22  13 2.36  14 2.50
  78  0.313  0.809  0.068-  15 2.30  14 2.32  30 2.38   2 2.54
  79  0.551  0.807  0.077-  15 2.17  31 2.17   3 2.38  16 2.67
  80  0.807  0.814  0.065-  16 2.28  13 2.31  32 2.31   4 2.35
  81  0.072  0.044  0.318-  18 2.24  33 2.26  17 2.28  21 2.39
  82  0.296  0.064  0.319-  34 2.21  18 2.29  22 2.43  19 2.47
  83  0.579  0.054  0.312-  20 2.17  35 2.32  23 2.40  19 2.45
  84  0.803  0.072  0.309-  24 2.18  20 2.22  36 2.39  17 2.46
  85  0.072  0.309  0.299-  21 2.27  22 2.39  25 2.40  37 2.53
  86  0.311  0.317  0.316-  26 2.27  38 2.27  23 2.31  22 2.36
  87  0.576  0.304  0.298-  24 2.20  23 2.26  39 2.42  27 2.47
  88  0.820  0.306  0.313-  40 2.27  21 2.48  24 2.48  28 2.66
  89  0.063  0.563  0.313-  41 2.31  26 2.35  25 2.43  29 2.50
  90  0.316  0.565  0.311-  42 2.31  27 2.35  30 2.38  26 2.45
  91  0.566  0.565  0.319-  28 2.26  31 2.26  43 2.34  27 2.48
  92  0.812  0.564  0.308-  28 2.24  32 2.26  44 2.33  25 2.43
  93  0.078  0.804  0.313-  30 2.20  45 2.25  29 2.38  17 2.62
  94  0.312  0.818  0.309-  30 2.27  46 2.32  18 2.36  31 2.50
  95  0.570  0.809  0.298-  31 2.22  32 2.32  19 2.47  47 2.58
  96  0.819  0.811  0.300-  32 2.35  48 2.35  29 2.41  20 2.51
  97  0.066  0.063  0.560-  37 2.28  34 2.34  33 2.47  49 2.47
  98  0.321  0.047  0.572-  50 2.28  35 2.33  34 2.44  38 2.51
  99  0.568  0.068  0.553-  36 2.38  51 2.41  35 2.43  39 2.46
 100  0.814  0.072  0.567-  40 2.24  52 2.36  36 2.49  33 2.50
 101  0.065  0.304  0.561-  38 2.33  37 2.34  41 2.39  53 2.45
 102  0.310  0.308  0.565-  39 2.34  54 2.37  38 2.45  42 2.52
 103  0.566  0.311  0.568-  55 2.21  40 2.25  43 2.43  39 2.53
 104  0.827  0.315  0.558-  37 2.21  44 2.34  56 2.45  40 2.76
 105  0.070  0.562  0.560-  42 2.29  45 2.37  57 2.39  41 2.48
 106  0.307  0.568  0.569-  46 2.28  43 2.31  58 2.43  42 2.43
 107  0.564  0.562  0.561-  44 2.37  43 2.42  47 2.43  59 2.43
 108  0.817  0.549  0.564-  60 2.29  44 2.36  41 2.40  48 2.56
 109  0.066  0.812  0.552-  45 2.13  33 2.20  46 2.38  61 2.47
 110  0.322  0.806  0.555-  47 2.25  62 2.36  46 2.39  34 2.51
 111  0.575  0.803  0.562-  48 2.28  47 2.34  35 2.44  63 2.49
 112  0.817  0.815  0.559-  36 2.36  64 2.43  48 2.54  45 2.58
 113  0.066  0.058  0.812-  50 2.39  49 2.42   1 2.44  53 2.46
 114  0.314  0.066  0.823-   2 2.30  54 2.36  51 2.37  50 2.39
 115  0.556  0.066  0.807-  51 2.27  52 2.41   3 2.47  55 2.54
 116  0.810  0.064  0.815-  52 2.36   4 2.38  56 2.38  49 2.40
 117  0.065  0.292  0.821-  54 2.16  53 2.20   5 2.29  57 2.52
 118  0.311  0.306  0.814-   6 2.40  55 2.43  54 2.44  58 2.45
 119  0.562  0.328  0.805-  59 2.26  55 2.31  56 2.34   7 2.39
 120  0.817  0.308  0.820-  53 2.28   8 2.32  60 2.47  56 2.48
 121  0.057  0.552  0.831-   9 2.19  57 2.32  58 2.44  61 2.63
 122  0.313  0.563  0.817-  10 2.23  59 2.30  58 2.31  62 2.40
 123  0.559  0.557  0.812-  59 2.18  63 2.35  11 2.42  60 2.47
 124  0.805  0.561  0.822-  12 2.31  64 2.33  60 2.35  57 2.69
 125  0.080  0.810  0.823-  62 2.21  13 2.31  49 2.31  61 2.59
 126  0.325  0.802  0.812-  63 2.25  62 2.46  14 2.54  50 2.61
 127  0.571  0.820  0.795-  64 2.16  63 2.32  51 2.35  15 2.67
 128  0.815  0.810  0.809-  16 2.34  61 2.39  52 2.44  64 2.49
 
  LATTYP: Found a face centered cubic cell.
 ALAT       =    21.8746673814
  
  Lattice vectors:
  
 A1 = (   0.0000000000,  10.9373336907,  10.9373336907)
 A2 = (  10.9373336907,   0.0000000000,  10.9373336907)
 A3 = (  10.9373336907,  10.9373336907,   0.0000000000)


Analysis of symmetry for initial positions (statically):
=====================================================================
 Subroutine PRICEL returns:
 Original cell was already a primitive cell.
 

 Routine SETGRP: Setting up the symmetry group for a 
 face centered cubic supercell.


 Subroutine GETGRP returns: Found  1 space group operations
 (whereof  1 operations were pure point group operations)
 out of a pool of 48 trial point group operations.


The static configuration has the point symmetry C_1 .


Analysis of symmetry for dynamics (positions and initial velocities):
=====================================================================
 Subroutine PRICEL returns:
 Original cell was already a primitive cell.
 

 Routine SETGRP: Setting up the symmetry group for a 
 face centered cubic supercell.


 Subroutine GETGRP returns: Found  1 space group operations
 (whereof  1 operations were pure point group operations)
 out of a pool of 48 trial point group operations.


The dynamic configuration has the point symmetry C_1 .


 Subroutine INISYM returns: Found  1 space group operations
 (whereof  1 operations are pure point group operations),
 and found     1 'primitive' translations

 
 
 KPOINTS: KPOINTS File, automatically generated by

Automatic generation of k-mesh.
Space group operators:
 irot       det(A)        alpha          n_x          n_y          n_z        tau_x        tau_y        tau_z
    1     1.000000     0.000001     1.000000     0.000000     0.000000     0.000000     0.000000     0.000000
 
 Subroutine IBZKPT returns following result:
 ===========================================
 
 Found      8 irreducible k-points:
 
 Following reciprocal coordinates:
            Coordinates               Weight
  0.000000  0.000000  0.000000      1.000000
  0.500000  0.000000  0.000000      1.000000
  0.000000  0.500000  0.000000      1.000000
  0.500000  0.500000  0.000000      1.000000
  0.000000  0.000000  0.500000      1.000000
  0.500000  0.000000  0.500000      1.000000
  0.000000  0.500000  0.500000      1.000000
  0.500000  0.500000  0.500000      1.000000
 
 Following cartesian coordinates:
            Coordinates               Weight
  0.000000  0.000000  0.000000      1.000000
 -0.022857  0.022857  0.022857      1.000000
  0.022857 -0.022857  0.022857      1.000000
  0.000000  0.000000  0.045715      1.000000
  0.022857  0.022857 -0.022857      1.000000
  0.000000  0.045715  0.000000      1.000000
  0.045715  0.000000  0.000000      1.000000
  0.022857  0.022857  0.022857      1.000000
 


--------------------------------------------------------------------------------------------------------




 Dimension of arrays:
   k-points           NKPTS =      8   k-points in BZ     NKDIM =      8   number of bands    NBANDS=    322
   number of dos      NEDOS =    301   number of ions     NIONS =    128
   non local maximal  LDIM  =      4   non local SUM 2l+1 LMDIM =      8
   total plane-waves  NPLWV = ******
   max r-space proj   IRMAX =      1   max aug-charges    IRDMAX= 176811
   dimension x,y,z NGX =   120 NGY =  120 NGZ =  120
   dimension x,y,z NGXF=   240 NGYF=  240 NGZF=  240
   support grid    NGXF=   480 NGYF=  480 NGZF=  480
   ions per type =             128
   NGX,Y,Z   is equivalent  to a cutoff of  12.90, 12.90, 12.90 a.u.
   NGXF,Y,Z  is equivalent  to a cutoff of  25.80, 25.80, 25.80 a.u.

 SYSTEM =  potpaw_PBE@./ARUN.APL1ZEROSTATE         
 POSCAR =  kk                                      

 Startparameter for this run:
   NWRITE =      2    write-flag & timer
   PREC   = accura    normal or accurate (medium, high low for compatibility)
   ISTART =      0    job   : 0-new  1-cont  2-samecut
   ICHARG =      2    charge: 1-file 2-atom 10-const
   ISPIN  =      1    spin polarized calculation?
   LNONCOLLINEAR =      F non collinear calculations
   LSORBIT =      F    spin-orbit coupling
   INIWAV =      1    electr: 0-lowe 1-rand  2-diag
   LASPH  =      F    aspherical Exc in radial PAW
   METAGGA=      F    non-selfconsistent MetaGGA calc.

 Electronic Relaxation 1
   ENCUT  =  500.0 eV  36.75 Ry    6.06 a.u.  28.20 28.20 28.20*2*pi/ulx,y,z
   ENINI  =  500.0     initial cutoff
   ENAUG  =  322.1 eV  augmentation charge cutoff
   NELM   =    120;   NELMIN=  4; NELMDL= -5     # of ELM steps 
   EDIFF  = 0.1E-07   stopping-criterion for ELM
   LREAL  =      F    real-space projection
   NLSPLINE    = F    spline interpolate recip. space projectors
   LCOMPAT=      F    compatible to vasp.4.4
   GGA_COMPAT  = T    GGA compatible to vasp.4.4-vasp.4.6
   LMAXPAW     = -100 max onsite density
   LMAXMIX     =    2 max onsite mixed and CHGCAR
   VOSKOWN=      0    Vosko Wilk Nusair interpolation
   ROPT   =    0.00000
 Ionic relaxation
   EDIFFG = 0.1E-06   stopping-criterion for IOM
   NSW    =      0    number of steps for IOM
   NBLOCK =      1;   KBLOCK =      1    inner block; outer block 
   IBRION =     -1    ionic relax: 0-MD 1-quasi-New 2-CG
   NFREE  =      0    steps in history (QN), initial steepest desc. (CG)
   ISIF   =      2    stress and relaxation
   IWAVPR =     10    prediction:  0-non 1-charg 2-wave 3-comb
   ISYM   =      2    0-nonsym 1-usesym 2-fastsym
   LCORR  =      T    Harris-Foulkes like correction to forces

   POTIM  = 0.5000    time-step for ionic-motion
   TEIN   =    0.0    initial temperature
   TEBEG  =    0.0;   TEEND  =   0.0 temperature during run
   SMASS  =  -3.00    Nose mass-parameter (am)
   estimated Nose-frequenzy (Omega)   =  0.10E-29 period in steps =****** mass=  -0.547E-26a.u.
   SCALEE = 1.0000    scale energy and forces
   NPACO  =    256;   APACO  = 16.0  distance and # of slots for P.C.
   PSTRESS=    0.0 pullay stress

  Mass of Ions in am
   POMASS =  28.09
  Ionic Valenz
   ZVAL   =   4.00
  Atomic Wigner-Seitz radii
   RWIGS  =  -1.00
  virtual crystal weights 
   VCA    =   1.00
   NELECT =     512.0000    total number of electrons
   NUPDOWN=      -1.0000    fix difference up-down

 DOS related values:
   EMIN   =  10.00;   EMAX   =-10.00  energy-range for DOS
   EFERMI =   0.00
   ISMEAR =     0;   SIGMA  =   0.01  broadening in eV -4-tet -1-fermi 0-gaus

 Electronic relaxation 2 (details)
   IALGO  =     38    algorithm
   LDIAG  =      T    sub-space diagonalisation (order eigenvalues)
   LSUBROT=      F    optimize rotation matrix (better conditioning)
   TURBO    =      0    0=normal 1=particle mesh
   IRESTART =      0    0=no restart 2=restart with 2 vectors
   NREBOOT  =      0    no. of reboots
   NMIN     =      0    reboot dimension
   EREF     =   0.00    reference energy to select bands
   IMIX   =      4    mixing-type and parameters
     AMIX     =   0.40;   BMIX     =  1.00
     AMIX_MAG =   1.60;   BMIX_MAG =  1.00
     AMIN     =   0.10
     WC   =   100.;   INIMIX=   1;  MIXPRE=   1;  MAXMIX= -45

 Intra band minimization:
   WEIMIN = 0.0000     energy-eigenvalue tresh-hold
   EBREAK =  0.78E-11  absolut break condition
   DEPER  =   0.30     relativ break condition  

   TIME   =   0.40     timestep for ELM

  volume/ion in A,a.u.               =      20.44       137.96
  Fermi-wavevector in a.u.,A,eV,Ry     =   0.950408  1.796010 12.289804  0.903275
  Thomas-Fermi vector in A             =   2.078782
 
 Write flags
   LWAVE        =      F    write WAVECAR
   LDOWNSAMPLE  =      F    k-point downsampling of WAVECAR
   LCHARG       =      F    write CHGCAR
   LVTOT        =      F    write LOCPOT, total local potential
   LVHAR        =      F    write LOCPOT, Hartree potential only
   LELF         =      F    write electronic localiz. function (ELF)
   LORBIT       =      0    0 simple, 1 ext, 2 COOP (PROOUT), +10 PAW based schemes


 Dipole corrections
   LMONO  =      F    monopole corrections only (constant potential shift)
   LDIPOL =      F    correct potential (dipole corrections)
   IDIPOL =      0    1-x, 2-y, 3-z, 4-all directions 
   EPSILON=  1.0000000 bulk dielectric constant

 Exchange correlation treatment:
   GGA     =    --    GGA type
   LEXCH   =     8    internal setting for exchange type
   VOSKOWN=      0    Vosko Wilk Nusair interpolation
   LHFCALC =     F    Hartree Fock is set to
   LHFONE  =     F    Hartree Fock one center treatment
   AEXX    =    0.0000 exact exchange contribution

 Linear response parameters
   LEPSILON=     F    determine dielectric tensor
   LRPA    =     F    only Hartree local field effects (RPA)
   LNABLA  =     F    use nabla operator in PAW spheres
   LVEL    =     F    velocity operator in full k-point grid
   LINTERFAST=   F  fast interpolation
   KINTER  =     0    interpolate to denser k-point grid
   CSHIFT  =0.1000    complex shift for real part using Kramers Kronig
   OMEGAMAX=  -1.0    maximum frequency
   DEG_THRESHOLD= 0.2000000E-02 threshold for treating states as degnerate
   RTIME   =   -0.100 relaxation time in fs
  (WPLASMAI=    0.000 imaginary part of plasma frequency in eV, 0.658/RTIME)
   DFIELD  = 0.0000000 0.0000000 0.0000000 field for delta impulse in time
 
 Orbital magnetization related:
   ORBITALMAG=     F  switch on orbital magnetization
   LCHIMAG   =     F  perturbation theory with respect to B field
   DQ        =  0.001000  dq finite difference perturbation B field
   LLRAUG    =     F  two centre corrections for induced B field



--------------------------------------------------------------------------------------------------------


 Static calculation
 charge density and potential will be updated during run
 non-spin polarized calculation
 Variant of blocked Davidson
 Davidson routine will perform the subspace rotation
 perform sub-space diagonalisation
    after iterative eigenvector-optimisation
 modified Broyden-mixing scheme, WC =      100.0
 initial mixing is a Kerker type mixing with AMIX =  0.4000 and BMIX =      1.0000
 Hartree-type preconditioning will be used
 using additional bands           66
 reciprocal scheme for non local part
 use partial core corrections
 calculate Harris-corrections to forces 
   (improved forces if not selfconsistent)
 use gradient corrections 
 use of overlap-Matrix (Vanderbilt PP)
 Gauss-broadening in eV      SIGMA  =   0.01


--------------------------------------------------------------------------------------------------------


  energy-cutoff  :      500.00
  volume of cell :     2616.76
      direct lattice vectors                 reciprocal lattice vectors
     0.000000000 10.937333691 10.937333691    -0.045714981  0.045714981  0.045714981
    10.937333691  0.000000000 10.937333691     0.045714981 -0.045714981  0.045714981
    10.937333691 10.937333691  0.000000000     0.045714981  0.045714981 -0.045714981

  length of vectors
    15.467725642 15.467725642 15.467725642     0.079180669  0.079180669  0.079180669


 
 k-points in units of 2pi/SCALE and weight: KPOINTS File, automatically generated by
   0.00000000  0.00000000  0.00000000       0.125
  -0.02285749  0.02285749  0.02285749       0.125
   0.02285749 -0.02285749  0.02285749       0.125
   0.00000000  0.00000000  0.04571498       0.125
   0.02285749  0.02285749 -0.02285749       0.125
   0.00000000  0.04571498  0.00000000       0.125
   0.04571498  0.00000000  0.00000000       0.125
   0.02285749  0.02285749  0.02285749       0.125
 
 k-points in reciprocal lattice and weights: KPOINTS File, automatically generated by
   0.00000000  0.00000000  0.00000000       0.125
   0.50000000  0.00000000  0.00000000       0.125
   0.00000000  0.50000000  0.00000000       0.125
   0.50000000  0.50000000  0.00000000       0.125
   0.00000000  0.00000000  0.50000000       0.125
   0.50000000  0.00000000  0.50000000       0.125
   0.00000000  0.50000000  0.50000000       0.125
   0.50000000  0.50000000  0.50000000       0.125
 
 position of ions in fractional coordinates (direct lattice) 
   0.01032546  0.98950355  0.00471271
   0.24926906  0.01006924  0.00482065
   0.51080210  0.99405689  0.00156483
   0.73863961  0.99922134  0.00328706
   0.99865442  0.25346521  0.00080292
   0.25596508  0.24387203  0.00392956
   0.49403057  0.25450251  0.99359196
   0.74685971  0.24022867  0.00280167
   0.99468170  0.50003139  0.00424929
   0.26396654  0.50716015  0.99338229
   0.50457866  0.49841854  0.00254827
   0.74518437  0.49331009  0.00418665
   0.98973729  0.76222573  0.00315236
   0.25602850  0.73808150  0.01330038
   0.49491395  0.76333781  0.00575390
   0.76248551  0.75056766  0.99335233
   0.99739143  0.01151954  0.24758021
   0.24830179  0.00559811  0.24372524
   0.49094175  0.00285996  0.25849082
   0.75000575  0.00922006  0.24907037
   0.01635987  0.23295342  0.25255655
   0.26099736  0.25419814  0.24264475
   0.49363115  0.24184172  0.26750331
   0.75047665  0.24507553  0.24808618
   0.00431453  0.49868899  0.24361772
   0.24888609  0.49605203  0.25320030
   0.50225484  0.49859568  0.25251631
   0.74452355  0.51654594  0.24673017
   0.00873146  0.75995299  0.23945010
   0.25145262  0.75264378  0.25600114
   0.51012903  0.74338224  0.24815159
   0.75337380  0.74340746  0.24810792
   0.01013538  0.98639036  0.49736097
   0.25104855  0.00523484  0.49251183
   0.50516898  0.99617856  0.49549186
   0.75612318  0.00248378  0.49733238
   0.00154007  0.24359240  0.49983607
   0.24921047  0.24533048  0.49497020
   0.49437358  0.26318025  0.48804808
   0.74253646  0.24678746  0.49159798
   0.00667336  0.49392496  0.49562588
   0.25134939  0.50693502  0.49432147
   0.49021043  0.50218113  0.50323233
   0.75179294  0.49909520  0.49246568
   0.02171968  0.74901171  0.49139729
   0.25431347  0.74715824  0.49255577
   0.49985193  0.75402351  0.50231761
   0.75431906  0.75105488  0.48581882
   0.99955809  0.99021819  0.75514409
   0.25437795  0.00875260  0.75102409
   0.50048847  0.00556124  0.74413660
   0.74657940  0.00221735  0.75354940
   0.99777958  0.25292823  0.75471922
   0.23567334  0.25147541  0.75184169
   0.50197884  0.26691198  0.74233827
   0.74624772  0.25244958  0.75043561
   0.01796680  0.49083756  0.74894850
   0.24920710  0.49914312  0.76143115
   0.49487872  0.50658218  0.75325383
   0.75407712  0.50345503  0.74471965
   0.00325623  0.75888279  0.74711227
   0.25225358  0.75176288  0.74142096
   0.50305027  0.74183875  0.75970658
   0.74100477  0.74477698  0.75031154
   0.06648780  0.05575949  0.05849549
   0.31904686  0.05798447  0.06816378
   0.55405927  0.06675201  0.06414605
   0.79915771  0.06045949  0.07134598
   0.05428687  0.31387189  0.07172701
   0.30246336  0.32389404  0.06398094
   0.56711395  0.31323457  0.05541237
   0.82013631  0.30385690  0.05457767
   0.05680945  0.57744660  0.06106951
   0.32588546  0.56729669  0.06462152
   0.56644362  0.54869089  0.06078823
   0.80663412  0.55196028  0.06909619
   0.05894380  0.81925901  0.06360145
   0.31343607  0.80924378  0.06802171
   0.55142877  0.80670981  0.07698555
   0.80730564  0.81350014  0.06533486
   0.07206804  0.04420921  0.31826852
   0.29585852  0.06388072  0.31850076
   0.57886249  0.05387857  0.31225356
   0.80281566  0.07248720  0.30876873
   0.07227487  0.30881786  0.29949425
   0.31121305  0.31679970  0.31599273
   0.57639935  0.30412867  0.29831995
   0.82045941  0.30638824  0.31296073
   0.06294752  0.56274383  0.31285064
   0.31647161  0.56453929  0.31108085
   0.56634692  0.56497495  0.31854944
   0.81204894  0.56430689  0.30827826
   0.07773627  0.80427781  0.31347989
   0.31240546  0.81842263  0.30913885
   0.56988116  0.80893985  0.29835822
   0.81882240  0.81135476  0.30011466
   0.06613137  0.06337143  0.55968162
   0.32115130  0.04712061  0.57201867
   0.56752260  0.06826160  0.55306173
   0.81390603  0.07229790  0.56686301
   0.06495339  0.30438004  0.56092619
   0.31017370  0.30794246  0.56501375
   0.56646917  0.31065709  0.56770641
   0.82697826  0.31469435  0.55763575
   0.06997902  0.56197224  0.56040574
   0.30746958  0.56779206  0.56936677
   0.56397292  0.56181955  0.56104913
   0.81700478  0.54873244  0.56420714
   0.06568176  0.81248615  0.55208419
   0.32224094  0.80648146  0.55475041
   0.57507552  0.80288016  0.56246593
   0.81743193  0.81540983  0.55923217
   0.06600748  0.05835610  0.81176734
   0.31402807  0.06637094  0.82290789
   0.55608620  0.06643164  0.80712247
   0.80977022  0.06422297  0.81549239
   0.06537507  0.29204684  0.82124374
   0.31126364  0.30620031  0.81390930
   0.56167784  0.32754305  0.80498040
   0.81749711  0.30819432  0.81962792
   0.05670813  0.55156278  0.83127299
   0.31251676  0.56267242  0.81742001
   0.55880976  0.55656291  0.81181687
   0.80509221  0.56059733  0.82182338
   0.08007311  0.81003083  0.82343326
   0.32511556  0.80214947  0.81218719
   0.57126394  0.82018521  0.79506074
   0.81470321  0.80953661  0.80863270
 
 position of ions in cartesian coordinates  (Angst):
  10.87407489  0.16447741 10.93546344
   0.16285561  2.77906385  2.83646944
  10.88944693  5.60392808 16.45914488
  10.96476890  8.11469957 19.00756522
   2.78101532 10.93139841 13.69485020
   2.71028867  2.84255445  5.46688524
  13.65082574 16.27062408  8.18695609
   2.65810386  8.19929660 10.79611495
   5.51548606 10.92564151 16.34817583
  16.41193335 13.75204366  8.43406992
   5.47924110  5.54661647 10.97011508
   5.44128796  8.19612093 13.54582720
   8.37119561 10.85956546 19.16180422
   8.21811442  2.94573992 10.87291287
   8.41181274  5.47597139 13.76191940
  19.07383484 19.20418427 16.54876739
   2.83386040 13.61667018 11.03479593
   2.72693271  5.38146387  2.77698798
   2.85848079  8.19679418  5.40087415
   2.82500867 10.92722899  8.30390610
   5.31018449  2.94122862  2.72682264
   5.43413646  5.50850180  5.63486517
   5.57087653  8.32478157  8.04411224
   5.39387418 10.92161484 10.88868646
   8.11885618  2.71171774  5.50151742
   8.19482270  5.49148636  8.14763674
   8.21516255  8.25518394 10.94663611
   8.34820558 10.84167271 13.79273787
  10.93080507  2.71444462  8.40735834
  11.03188599  5.55019107 10.98213738
  10.84473642  8.29356823 13.71007106
  10.84453462 10.95353980 16.37079617
  16.22828342  5.55065693 10.89933455
   5.44402138  8.13256797  2.80305699
  16.31489709 10.94456153 16.42073904
   5.46665607 13.70946168  8.29713744
   8.13112534  5.48371818  2.68109564
   8.09691558  8.13935235  5.40895941
   8.21643493 10.74507349  8.28561906
   8.07596789 13.49814017 10.82056579
  10.82304772  5.49381433  5.47521083
  10.95107631  8.15565093  8.29360960
  10.99654246 10.86561500 10.85411764
  10.84503220 13.60887179 13.68138097
  13.56676716  5.61213150  8.42974637
  13.55916576  8.16875811 10.95343030
  13.74102211 10.96106278 13.71405414
  13.52810041 13.56380184 16.46477715
  19.08960963 19.19176329 21.76284712
   8.30993120 10.99641754  2.87794665
   8.19969540 13.61287966  5.53483453
   8.26607319 16.40740929  8.18984000
  11.02097644 19.16766414 13.67940867
  10.97361395 10.80078146  5.32810847
  11.03850682 13.60951145  8.40961549
  10.96888995 16.36972497 10.92308563
  13.55995389  8.38800855  5.56496311
  13.78732142 11.05368777  8.18495614
  13.77924686 13.65124224 10.95331208
  13.65170301 16.39284044 13.75404871
  16.47157053  8.20703074  8.33576879
  16.33144994 10.86814999 10.98126309
  16.42290235 13.81119302 13.61576661
  16.35228209 16.31102417 16.25049079
   1.24964487  1.36698393  1.33705943
   1.37972544  4.23505201  4.12371746
   1.43167579  6.76151784  6.79002016
   1.44160046  9.52098938  9.40192024
   4.21742380  1.37825586  4.02667523
   4.24231817  4.00792368  6.85068000
   4.03201452  6.80877802  9.62866546
   3.92031848  9.56703861 12.29348878
   6.98366379  1.28928151  6.93707007
   6.91150027  4.27110513  9.76903120
   6.66607653  6.86024407 12.19659832
   6.79270193  9.57815472 14.85940038
   9.65613943  1.34031833  9.60519715
   9.59494534  4.17213100 12.27912409
   9.66527103  6.87317711 14.85441476
   9.61211171  9.54436040 17.72729374
   3.96453987  4.26924124  1.27176311
   4.18223393  6.71945253  3.93458818
   4.00450919  9.74643358  6.92050010
   4.16992338 12.15776940  9.57347942
   6.65331259  4.06616298  4.16813839
   6.92106189  6.85995884  6.86878493
   6.58918161  9.56709684  9.63062880
   6.77402636 12.39659436 12.32470874
   9.57666892  4.11022987  6.84339515
   9.57694964  6.86375061  9.63591017
   9.66340106  9.67840680 12.37364486
   9.54375501 12.25339246 15.05366304
  12.22528896  4.27886167  9.64688228
  12.33251623  6.79803758 12.36824419
  12.11088845  9.49622381 15.08062543
  12.15651194 12.23818791 17.82979157
   6.81453909  6.84472547  1.41641533
   6.77173286  9.76889793  4.02791273
   6.79562051 12.25620466  6.95378387
   6.99071613 15.10193172  9.69270802
   9.46414301  6.84545384  4.03952301
   9.54781332  9.57221722  6.76054273
   9.60695475 12.40485682  9.59342265
   9.54096543 15.14398549 12.48685428
  12.27582247  6.89472845  6.91186179
  12.43748562  9.59025180  9.57302863
  12.28118940 12.30474157 12.31316786
  12.17259164 15.10677566 14.93752368
  14.92476114  6.75671236  9.60481551
  14.88824715  9.59194698 12.34521352
  14.93324581 12.44167044 15.07116105
  15.03491819 15.05703467 17.85893518
   9.51683047  9.60051609  1.36020595
   9.72633927 12.43504794  4.16055085
   9.55435272 14.90986808  6.80868535
   9.62174044 17.77603957  9.55915516
  12.17643054  9.69724574  3.90924269
  12.25101262 12.30639191  6.75340929
  12.38678698 14.94759723  9.72570563
  12.33536820 17.90578274 12.31206276
  15.12453621  9.71214585  6.65286192
  15.09453149 12.35849554  9.57223612
  14.96642629 14.99100089 12.19920313
  15.11999658 17.79411863 14.93700219
  17.86574182  9.88195059  9.73536384
  17.65653876 12.43905966 12.32927376
  17.66648401 14.94394895 15.21874367
  17.69845769 17.75496659 17.76485287
 


--------------------------------------------------------------------------------------------------------


 k-point  1 :   0.0000 0.0000 0.0000  plane waves:   66299
 k-point  2 :   0.5000 0.0000 0.0000  plane waves:   66394
 k-point  3 :   0.0000 0.5000 0.0000  plane waves:   66394
 k-point  4 :   0.5000 0.5000 0.0000  plane waves:   66552
 k-point  5 :   0.0000 0.0000 0.5000  plane waves:   66394
 k-point  6 :   0.5000 0.0000 0.5000  plane waves:   66552
 k-point  7 :   0.0000 0.5000 0.5000  plane waves:   66552
 k-point  8 :   0.5000 0.5000 0.5000  plane waves:   66394

 maximum and minimum number of plane-waves per node :      4207     4110

 maximum number of plane-waves:     66552
 maximum index in each direction: 
   IXMAX=   28   IYMAX=   28   IZMAX=   28
   IXMIN=  -28   IYMIN=  -28   IZMIN=  -28


 parallel 3D FFT for wavefunctions:
    minimum data exchange during FFTs selected (reduces bandwidth)
 parallel 3D FFT for charge:
    minimum data exchange during FFTs selected (reduces bandwidth)


 total amount of memory used by VASP MPI-rank0   221701. kBytes
=======================================================================

   base      :      30000. kBytes
   nonl-proj :      10690. kBytes
   fftplans  :      66746. kBytes
   grid      :      26864. kBytes
   one-center:         24. kBytes
   wavefun   :      87377. kBytes
 
     INWAV:  cpu time    0.0000: real time    0.0003
 Broyden mixing: mesh for mixing (old mesh)
   NGX = 57   NGY = 57   NGZ = 57
  (NGX  =240   NGY  =240   NGZ  =240)
  gives a total of 185193 points

 initial charge density was supplied:
 charge density of overlapping atoms calculated
 number of electron     512.0000000 magnetization 
 keeping initial charge density in first step


--------------------------------------------------------------------------------------------------------


 Maximum index for augmentation-charges         5605 (set IRDMAX)


--------------------------------------------------------------------------------------------------------


 First call to EWALD:  gamma=   0.129
 Maximum number of real-space cells 3x 3x 3
 Maximum number of reciprocal cells 3x 3x 3

    FEWALD:  cpu time    0.0061: real time    0.0061


--------------------------------------- Iteration      1(   1)  ---------------------------------------


    POTLOK:  cpu time    0.4886: real time    0.4976
    SETDIJ:  cpu time    0.5026: real time    0.5026
     EDDAV:  cpu time   69.4061: real time   69.4411
       DOS:  cpu time    0.0029: real time    0.0029
    --------------------------------------------
      LOOP:  cpu time   70.4002: real time   70.4443

 eigenvalue-minimisations  :  5152
 total energy-change (2. order) : 0.1384580E+04  (-0.1908320E+05)
 number of electron     512.0000000 magnetization 
 augmentation part      512.0000000 magnetization 

 Free energy of the ion-electron system (eV)
  ---------------------------------------------------
  alpha Z        PSCENC =       210.77028614
  Ewald energy   TEWEN  =    -14462.38185488
  -Hartree energ DENC   =      -763.68251798
  -exchange      EXHF   =         0.00000000
  -V(xc)+E(xc)   XCENC  =     -1195.30220760
  PAW double counting   =      4221.13331941    -1969.18571412
  entropy T*S    EENTRO =        -0.00132707
  eigenvalues    EBANDS =      2150.74914973
  atomic energy  EATOM  =     13192.48085998
  Solvation  Ediel_sol  =         0.00000000
  ---------------------------------------------------
  free energy    TOTEN  =      1384.57999363 eV

  energy without entropy =     1384.58132069  energy(sigma->0) =     1384.58065716


--------------------------------------------------------------------------------------------------------




--------------------------------------- Iteration      1(   2)  ---------------------------------------


     EDDAV:  cpu time   78.8276: real time   78.8640
       DOS:  cpu time    0.0021: real time    0.0021
    --------------------------------------------
      LOOP:  cpu time   78.8296: real time   78.8661

 eigenvalue-minimisations  :  6112
 total energy-change (2. order) :-0.1919816E+04  (-0.1825664E+04)
 number of electron     512.0000000 magnetization 
 augmentation part      512.0000000 magnetization 

 Free energy of the ion-electron system (eV)
  ---------------------------------------------------
  alpha Z        PSCENC =       210.77028614
  Ewald energy   TEWEN  =    -14462.38185488
  -Hartree energ DENC   =      -763.68251798
  -exchange      EXHF   =         0.00000000
  -V(xc)+E(xc)   XCENC  =     -1195.30220760
  PAW double counting   =      4221.13331941    -1969.18571412
  entropy T*S    EENTRO =        -0.00000005
  eigenvalues    EBANDS =       230.93206035
  atomic energy  EATOM  =     13192.48085998
  Solvation  Ediel_sol  =         0.00000000
  ---------------------------------------------------
  free energy    TOTEN  =      -535.23576873 eV

  energy without entropy =     -535.23576869  energy(sigma->0) =     -535.23576871


--------------------------------------------------------------------------------------------------------




--------------------------------------- Iteration      1(   3)  ---------------------------------------


     EDDAV:  cpu time   80.8407: real time   80.8721
       DOS:  cpu time    0.0010: real time    0.0010
    --------------------------------------------
      LOOP:  cpu time   80.8417: real time   80.8731

 eigenvalue-minimisations  :  6312
 total energy-change (2. order) :-0.1498514E+03  (-0.1466595E+03)
 number of electron     512.0000000 magnetization 
 augmentation part      512.0000000 magnetization 

 Free energy of the ion-electron system (eV)
  ---------------------------------------------------
  alpha Z        PSCENC =       210.77028614
  Ewald energy   TEWEN  =    -14462.38185488
  -Hartree energ DENC   =      -763.68251798
  -exchange      EXHF   =         0.00000000
  -V(xc)+E(xc)   XCENC  =     -1195.30220760
  PAW double counting   =      4221.13331941    -1969.18571412
  entropy T*S    EENTRO =        -0.00000000
  eigenvalues    EBANDS =        81.08070323
  atomic energy  EATOM  =     13192.48085998
  Solvation  Ediel_sol  =         0.00000000
  ---------------------------------------------------
  free energy    TOTEN  =      -685.08712582 eV

  energy without entropy =     -685.08712582  energy(sigma->0) =     -685.08712582


--------------------------------------------------------------------------------------------------------




--------------------------------------- Iteration      1(   4)  ---------------------------------------


     EDDAV:  cpu time   79.6216: real time   79.6464
       DOS:  cpu time    0.0010: real time    0.0010
    --------------------------------------------
      LOOP:  cpu time   79.6226: real time   79.6474

 eigenvalue-minimisations  :  6184
 total energy-change (2. order) :-0.4268681E+01  (-0.4232887E+01)
 number of electron     512.0000000 magnetization 
 augmentation part      512.0000000 magnetization 

 Free energy of the ion-electron system (eV)
  ---------------------------------------------------
  alpha Z        PSCENC =       210.77028614
  Ewald energy   TEWEN  =    -14462.38185488
  -Hartree energ DENC   =      -763.68251798
  -exchange      EXHF   =         0.00000000
  -V(xc)+E(xc)   XCENC  =     -1195.30220760
  PAW double counting   =      4221.13331941    -1969.18571412
  entropy T*S    EENTRO =        -0.00000000
  eigenvalues    EBANDS =        76.81202230
  atomic energy  EATOM  =     13192.48085998
  Solvation  Ediel_sol  =         0.00000000
  ---------------------------------------------------
  free energy    TOTEN  =      -689.35580674 eV

  energy without entropy =     -689.35580674  energy(sigma->0) =     -689.35580674


--------------------------------------------------------------------------------------------------------




--------------------------------------- Iteration      1(   5)  ---------------------------------------


     EDDAV:  cpu time   81.1306: real time   81.1676
       DOS:  cpu time    0.0010: real time    0.0010
    CHARGE:  cpu time    3.1662: real time    3.1668
    MIXING:  cpu time    0.0312: real time    0.0312
    --------------------------------------------
      LOOP:  cpu time   84.3291: real time   84.3667

 eigenvalue-minimisations  :  6336
 total energy-change (2. order) :-0.1498046E+00  (-0.1493713E+00)
 number of electron     511.9999998 magnetization 
 augmentation part      -30.1945219 magnetization 

 Broyden mixing:
  rms(total) = 0.23998E+01    rms(broyden)= 0.23998E+01
  rms(prec ) = 0.29109E+01
  weight for this iteration     100.00

 Free energy of the ion-electron system (eV)
  ---------------------------------------------------
  alpha Z        PSCENC =       210.77028614
  Ewald energy   TEWEN  =    -14462.38185488
  -Hartree energ DENC   =      -763.68251798
  -exchange      EXHF   =         0.00000000
  -V(xc)+E(xc)   XCENC  =     -1195.30220760
  PAW double counting   =      4221.13331941    -1969.18571412
  entropy T*S    EENTRO =        -0.00000000
  eigenvalues    EBANDS =        76.66221772
  atomic energy  EATOM  =     13192.48085998
  Solvation  Ediel_sol  =         0.00000000
  ---------------------------------------------------
  free energy    TOTEN  =      -689.50561132 eV

  energy without entropy =     -689.50561132  energy(sigma->0) =     -689.50561132


--------------------------------------------------------------------------------------------------------




--------------------------------------- Iteration      1(   6)  ---------------------------------------


    POTLOK:  cpu time    0.4909: real time    0.4947
    SETDIJ:  cpu time    0.5096: real time    0.5096
     EDDAV:  cpu time   76.5068: real time   76.5304
       DOS:  cpu time    0.0017: real time    0.0017
    CHARGE:  cpu time    3.1755: real time    3.1759
    MIXING:  cpu time    0.0251: real time    0.0251
    --------------------------------------------
      LOOP:  cpu time   80.7096: real time   80.7375

 eigenvalue-minimisations  :  5872
 total energy-change (2. order) : 0.8604683E+01  (-0.6195017E+00)
 number of electron     511.9999998 magnetization 
 augmentation part      -29.8557423 magnetization 

 Broyden mixing:
  rms(total) = 0.14248E+01    rms(broyden)= 0.14248E+01
  rms(prec ) = 0.17170E+01
  weight for this iteration     100.00

 eigenvalues of (default mixing * dielectric matrix)
  average eigenvalue GAMMA=   2.4237
  2.4237

 Free energy of the ion-electron system (eV)
  ---------------------------------------------------
  alpha Z        PSCENC =       210.77028614
  Ewald energy   TEWEN  =    -14462.38185488
  -Hartree energ DENC   =      -859.16636292
  -exchange      EXHF   =         0.00000000
  -V(xc)+E(xc)   XCENC  =     -1180.67724737
  PAW double counting   =      4466.30578171    -2221.14234025
  entropy T*S    EENTRO =        -0.00000000
  eigenvalues    EBANDS =       172.90994882
  atomic energy  EATOM  =     13192.48085998
  Solvation  Ediel_sol  =         0.00000000
  ---------------------------------------------------
  free energy    TOTEN  =      -680.90092875 eV

  energy without entropy =     -680.90092875  energy(sigma->0) =     -680.90092875


--------------------------------------------------------------------------------------------------------




--------------------------------------- Iteration      1(   7)  ---------------------------------------


    POTLOK:  cpu time    0.4880: real time    0.4909
    SETDIJ:  cpu time    0.5080: real time    0.5082
     EDDAV:  cpu time   76.9445: real time   76.9877
       DOS:  cpu time    0.0011: real time    0.0011
    CHARGE:  cpu time    3.1822: real time    3.1836
    MIXING:  cpu time    0.0272: real time    0.0272
    --------------------------------------------
      LOOP:  cpu time   81.1510: real time   81.1987

 eigenvalue-minimisations  :  5912
 total energy-change (2. order) : 0.3528387E+01  (-0.1150446E+01)
 number of electron     511.9999998 magnetization 
 augmentation part      -29.4064031 magnetization 

 Broyden mixing:
  rms(total) = 0.16039E+00    rms(broyden)= 0.16039E+00
  rms(prec ) = 0.21009E+00
  weight for this iteration     100.00

 eigenvalues of (default mixing * dielectric matrix)
  average eigenvalue GAMMA=   2.0212
  1.8496  2.1927

 Free energy of the ion-electron system (eV)
  ---------------------------------------------------
  alpha Z        PSCENC =       210.77028614
  Ewald energy   TEWEN  =    -14462.38185488
  -Hartree energ DENC   =     -1008.18916795
  -exchange      EXHF   =         0.00000000
  -V(xc)+E(xc)   XCENC  =     -1157.00439549
  PAW double counting   =      4784.50501834    -2547.82526114
  entropy T*S    EENTRO =        -0.00000000
  eigenvalues    EBANDS =       310.27197348
  atomic energy  EATOM  =     13192.48085998
  Solvation  Ediel_sol  =         0.00000000
  ---------------------------------------------------
  free energy    TOTEN  =      -677.37254150 eV

  energy without entropy =     -677.37254150  energy(sigma->0) =     -677.37254150


--------------------------------------------------------------------------------------------------------




--------------------------------------- Iteration      1(   8)  ---------------------------------------


    POTLOK:  cpu time    0.4892: real time    0.4909
    SETDIJ:  cpu time    0.5109: real time    0.5110
     EDDAV:  cpu time   75.7252: real time   75.7650
       DOS:  cpu time    0.0011: real time    0.0011
    CHARGE:  cpu time    3.1890: real time    3.1909
    MIXING:  cpu time    0.0325: real time    0.0325
    --------------------------------------------
      LOOP:  cpu time   79.9478: real time   79.9913

 eigenvalue-minimisations  :  5800
 total energy-change (2. order) :-0.4848548E-01  (-0.1064089E+00)
 number of electron     511.9999998 magnetization 
 augmentation part      -29.4732153 magnetization 

 Broyden mixing:
  rms(total) = 0.68362E-01    rms(broyden)= 0.68362E-01
  rms(prec ) = 0.83659E-01
  weight for this iteration     100.00

 eigenvalues of (default mixing * dielectric matrix)
  average eigenvalue GAMMA=   1.9755
  2.6529  1.6368  1.6368

 Free energy of the ion-electron system (eV)
  ---------------------------------------------------
  alpha Z        PSCENC =       210.77028614
  Ewald energy   TEWEN  =    -14462.38185488
  -Hartree energ DENC   =     -1002.83666829
  -exchange      EXHF   =         0.00000000
  -V(xc)+E(xc)   XCENC  =     -1156.95753281
  PAW double counting   =      4742.81984834    -2504.83454787
  entropy T*S    EENTRO =        -0.00000000
  eigenvalues    EBANDS =       303.51858241
  atomic energy  EATOM  =     13192.48085998
  Solvation  Ediel_sol  =         0.00000000
  ---------------------------------------------------
  free energy    TOTEN  =      -677.42102698 eV

  energy without entropy =     -677.42102698  energy(sigma->0) =     -677.42102698


--------------------------------------------------------------------------------------------------------




--------------------------------------- Iteration      1(   9)  ---------------------------------------


    POTLOK:  cpu time    0.4913: real time    0.4924
    SETDIJ:  cpu time    0.5089: real time    0.5090
     EDDAV:  cpu time   78.6883: real time   78.7242
       DOS:  cpu time    0.0011: real time    0.0011
    CHARGE:  cpu time    3.1782: real time    3.1792
    MIXING:  cpu time    0.0296: real time    0.0296
    --------------------------------------------
      LOOP:  cpu time   82.8975: real time   82.9356

 eigenvalue-minimisations  :  6088
 total energy-change (2. order) :-0.2627443E-01  (-0.1211184E-01)
 number of electron     511.9999998 magnetization 
 augmentation part      -29.4822464 magnetization 

 Broyden mixing:
  rms(total) = 0.27559E-01    rms(broyden)= 0.27559E-01
  rms(prec ) = 0.32583E-01
  weight for this iteration     100.00

 eigenvalues of (default mixing * dielectric matrix)
  average eigenvalue GAMMA=   1.7540
  2.5799  1.7771  1.7771  0.8818

 Free energy of the ion-electron system (eV)
  ---------------------------------------------------
  alpha Z        PSCENC =       210.77028614
  Ewald energy   TEWEN  =    -14462.38185488
  -Hartree energ DENC   =     -1008.77458699
  -exchange      EXHF   =         0.00000000
  -V(xc)+E(xc)   XCENC  =     -1155.83753704
  PAW double counting   =      4741.96335506    -2503.93847728
  entropy T*S    EENTRO =        -0.00000000
  eigenvalues    EBANDS =       308.27065360
  atomic energy  EATOM  =     13192.48085998
  Solvation  Ediel_sol  =         0.00000000
  ---------------------------------------------------
  free energy    TOTEN  =      -677.44730141 eV

  energy without entropy =     -677.44730141  energy(sigma->0) =     -677.44730141


--------------------------------------------------------------------------------------------------------




--------------------------------------- Iteration      1(  10)  ---------------------------------------


    POTLOK:  cpu time    0.4901: real time    0.4933
    SETDIJ:  cpu time    0.5088: real time    0.5091
     EDDAV:  cpu time   78.1746: real time   78.2176
       DOS:  cpu time    0.0011: real time    0.0011
    CHARGE:  cpu time    3.2312: real time    3.2346
    MIXING:  cpu time    0.0391: real time    0.0391
    --------------------------------------------
      LOOP:  cpu time   82.4449: real time   82.4948

 eigenvalue-minimisations  :  6056
 total energy-change (2. order) :-0.2362834E-02  (-0.7694223E-03)
 number of electron     511.9999998 magnetization 
 augmentation part      -29.4897339 magnetization 

 Broyden mixing:
  rms(total) = 0.12256E-01    rms(broyden)= 0.12256E-01
  rms(prec ) = 0.14729E-01
  weight for this iteration     100.00

 eigenvalues of (default mixing * dielectric matrix)
  average eigenvalue GAMMA=   1.8238
  2.6173  2.6173  1.4781  1.4781  0.9279

 Free energy of the ion-electron system (eV)
  ---------------------------------------------------
  alpha Z        PSCENC =       210.77028614
  Ewald energy   TEWEN  =    -14462.38185488
  -Hartree energ DENC   =     -1007.97387068
  -exchange      EXHF   =         0.00000000
  -V(xc)+E(xc)   XCENC  =     -1155.96508530
  PAW double counting   =      4736.02277427    -2497.85342831
  entropy T*S    EENTRO =        -0.00000000
  eigenvalues    EBANDS =       307.45065453
  atomic energy  EATOM  =     13192.48085998
  Solvation  Ediel_sol  =         0.00000000
  ---------------------------------------------------
  free energy    TOTEN  =      -677.44966424 eV

  energy without entropy =     -677.44966424  energy(sigma->0) =     -677.44966424


--------------------------------------------------------------------------------------------------------




--------------------------------------- Iteration      1(  11)  ---------------------------------------


    POTLOK:  cpu time    0.4913: real time    0.4930
    SETDIJ:  cpu time    0.5085: real time    0.5085
     EDDAV:  cpu time   74.9086: real time   74.9509
       DOS:  cpu time    0.0012: real time    0.0012
    CHARGE:  cpu time    3.2156: real time    3.2199
    MIXING:  cpu time    0.0298: real time    0.0298
    --------------------------------------------
      LOOP:  cpu time   79.1549: real time   79.2031

 eigenvalue-minimisations  :  5728
 total energy-change (2. order) :-0.1733474E-02  (-0.2841130E-03)
 number of electron     511.9999998 magnetization 
 augmentation part      -29.4925784 magnetization 

 Broyden mixing:
  rms(total) = 0.35344E-02    rms(broyden)= 0.35344E-02
  rms(prec ) = 0.49708E-02
  weight for this iteration     100.00

 eigenvalues of (default mixing * dielectric matrix)
  average eigenvalue GAMMA=   1.7559
  2.8315  2.1322  1.8168  0.8980  1.5270  1.3296

 Free energy of the ion-electron system (eV)
  ---------------------------------------------------
  alpha Z        PSCENC =       210.77028614
  Ewald energy   TEWEN  =    -14462.38185488
  -Hartree energ DENC   =     -1008.00657157
  -exchange      EXHF   =         0.00000000
  -V(xc)+E(xc)   XCENC  =     -1155.95503734
  PAW double counting   =      4731.75350864    -2493.48622160
  entropy T*S    EENTRO =        -0.00000000
  eigenvalues    EBANDS =       307.37363290
  atomic energy  EATOM  =     13192.48085998
  Solvation  Ediel_sol  =         0.00000000
  ---------------------------------------------------
  free energy    TOTEN  =      -677.45139772 eV

  energy without entropy =     -677.45139772  energy(sigma->0) =     -677.45139772


--------------------------------------------------------------------------------------------------------




--------------------------------------- Iteration      1(  12)  ---------------------------------------


    POTLOK:  cpu time    0.4908: real time    0.4920
    SETDIJ:  cpu time    0.5093: real time    0.5093
     EDDAV:  cpu time   79.0690: real time   79.0974
       DOS:  cpu time    0.0012: real time    0.0012
    CHARGE:  cpu time    3.2118: real time    3.2125
    MIXING:  cpu time    0.0241: real time    0.0241
    --------------------------------------------
      LOOP:  cpu time   83.3062: real time   83.3364

 eigenvalue-minimisations  :  6152
 total energy-change (2. order) :-0.1171453E-03  (-0.4262849E-04)
 number of electron     511.9999998 magnetization 
 augmentation part      -29.4910369 magnetization 

 Broyden mixing:
  rms(total) = 0.18001E-02    rms(broyden)= 0.18001E-02
  rms(prec ) = 0.21692E-02
  weight for this iteration     100.00

 eigenvalues of (default mixing * dielectric matrix)
  average eigenvalue GAMMA=   1.8258
  3.1174  2.6900  1.7344  1.7344  0.9047  1.2999  1.2999

 Free energy of the ion-electron system (eV)
  ---------------------------------------------------
  alpha Z        PSCENC =       210.77028614
  Ewald energy   TEWEN  =    -14462.38185488
  -Hartree energ DENC   =     -1008.53576719
  -exchange      EXHF   =         0.00000000
  -V(xc)+E(xc)   XCENC  =     -1155.89724689
  PAW double counting   =      4732.57214137    -2494.33617103
  entropy T*S    EENTRO =        -0.00000000
  eigenvalues    EBANDS =       307.87623763
  atomic energy  EATOM  =     13192.48085998
  Solvation  Ediel_sol  =         0.00000000
  ---------------------------------------------------
  free energy    TOTEN  =      -677.45151486 eV

  energy without entropy =     -677.45151486  energy(sigma->0) =     -677.45151486


--------------------------------------------------------------------------------------------------------




--------------------------------------- Iteration      1(  13)  ---------------------------------------


    POTLOK:  cpu time    0.4916: real time    0.4941
    SETDIJ:  cpu time    0.5071: real time    0.5073
     EDDAV:  cpu time   75.5518: real time   75.5918
       DOS:  cpu time    0.0012: real time    0.0012
    CHARGE:  cpu time    3.1661: real time    3.1675
    MIXING:  cpu time    0.0274: real time    0.0273
    --------------------------------------------
      LOOP:  cpu time   79.7452: real time   79.7893

 eigenvalue-minimisations  :  5792
 total energy-change (2. order) :-0.3219687E-04  (-0.1076845E-04)
 number of electron     511.9999998 magnetization 
 augmentation part      -29.4910619 magnetization 

 Broyden mixing:
  rms(total) = 0.65328E-03    rms(broyden)= 0.65326E-03
  rms(prec ) = 0.84615E-03
  weight for this iteration     100.00

 eigenvalues of (default mixing * dielectric matrix)
  average eigenvalue GAMMA=   1.7646
  3.1574  2.5685  1.8542  1.8542  1.3987  1.3987  0.9427  0.9427

 Free energy of the ion-electron system (eV)
  ---------------------------------------------------
  alpha Z        PSCENC =       210.77028614
  Ewald energy   TEWEN  =    -14462.38185488
  -Hartree energ DENC   =     -1008.53507733
  -exchange      EXHF   =         0.00000000
  -V(xc)+E(xc)   XCENC  =     -1155.90755401
  PAW double counting   =      4732.00535624    -2493.75844172
  entropy T*S    EENTRO =        -0.00000000
  eigenvalues    EBANDS =       307.87487851
  atomic energy  EATOM  =     13192.48085998
  Solvation  Ediel_sol  =         0.00000000
  ---------------------------------------------------
  free energy    TOTEN  =      -677.45154706 eV

  energy without entropy =     -677.45154706  energy(sigma->0) =     -677.45154706


--------------------------------------------------------------------------------------------------------




--------------------------------------- Iteration      1(  14)  ---------------------------------------


    POTLOK:  cpu time    0.4871: real time    0.4909
    SETDIJ:  cpu time    0.5112: real time    0.5112
     EDDAV:  cpu time   79.1112: real time   79.1480
       DOS:  cpu time    0.0012: real time    0.0012
    CHARGE:  cpu time    3.1551: real time    3.1570
    MIXING:  cpu time    0.0294: real time    0.0295
    --------------------------------------------
      LOOP:  cpu time   83.2953: real time   83.3379

 eigenvalue-minimisations  :  6160
 total energy-change (2. order) :-0.6072882E-05  (-0.1023345E-05)
 number of electron     511.9999998 magnetization 
 augmentation part      -29.4908448 magnetization 

 Broyden mixing:
  rms(total) = 0.18013E-03    rms(broyden)= 0.18007E-03
  rms(prec ) = 0.24326E-03
  weight for this iteration     100.00

 eigenvalues of (default mixing * dielectric matrix)
  average eigenvalue GAMMA=   1.7700
  3.1798  2.5581  2.2718  1.6590  1.6590  1.3365  1.3365  0.9741  0.9552

 Free energy of the ion-electron system (eV)
  ---------------------------------------------------
  alpha Z        PSCENC =       210.77028614
  Ewald energy   TEWEN  =    -14462.38185488
  -Hartree energ DENC   =     -1008.60256017
  -exchange      EXHF   =         0.00000000
  -V(xc)+E(xc)   XCENC  =     -1155.89890656
  PAW double counting   =      4732.19617591    -2493.95396537
  entropy T*S    EENTRO =        -0.00000000
  eigenvalues    EBANDS =       307.93841181
  atomic energy  EATOM  =     13192.48085998
  Solvation  Ediel_sol  =         0.00000000
  ---------------------------------------------------
  free energy    TOTEN  =      -677.45155313 eV

  energy without entropy =     -677.45155313  energy(sigma->0) =     -677.45155313


--------------------------------------------------------------------------------------------------------




--------------------------------------- Iteration      1(  15)  ---------------------------------------


    POTLOK:  cpu time    0.4868: real time    0.4888
    SETDIJ:  cpu time    0.5100: real time    0.5102
     EDDAV:  cpu time   81.4106: real time   81.4473
       DOS:  cpu time    0.0012: real time    0.0012
    CHARGE:  cpu time    3.1616: real time    3.1639
    MIXING:  cpu time    0.0252: real time    0.0252
    --------------------------------------------
      LOOP:  cpu time   85.5954: real time   85.6366

 eigenvalue-minimisations  :  6392
 total energy-change (2. order) :-0.3308487E-05  (-0.1252456E-06)
 number of electron     511.9999998 magnetization 
 augmentation part      -29.4907269 magnetization 

 Broyden mixing:
  rms(total) = 0.71026E-04    rms(broyden)= 0.70862E-04
  rms(prec ) = 0.92716E-04
  weight for this iteration     100.00

 eigenvalues of (default mixing * dielectric matrix)
  average eigenvalue GAMMA=   1.7299
  3.2685  2.6182  1.8514  1.6594  1.6594  1.5943  1.5943  0.9405  0.9405  1.1722

 Free energy of the ion-electron system (eV)
  ---------------------------------------------------
  alpha Z        PSCENC =       210.77028614
  Ewald energy   TEWEN  =    -14462.38185488
  -Hartree energ DENC   =     -1008.62558551
  -exchange      EXHF   =         0.00000000
  -V(xc)+E(xc)   XCENC  =     -1155.89732655
  PAW double counting   =      4732.26927045    -2494.02906378
  entropy T*S    EENTRO =        -0.00000000
  eigenvalues    EBANDS =       307.96185769
  atomic energy  EATOM  =     13192.48085998
  Solvation  Ediel_sol  =         0.00000000
  ---------------------------------------------------
  free energy    TOTEN  =      -677.45155644 eV

  energy without entropy =     -677.45155644  energy(sigma->0) =     -677.45155644


--------------------------------------------------------------------------------------------------------




--------------------------------------- Iteration      1(  16)  ---------------------------------------


    POTLOK:  cpu time    0.4912: real time    0.4946
    SETDIJ:  cpu time    0.5080: real time    0.5084
     EDDAV:  cpu time   77.2768: real time   77.3180
       DOS:  cpu time    0.0011: real time    0.0011
    CHARGE:  cpu time    3.2665: real time    3.2674
    MIXING:  cpu time    0.0290: real time    0.0290
    --------------------------------------------
      LOOP:  cpu time   81.5726: real time   81.6185

 eigenvalue-minimisations  :  5960
 total energy-change (2. order) : 0.7543877E-06  (-0.2403127E-07)
 number of electron     511.9999998 magnetization 
 augmentation part      -29.4907379 magnetization 

 Broyden mixing:
  rms(total) = 0.29261E-04    rms(broyden)= 0.28861E-04
  rms(prec ) = 0.36010E-04
  weight for this iteration     100.00

 eigenvalues of (default mixing * dielectric matrix)
  average eigenvalue GAMMA=   1.7135
  3.2650  2.6047  2.0581  2.0581  1.4743  1.4743  1.4555  1.4555  0.9287  1.0372
  1.0372

 Free energy of the ion-electron system (eV)
  ---------------------------------------------------
  alpha Z        PSCENC =       210.77028614
  Ewald energy   TEWEN  =    -14462.38185488
  -Hartree energ DENC   =     -1008.62291781
  -exchange      EXHF   =         0.00000000
  -V(xc)+E(xc)   XCENC  =     -1155.89765388
  PAW double counting   =      4732.25384605    -2494.01303147
  entropy T*S    EENTRO =        -0.00000000
  eigenvalues    EBANDS =       307.95891017
  atomic energy  EATOM  =     13192.48085998
  Solvation  Ediel_sol  =         0.00000000
  ---------------------------------------------------
  free energy    TOTEN  =      -677.45155569 eV

  energy without entropy =     -677.45155569  energy(sigma->0) =     -677.45155569


--------------------------------------------------------------------------------------------------------




--------------------------------------- Iteration      1(  17)  ---------------------------------------


    POTLOK:  cpu time    0.4902: real time    0.4907
    SETDIJ:  cpu time    0.5066: real time    0.5067
     EDDAV:  cpu time   55.9662: real time   56.0045
       DOS:  cpu time    0.0011: real time    0.0011
    CHARGE:  cpu time    3.2541: real time    3.2553
    MIXING:  cpu time    0.0305: real time    0.0306
    --------------------------------------------
      LOOP:  cpu time   60.2488: real time   60.2889

 eigenvalue-minimisations  :  3800
 total energy-change (2. order) :-0.2116412E-06  (-0.2392297E-08)
 number of electron     511.9999998 magnetization 
 augmentation part      -29.4907323 magnetization 

 Broyden mixing:
  rms(total) = 0.11750E-04    rms(broyden)= 0.10714E-04
  rms(prec ) = 0.13818E-04
  weight for this iteration     100.00

 eigenvalues of (default mixing * dielectric matrix)
  average eigenvalue GAMMA=   1.7282
  3.2975  2.6085  2.4378  1.9160  1.9160  1.4718  1.4718  1.3268  1.3268  0.9310
  1.0172  1.0172

 Free energy of the ion-electron system (eV)
  ---------------------------------------------------
  alpha Z        PSCENC =       210.77028614
  Ewald energy   TEWEN  =    -14462.38185488
  -Hartree energ DENC   =     -1008.62413770
  -exchange      EXHF   =         0.00000000
  -V(xc)+E(xc)   XCENC  =     -1155.89747147
  PAW double counting   =      4732.26270912    -2494.02199746
  entropy T*S    EENTRO =        -0.00000000
  eigenvalues    EBANDS =       307.96005037
  atomic energy  EATOM  =     13192.48085998
  Solvation  Ediel_sol  =         0.00000000
  ---------------------------------------------------
  free energy    TOTEN  =      -677.45155590 eV

  energy without entropy =     -677.45155590  energy(sigma->0) =     -677.45155590


--------------------------------------------------------------------------------------------------------




--------------------------------------- Iteration      1(  18)  ---------------------------------------


    POTLOK:  cpu time    0.4944: real time    0.4961
    SETDIJ:  cpu time    0.5061: real time    0.5062
     EDDAV:  cpu time   51.4303: real time   51.4555
       DOS:  cpu time    0.0011: real time    0.0011
    CHARGE:  cpu time    3.2603: real time    3.2609
    MIXING:  cpu time    0.0350: real time    0.0350
    --------------------------------------------
      LOOP:  cpu time   55.7273: real time   55.7547

 eigenvalue-minimisations  :  3336
 total energy-change (2. order) :-0.7653580E-07  (-0.5403884E-09)
 number of electron     511.9999998 magnetization 
 augmentation part      -29.4907285 magnetization 

 Broyden mixing:
  rms(total) = 0.65062E-05    rms(broyden)= 0.43664E-05
  rms(prec ) = 0.61090E-05
  weight for this iteration     100.00
  WARNING: grid for Broyden might be to small

 eigenvalues of (default mixing * dielectric matrix)
  average eigenvalue GAMMA=   1.7178
  3.2794  2.5655  2.5655  2.1677  1.7176  1.7176  1.4132  1.4132  1.2774  1.2774
  0.9485  0.9485  1.0395

 Free energy of the ion-electron system (eV)
  ---------------------------------------------------
  alpha Z        PSCENC =       210.77028614
  Ewald energy   TEWEN  =    -14462.38185488
  -Hartree energ DENC   =     -1008.62491958
  -exchange      EXHF   =         0.00000000
  -V(xc)+E(xc)   XCENC  =     -1155.89739217
  PAW double counting   =      4732.26557435    -2494.02490558
  entropy T*S    EENTRO =        -0.00000000
  eigenvalues    EBANDS =       307.96079575
  atomic energy  EATOM  =     13192.48085998
  Solvation  Ediel_sol  =         0.00000000
  ---------------------------------------------------
  free energy    TOTEN  =      -677.45155598 eV

  energy without entropy =     -677.45155598  energy(sigma->0) =     -677.45155598


--------------------------------------------------------------------------------------------------------




--------------------------------------- Iteration      1(  19)  ---------------------------------------


    POTLOK:  cpu time    0.4878: real time    0.4914
    SETDIJ:  cpu time    0.5078: real time    0.5078
     EDDAV:  cpu time   50.4752: real time   50.4989
       DOS:  cpu time    0.0011: real time    0.0011
    CHARGE:  cpu time    3.2661: real time    3.2676
    MIXING:  cpu time    0.0391: real time    0.0391
    --------------------------------------------
      LOOP:  cpu time   54.7772: real time   54.8060

 eigenvalue-minimisations  :  3240
 total energy-change (2. order) : 0.5621041E-07  (-0.1235801E-09)
 number of electron     511.9999998 magnetization 
 augmentation part      -29.4907301 magnetization 

 Broyden mixing:
  rms(total) = 0.51590E-05    rms(broyden)= 0.18305E-05
  rms(prec ) = 0.25431E-05
  weight for this iteration     100.00
  WARNING: grid for Broyden might be to small

 eigenvalues of (default mixing * dielectric matrix)
  average eigenvalue GAMMA=   1.6895
  3.3001  2.7001  2.3779  2.3779  1.7541  1.7541  1.5127  1.5127  1.3081  1.3081
  1.0036  1.0036  0.9248  0.8150

 Free energy of the ion-electron system (eV)
  ---------------------------------------------------
  alpha Z        PSCENC =       210.77028614
  Ewald energy   TEWEN  =    -14462.38185488
  -Hartree energ DENC   =     -1008.62459618
  -exchange      EXHF   =         0.00000000
  -V(xc)+E(xc)   XCENC  =     -1155.89741467
  PAW double counting   =      4732.26490990    -2494.02419585
  entropy T*S    EENTRO =        -0.00000000
  eigenvalues    EBANDS =       307.96044963
  atomic energy  EATOM  =     13192.48085998
  Solvation  Ediel_sol  =         0.00000000
  ---------------------------------------------------
  free energy    TOTEN  =      -677.45155592 eV

  energy without entropy =     -677.45155592  energy(sigma->0) =     -677.45155592


--------------------------------------------------------------------------------------------------------




--------------------------------------- Iteration      1(  20)  ---------------------------------------


    POTLOK:  cpu time    0.4873: real time    0.4908
    SETDIJ:  cpu time    0.5085: real time    0.5090
     EDDAV:  cpu time   49.8353: real time   49.8606
       DOS:  cpu time    0.0010: real time    0.0010
    --------------------------------------------
      LOOP:  cpu time   50.8321: real time   50.8613

 eigenvalue-minimisations  :  3176
 total energy-change (2. order) : 0.9538780E-08  (-0.3559127E-10)
 number of electron     511.9999998 magnetization 
 augmentation part      -29.4907301 magnetization 

 Free energy of the ion-electron system (eV)
  ---------------------------------------------------
  alpha Z        PSCENC =       210.77028614
  Ewald energy   TEWEN  =    -14462.38185488
  -Hartree energ DENC   =     -1008.62455233
  -exchange      EXHF   =         0.00000000
  -V(xc)+E(xc)   XCENC  =     -1155.89742133
  PAW double counting   =      4732.26470979    -2494.02398828
  entropy T*S    EENTRO =        -0.00000000
  eigenvalues    EBANDS =       307.96040498
  atomic energy  EATOM  =     13192.48085998
  Solvation  Ediel_sol  =         0.00000000
  ---------------------------------------------------
  free energy    TOTEN  =      -677.45155591 eV

  energy without entropy =     -677.45155591  energy(sigma->0) =     -677.45155591


--------------------------------------------------------------------------------------------------------




 average (electrostatic) potential at core
  the test charge radii are     0.9892
  (the norm of the test charge is              1.0000)
       1 -83.5710       2 -83.5442       3 -83.5399       4 -83.5518       5 -83.5405
       6 -83.5779       7 -83.4796       8 -83.4106       9 -83.5559      10 -83.6442
      11 -83.4326      12 -83.4897      13 -83.6545      14 -83.5767      15 -83.4627
      16 -83.4803      17 -83.6051      18 -83.6339      19 -83.6694      20 -83.5329
      21 -83.5890      22 -83.6036      23 -83.5549      24 -83.4454      25 -83.5668
      26 -83.5892      27 -83.5316      28 -83.6061      29 -83.6461      30 -83.4329
      31 -83.4418      32 -83.5844      33 -83.5812      34 -83.5540      35 -83.3239
      36 -83.3754      37 -83.5172      38 -83.3926      39 -83.3986      40 -83.4009
      41 -83.5463      42 -83.3325      43 -83.5218      44 -83.5404      45 -83.4440
      46 -83.4812      47 -83.4590      48 -83.4110      49 -83.6078      50 -83.5566
      51 -83.4444      52 -83.3824      53 -83.4829      54 -83.5472      55 -83.5431
      56 -83.5969      57 -83.5987      58 -83.5061      59 -83.4312      60 -83.5159
      61 -83.6412      62 -83.6524      63 -83.4315      64 -83.4899      65 -83.5235
      66 -83.5122      67 -83.4357      68 -83.6065      69 -83.5890      70 -83.5575
      71 -83.4967      72 -83.4791      73 -83.6328      74 -83.5510      75 -83.3564
      76 -83.5639      77 -83.5460      78 -83.4533      79 -83.4208      80 -83.5513
      81 -83.5530      82 -83.7262      83 -83.5476      84 -83.5339      85 -83.6018
      86 -83.5778      87 -83.4507      88 -83.6442      89 -83.5840      90 -83.5121
      91 -83.5758      92 -83.5411      93 -83.5233      94 -83.5628      95 -83.5548
      96 -83.6377      97 -83.5683      98 -83.5672      99 -83.2535     100 -83.4985
     101 -83.5246     102 -83.4968     103 -83.4575     104 -83.4545     105 -83.4828
     106 -83.5453     107 -83.4708     108 -83.4676     109 -83.4855     110 -83.5912
     111 -83.3651     112 -83.5258     113 -83.4929     114 -83.4899     115 -83.5338
     116 -83.6082     117 -83.4757     118 -83.5739     119 -83.5262     120 -83.3953
     121 -83.4357     122 -83.4844     123 -83.4621     124 -83.5322     125 -83.7016
     126 -83.5158     127 -83.5316     128 -83.4341
 
 
 
 E-fermi :   5.9836     XC(G=0):  -9.3336     alpha+bet :-11.7321


 k-point     1 :       0.0000    0.0000    0.0000
  band No.  band energies     occupation 
      1      -6.3229      2.00000
      2      -5.7701      2.00000
      3      -5.6695      2.00000
      4      -5.6501      2.00000
      5      -5.5546      2.00000
      6      -5.5231      2.00000
      7      -5.4878      2.00000
      8      -5.4627      2.00000
      9      -5.4362      2.00000
     10      -5.3394      2.00000
     11      -5.2270      2.00000
     12      -5.1885      2.00000
     13      -5.1584      2.00000
     14      -5.1433      2.00000
     15      -5.0664      2.00000
     16      -4.5745      2.00000
     17      -4.5391      2.00000
     18      -4.4561      2.00000
     19      -4.3945      2.00000
     20      -4.3785      2.00000
     21      -4.3535      2.00000
     22      -4.3196      2.00000
     23      -4.2714      2.00000
     24      -4.2290      2.00000
     25      -4.1807      2.00000
     26      -4.1573      2.00000
     27      -4.1212      2.00000
     28      -4.1009      2.00000
     29      -4.0534      2.00000
     30      -3.9424      2.00000
     31      -3.9252      2.00000
     32      -3.8447      2.00000
     33      -3.8247      2.00000
     34      -3.7946      2.00000
     35      -3.7668      2.00000
     36      -3.7382      2.00000
     37      -3.7181      2.00000
     38      -3.6969      2.00000
     39      -3.6526      2.00000
     40      -3.6307      2.00000
     41      -3.6281      2.00000
     42      -3.6049      2.00000
     43      -3.5613      2.00000
     44      -3.5397      2.00000
     45      -3.5218      2.00000
     46      -3.5084      2.00000
     47      -3.4783      2.00000
     48      -3.4595      2.00000
     49      -3.4167      2.00000
     50      -3.3633      2.00000
     51      -3.3531      2.00000
     52      -3.3327      2.00000
     53      -3.2949      2.00000
     54      -3.2427      2.00000
     55      -3.1580      2.00000
     56      -2.3604      2.00000
     57      -2.3342      2.00000
     58      -2.2854      2.00000
     59      -2.2459      2.00000
     60      -2.2275      2.00000
     61      -2.2091      2.00000
     62      -2.1090      2.00000
     63      -2.1054      2.00000
     64      -2.0890      2.00000
     65      -2.0650      2.00000
     66      -2.0288      2.00000
     67      -1.9804      2.00000
     68      -1.9264      2.00000
     69      -1.9165      2.00000
     70      -1.8580      2.00000
     71      -1.8337      2.00000
     72      -1.8232      2.00000
     73      -1.7509      2.00000
     74      -1.4369      2.00000
     75      -1.3529      2.00000
     76      -1.2735      2.00000
     77      -1.1972      2.00000
     78      -1.0632      2.00000
     79      -1.0185      2.00000
     80      -0.9712      2.00000
     81      -0.9418      2.00000
     82      -0.9210      2.00000
     83      -0.8845      2.00000
     84      -0.8503      2.00000
     85      -0.8136      2.00000
     86      -0.8035      2.00000
     87      -0.7745      2.00000
     88      -0.7522      2.00000
     89      -0.7290      2.00000
     90      -0.7089      2.00000
     91      -0.6769      2.00000
     92      -0.6522      2.00000
     93      -0.6288      2.00000
     94      -0.6006      2.00000
     95      -0.5919      2.00000
     96      -0.5416      2.00000
     97      -0.5374      2.00000
     98      -0.4870      2.00000
     99      -0.4716      2.00000
    100      -0.4385      2.00000
    101      -0.3483      2.00000
    102      -0.0724      2.00000
    103       0.0127      2.00000
[...]
   0.441E+01 0.760E+01 -.334E+01   -.414E+01 -.699E+01 0.371E+01   -.472E-01 -.136E+01 0.139E+01   -.288E-07 -.468E-05 -.244E-05
   0.156E+02 -.231E+01 -.617E+00   -.132E+02 0.180E+01 0.549E+00   -.491E+01 0.191E+01 -.358E+00   -.897E-06 0.282E-06 0.263E-05
   0.232E+01 0.966E+01 -.520E+01   -.282E+01 -.852E+01 0.517E+01   0.159E+01 -.161E+01 0.690E+00   -.162E-05 -.528E-06 0.151E-05
   0.131E+02 -.661E+00 -.155E+02   -.128E+02 0.150E+00 0.138E+02   -.117E+01 0.101E+01 0.525E+01   -.276E-05 -.825E-06 -.192E-06
   0.125E+01 0.409E+01 -.354E+01   -.163E+01 -.429E+01 0.306E+01   0.446E+00 -.730E-01 0.856E+00   -.107E-05 -.237E-05 0.323E-06
   -.725E+01 0.509E+01 0.503E+01   0.714E+01 -.518E+01 -.500E+01   0.895E+00 -.126E+01 0.530E+00   0.776E-06 -.123E-06 -.138E-05
   -.765E+00 -.155E+01 -.903E+01   0.123E+01 0.239E+01 0.840E+01   -.113E+01 -.811E+00 0.316E+01   -.201E-05 -.408E-06 0.131E-05
   0.205E+01 0.837E+01 0.107E+02   -.133E+01 -.708E+01 -.103E+02   0.790E+00 -.365E+01 -.244E+01   0.339E-06 -.956E-07 -.127E-05
   0.377E+01 -.175E+02 0.343E+01   -.264E+01 0.163E+02 -.299E+01   -.167E+01 0.419E+01 -.421E+00   0.162E-06 0.150E-05 0.129E-06
   -.118E+02 -.220E+00 -.888E+00   0.106E+02 0.489E-02 0.988E+00   0.260E+01 0.123E+01 0.226E+00   0.108E-05 0.115E-05 -.323E-05
   0.112E+01 0.472E+00 -.314E+00   -.492E+00 -.105E+00 -.180E+00   -.152E+01 -.329E+00 0.112E+00   -.128E-05 0.236E-05 0.664E-06
   -.102E+02 0.307E+01 -.412E+01   0.981E+01 -.306E+01 0.358E+01   0.339E+01 -.849E+00 0.124E+00   0.229E-05 0.137E-05 0.297E-05
   -.205E+01 0.448E+01 -.113E+02   0.254E+01 -.355E+01 0.100E+02   -.695E+00 -.208E+01 0.202E+01   0.885E-07 -.242E-05 -.160E-05
   -.526E+01 0.670E+01 0.167E+01   0.512E+01 -.593E+01 -.213E+01   -.127E+00 -.172E+01 0.833E+00   0.310E-05 -.115E-05 0.303E-05
   0.654E+01 0.489E+00 0.250E+01   -.584E+01 0.407E+00 -.267E+01   -.968E+00 -.117E+01 -.112E+00   -.615E-06 0.852E-06 0.257E-05
   0.612E+01 -.338E+01 0.133E+02   -.578E+01 0.325E+01 -.122E+02   -.102E+01 -.613E+00 -.276E+01   -.992E-07 -.750E-06 -.329E-05
   0.376E+01 -.146E+02 -.167E+01   -.374E+01 0.137E+02 0.149E+01   -.413E+00 0.240E+01 0.857E+00   0.109E-05 0.928E-06 -.334E-05
   -.503E+01 0.179E+02 0.986E+01   0.481E+01 -.161E+02 -.936E+01   0.145E+01 -.451E+01 -.486E+00   0.802E-06 -.273E-05 -.130E-05
   0.112E+01 -.825E+01 -.939E+01   -.114E+01 0.795E+01 0.816E+01   -.350E+00 0.138E+01 0.207E+01   -.145E-05 0.206E-05 0.112E-05
   -.150E+02 -.473E+01 -.483E+01   0.142E+02 0.411E+01 0.436E+01   0.351E+01 0.156E+01 0.898E+00   0.193E-05 -.727E-06 -.232E-05
   -.250E+01 -.391E+01 -.265E+01   0.274E+01 0.483E+01 0.181E+01   0.655E+00 -.796E+00 0.151E+01   0.279E-05 0.133E-05 0.211E-05
   -.590E+01 -.453E+01 0.111E+02   0.553E+01 0.463E+01 -.994E+01   -.247E+00 0.507E+00 -.267E+01   -.632E-06 -.118E-05 -.223E-05
   0.293E+00 -.899E-01 0.292E+01   -.144E+00 0.496E+00 -.232E+01   -.420E+00 -.233E+01 0.470E+00   -.168E-05 0.700E-06 0.199E-05
   -.429E+01 -.213E+01 0.224E+01   0.419E+01 0.186E+01 -.187E+01   0.535E+00 -.112E+00 -.609E+00   0.104E-05 0.501E-06 -.404E-06
   0.232E+01 -.108E+02 0.114E+01   -.129E+01 0.945E+01 -.186E+01   -.303E+01 0.177E+01 -.295E+00   -.161E-05 -.668E-06 0.628E-06
   -.683E+01 -.210E+01 0.343E+01   0.569E+01 0.177E+01 -.253E+01   0.188E+01 0.585E+00 -.738E+00   0.109E-05 0.211E-05 -.967E-06
   -.337E+01 -.945E+00 0.839E+00   0.280E+01 0.311E+00 -.346E+00   0.724E+00 -.656E+00 -.114E+00   0.185E-06 0.247E-05 0.698E-06
   0.388E+01 0.574E+01 0.222E+01   -.344E+01 -.514E+01 -.260E+01   -.103E+01 -.338E+01 0.286E+00   -.173E-05 -.232E-05 0.101E-05
   0.553E+00 0.448E+01 0.105E+02   -.857E+00 -.423E+01 -.956E+01   0.667E+00 -.199E+01 -.348E+01   -.163E-08 -.187E-05 -.311E-05
   -.768E+01 0.683E+01 0.174E+02   0.702E+01 -.564E+01 -.157E+02   0.673E+00 -.162E+01 -.235E+01   0.293E-05 -.192E-05 -.238E-05
   -.363E+01 -.663E+01 0.134E+02   0.301E+01 0.575E+01 -.126E+02   -.540E-02 0.871E+00 -.200E+01   -.140E-05 0.981E-06 0.841E-06
   0.134E+01 -.331E+01 -.107E+01   -.119E+01 0.229E+01 0.105E+01   0.316E+00 0.661E+00 -.194E+00   0.211E-06 0.350E-06 -.108E-05
   -.394E+01 -.113E+01 -.789E+01   0.366E+01 0.102E+01 0.790E+01   0.424E+00 -.956E+00 0.162E+01   0.400E-05 -.745E-06 0.881E-06
   -.151E+02 -.161E+02 0.126E+02   0.142E+02 0.146E+02 -.122E+02   0.220E+01 0.491E+01 0.353E-01   0.149E-05 0.955E-06 -.158E-05
   -.782E+01 0.326E+01 0.747E+00   0.686E+01 -.311E+01 -.364E+00   0.211E+01 -.173E+01 -.741E+00   -.117E-05 -.329E-06 -.178E-06
   -.673E+01 -.585E+01 0.107E+01   0.607E+01 0.529E+01 -.289E+00   0.206E+01 -.102E+00 -.116E+01   0.157E-05 0.152E-05 -.612E-06
   0.733E+01 -.692E+01 0.312E+01   -.670E+01 0.614E+01 -.290E+01   -.177E+01 0.788E+00 -.450E+00   -.118E-05 0.423E-06 -.766E-06
   0.340E+01 0.484E+01 0.142E+01   -.358E+01 -.521E+01 -.130E+01   0.643E+00 0.189E+00 -.664E-01   0.212E-05 0.177E-05 -.144E-06
   0.777E+01 -.343E+01 -.220E+01   -.728E+01 0.284E+01 0.250E+01   -.139E+01 -.204E+00 -.714E-01   -.114E-05 0.252E-05 0.131E-05
   -.488E+01 -.509E+00 -.408E+01   0.336E+01 0.368E+00 0.413E+01   0.260E+01 0.139E+01 0.120E+01   0.749E-06 -.841E-06 -.175E-05
   0.224E+01 -.841E+00 -.567E+01   -.244E+01 0.148E-01 0.462E+01   0.574E-01 0.881E+00 0.788E+00   0.160E-05 -.961E-06 0.328E-06
   -.879E+01 0.737E+01 -.273E+01   0.791E+01 -.728E+01 0.301E+01   0.336E+01 -.132E+01 0.671E+00   0.127E-05 0.417E-06 -.435E-08
   0.449E+01 0.290E+01 -.136E-01   -.366E+01 -.307E+01 0.491E+00   -.356E+00 -.870E-01 0.252E+00   -.420E-05 -.103E-05 -.423E-06
   0.626E+01 -.605E+01 0.512E+00   -.571E+01 0.550E+01 -.881E+00   -.732E+00 0.144E+01 -.625E+00   0.892E-07 -.530E-06 0.205E-05
   0.244E+01 0.745E+01 -.192E+01   -.249E+01 -.704E+01 0.184E+01   0.132E+00 -.215E+01 -.286E+00   0.238E-05 0.472E-06 -.119E-05
   -.194E+01 0.122E+02 -.952E+01   0.173E+01 -.115E+02 0.869E+01   -.704E+00 -.220E+01 0.359E+01   -.735E-06 -.442E-05 0.290E-05
   -.147E+01 0.961E+01 0.167E+01   0.131E+01 -.909E+01 -.224E+01   -.136E+00 -.155E+01 0.130E+01   -.154E-05 0.349E-06 0.308E-05
   0.126E+01 -.890E+01 -.100E+02   -.130E+01 0.777E+01 0.983E+01   0.124E+01 0.318E+01 0.198E+01   0.984E-06 0.783E-06 0.164E-06
   0.699E+01 -.521E+01 -.153E+02   -.654E+01 0.451E+01 0.145E+02   -.179E+01 0.102E+01 0.197E+01   0.703E-06 -.271E-06 0.108E-05
   0.382E+01 0.289E+01 0.547E+01   -.354E+01 -.350E+01 -.452E+01   -.379E+00 -.181E+01 -.255E+01   -.116E-05 0.558E-06 -.205E-05
   -.110E+02 0.892E+01 0.216E-01   0.992E+01 -.817E+01 0.109E+01   0.274E+01 -.191E+01 -.165E+01   0.185E-05 0.212E-05 0.499E-06
   -.106E+02 0.263E+00 0.315E+01   0.913E+01 0.176E+00 -.228E+01   0.413E+01 -.679E+00 -.292E+01   0.144E-05 -.643E-06 -.139E-05
   0.859E+01 0.567E+01 0.140E+01   -.800E+01 -.500E+01 -.996E+00   -.482E+00 -.123E+01 -.501E-01   -.124E-05 -.105E-05 -.289E-05
 -----------------------------------------------------------------------------------------------
   0.366E-01 -.263E+00 0.945E+00   0.382E-13 -.338E-13 0.218E-12   -.366E-01 0.263E+00 -.945E+00   -.100E-05 0.705E-06 0.153E-05
 
 
 POSITION                                       TOTAL-FORCE (eV/Angst)
 -----------------------------------------------------------------------------------
     10.87407      0.16448     10.93546         0.966656     -3.257576      0.490478
      0.16286      2.77906      2.83647        -1.091546      0.485406     -1.357329
     10.88945      5.60393     16.45914        -0.382835     -1.287579     -0.906248
     10.96477      8.11470     19.00757         0.282437      0.423442      0.553619
      2.78102     10.93140     13.69485        -0.782905      1.179608     -0.565553
      2.71029      2.84255      5.46689         0.668713     -1.104252     -0.261636
     13.65083     16.27062      8.18696         0.451171      0.250227      0.417566
      2.65810      8.19930     10.79611         0.279356      0.273399      1.281608
      5.51549     10.92564     16.34818         1.626791      1.342868     -0.818971
     16.41193     13.75204      8.43407         1.991728      0.009049     -1.251003
      5.47924      5.54662     10.97012        -2.075749     -1.158280     -0.581500
      5.44129      8.19612     13.54583        -0.552017      0.707019     -0.008174
      8.37120     10.85957     19.16180        -0.161892      0.761369      0.144503
      8.21811      2.94574     10.87291         0.863092     -2.813692      1.499486
      8.41181      5.47597     13.76192        -3.472962     -1.050945     -1.043526
     19.07383     19.20418     16.54877        -0.271192     -0.739349     -2.261038
      2.83386     13.61667     11.03480        -1.433251     -0.131594     -1.303730
      2.72693      5.38146      2.77699        -0.257457      1.304869     -0.722976
      2.85848      8.19679      5.40087        -0.970875     -0.060168      0.217045
      2.82501     10.92723      8.30391        -2.312755      1.178310     -0.668935
      5.31018      2.94123      2.72682         0.452346     -0.870859     -1.177786
      5.43414      5.50850      5.63487         0.443689      0.267611     -1.255542
      5.57088      8.32478      8.04411        -1.931545     -0.914176      0.868575
      5.39387     10.92161     10.88869         0.191409      0.029364      3.014908
      8.11886      2.71172      5.50152         0.644064      0.213422     -0.335833
      8.19482      5.49149      8.14764         0.695669     -0.204762      1.364738
      8.21516      8.25518     10.94664        -0.865020      0.258278      0.380994
      8.34821     10.84167     13.79274        -1.724875      1.230842     -1.478645
     10.93081      2.71444      8.40736         0.515060      1.279229     -1.871025
     11.03189      5.55019     10.98214        -1.918643      0.284474      0.724866
     10.84474      8.29357     13.71007         1.518054     -0.680065     -1.805747
     10.84453     10.95354     16.37080         0.591678     -0.307704      0.711657
     16.22828      5.55066     10.89933         2.817992     -0.674943      0.832228
      5.44402      8.13257      2.80306         0.826504      2.142172     -1.375310
     16.31490     10.94456     16.42074         0.125516      1.365630     -0.044052
      5.46666     13.70946      8.29714         0.630853      0.150163      0.015016
      8.13113      5.48372      2.68110        -0.839256     -0.234057      1.628891
      8.09692      8.13935      5.40896         0.520551      1.723091     -0.511505
      8.21643     10.74507      8.28562        -0.383395      1.734887      0.006506
      8.07597     13.49814     10.82057         1.132071      1.504110      1.936625
     10.82305      5.49381      5.47521         0.834715      0.491098     -0.275521
     10.95108      8.15565      8.29361        -0.279134      1.475082     -0.623438
     10.99654     10.86562     10.85412        -0.162321      1.322793      0.618456
     10.84503     13.60887     13.68138         0.451133      0.527387     -0.244519
     13.56677      5.61213      8.42975        -0.396047     -1.790107     -3.500918
     13.55917      8.16876     10.95343         1.068401      0.017484      0.542527
     13.74102     10.96106     13.71405        -2.018076      0.370429      0.680131
     13.52810     13.56380     16.46478        -0.218713      1.967450      0.229142
     19.08961     19.19176     21.76285         0.414708     -0.426042      1.277097
      8.30993     10.99642      2.87795        -0.325498      1.131464     -1.597035
      8.19970     13.61288      5.53483        -0.654523     -0.794277     -0.037637
      8.26607     16.40741      8.18984        -0.292199     -0.033957     -0.422085
     11.02098     19.16766     13.67941        -2.240843     -0.526256     -0.876773
     10.97361     10.80078      5.32811        -1.292283      2.148782      2.048318
     11.03851     13.60951      8.40962        -0.053029      0.724829     -2.460828
     10.96889     16.36972     10.92309        -0.220712      0.594725      1.306546
     13.55995      8.38801      5.56496         0.308624     -0.842121     -1.546847
     13.78732     11.05369      8.18496        -0.501062     -0.476056     -0.962523
     13.77925     13.65124     10.95331        -1.375342     -1.572689      0.069948
     13.65170     16.39284     13.75405         0.293447      0.552600     -1.676227
     16.47157      8.20703      8.33577        -0.516086      0.852886     -0.692304
     16.33145     10.86815     10.98126        -0.568616      1.830465      1.073017
     16.42290     13.81119     13.61577        -1.267887     -0.312422      0.947529
     16.35228     16.31102     16.25049        -0.961559      1.798448      2.493398
      1.24964      1.36698      1.33706         2.151168      0.571741      1.150966
      1.37973      4.23505      4.12372        -0.587366     -0.364274      1.410448
      1.43168      6.76152      6.79002         0.897451      0.561216      0.146709
      1.44160      9.52099      9.40192        -1.837147      0.432380      0.859351
      4.21742      1.37826      4.02668        -1.341301      0.506937      0.863174
      4.24232      4.00792      6.85068        -1.358005      0.118343      0.743527
      4.03201      6.80878      9.62867         0.913120      0.010411     -1.926944
      3.92032      9.56704     12.29349         1.122755     -0.501592     -0.991201
      6.98366      1.28928      6.93707        -1.421659      0.440073      0.119908
      6.91150      4.27111      9.76903        -1.086907      0.470972     -2.665106
      6.66608      6.86024     12.19660         3.389467      0.642478      1.697794
      6.79270      9.57815     14.85940         0.227380     -0.744422      1.760447
      9.65614      1.34032      9.60520        -2.557792      1.400645     -0.425967
      9.59495      4.17213     12.27912         1.094751     -0.469315      0.661458
      9.66527      6.87318     14.85441        -0.947455      0.499265      3.561998
      9.61211      9.54436     17.72729         0.067612     -0.278933      0.377140
      3.96454      4.26924      1.27176         0.788885     -1.348120      0.558769
      4.18223      6.71945      3.93459        -0.658245      0.034378      2.533060
      4.00451      9.74643      6.92050         1.510315     -2.351171     -2.075810
      4.16992     12.15777      9.57348        -0.535599      2.949213      0.019164
      6.65331      4.06616      4.16814         1.385170      1.016960      0.326089
      6.92106      6.85996      6.86878        -0.889312      0.038386     -0.381935
      6.58918      9.56710      9.63063         2.989469     -0.836158     -0.407568
      6.77403     12.39659     12.32471        -0.214840     -1.152819      0.675079
      9.57667      4.11023      6.84340        -0.272527     -0.952680      0.375808
      9.57695      6.86375      9.63591        -0.263941     -0.277878     -0.285100
      9.66340      9.67841     12.37364        -0.678522     -0.741768     -1.667021
      9.54376     12.25339     15.05366        -0.391733      1.427296      0.669252
     12.22529      4.27886      9.64688         1.233067     -2.701267      0.011065
     12.33252      6.79804     12.36824        -0.373891      1.079904      0.841743
     12.11089      9.49622     15.08063         2.661129      0.942840      0.428094
     12.15651     12.23819     17.82979         0.894108      0.116818      0.663854
      6.81454      6.84473      1.41642        -0.616414      0.598625     -1.550175
      6.77173      9.76890      4.02791        -0.271368     -1.924167      1.073239
      6.79562     12.25620      6.95378         0.433383     -0.385333     -0.244816
      6.99072     15.10193      9.69271        -1.998112      0.403379     -1.016529
      9.46414      6.84545      4.03952         0.737049      0.256937      0.162717
      9.54781      9.57222      6.76054         0.159391     -1.290064      0.378628
      9.60695     12.40486      9.59342        -0.579624     -2.773629     -0.101402
      9.54097     15.14399     12.48685         0.363246     -1.738387     -2.500998
     12.27582      6.89473      6.91186         0.018785     -0.424294     -0.617329
     12.43749      9.59025      9.57303        -0.627836     -0.013782     -1.152311
     12.28119     12.30474     12.31317         0.471766     -0.354749     -0.205735
     12.17259     15.10678     14.93752         0.137799     -1.068665      1.634331
     14.92476      6.75671      9.60482         1.273829      3.364260      0.366514
     14.88825      9.59195     12.34521         1.150022     -1.575104     -0.357296
     14.93325     12.44167     15.07116         1.405465     -0.662814     -0.385199
     15.03492     15.05703     17.85894        -1.133221      0.002596     -0.229628
      9.51683      9.60052      1.36021         0.469877     -0.188705      0.052771
      9.72634     12.43505      4.16055        -0.905476     -0.793683      0.223534
      9.55435     14.90987      6.80869         1.077890      1.247809      1.253309
      9.62174     17.77604      9.55916        -0.144612      0.054545     -0.259581
     12.17643      9.69725      3.90924         2.481214     -1.227000      0.957764
     12.25101     12.30639      6.75341         0.472922     -0.256002      0.729527
     12.38679     14.94760      9.72571        -0.184343      0.899554     -0.994071
     12.33537     17.90578     12.31206         0.082456     -1.744351     -0.371475
     15.12454      9.71215      6.65286        -0.915086     -1.537852      2.754173
     15.09453     12.35850      9.57224        -0.304662     -1.035450      0.732135
     14.96643     14.99100     12.19920         1.196318      2.060274      1.806580
     15.12000     17.79412     14.93700        -1.343046      0.324995      1.207779
     17.86574      9.88195      9.73536        -0.100126     -2.420768     -1.600516
     17.65654     12.43906     12.32927         1.672161     -1.173491     -0.538282
     17.66648     14.94395     15.21874         2.669968     -0.240031     -2.042352
     17.69846     17.75497     17.76485         0.106451     -0.565339      0.353748
 -----------------------------------------------------------------------------------
    total drift:                               -0.000011      0.000009      0.000002


--------------------------------------------------------------------------------------------------------



  FREE ENERGIE OF THE ION-ELECTRON SYSTEM (eV)
  ---------------------------------------------------
  free  energy   TOTEN  =      -677.45155591 eV

  energy  without entropy=     -677.45155591  energy(sigma->0) =     -677.45155591
 


--------------------------------------------------------------------------------------------------------


    POTLOK:  cpu time    0.9955: real time    0.9958


--------------------------------------------------------------------------------------------------------


     LOOP+:  cpu time 1632.0959: real time 1632.9044
    4ORBIT:  cpu time    0.0000: real time    0.0000

 total amount of memory used by VASP MPI-rank0   221701. kBytes
=======================================================================

   base      :      30000. kBytes
   nonl-proj :      10690. kBytes
   fftplans  :      66746. kBytes
   grid      :      26864. kBytes
   one-center:         24. kBytes
   wavefun   :      87377. kBytes
 
  
  
 General timing and accounting informations for this job:
 ========================================================
  
                  Total CPU time used (sec):     1656.023
                            User time (sec):     1654.943
                          System time (sec):        1.080
                         Elapsed time (sec):     1657.850
  
                   Maximum memory used (kb):      338736.
                   Average memory used (kb):           0.
  
                          Minor page faults:       184745
                          Major page faults:            0
                 Voluntary context switches:         1336
