<?xml version="1.0" encoding="ISO-8859-1"?>
<modeling>
 <generator>
  <i name="program" type="string">vasp </i>
  <i name="version" type="string">5.4.4.18Apr17-6-g9f103f2a35  </i>
  <i name="subversion" type="string">(build Nov 08 2017 09:05:29) complex            parallel </i>
  <i name="platform" type="string">Intel_17.33 </i>
  <i name="date" type="string">2020 07 18 </i>
  <i name="time" type="string">20:03:31 </i>
 </generator>
 <incar>
  <i type="string" name="SYSTEM">potpaw_PBE@./ARUN.APL1ZEROSTATE</i>
  <i type="string" name="PREC">accurate</i>
  <i type="string" name="ALGO">Normal</i>
  <i type="int" name="NSIM">     4</i>
  <i type="logical" name="ADDGRID"> T  </i>
  <i type="int" name="NELM">   120</i>
  <i type="int" name="NELMIN">     4</i>
  <i name="EDIFF">      0.00000001</i>
  <i type="int" name="NSW">     0</i>
  <i type="int" name="ISYM">     2</i>
  <i name="ENMAX">    500.00000000</i>
  <i type="logical" name="LREAL"> F  </i>
  <i type="logical" name="LPLANE"> T  </i>
  <i type="int" name="ISMEAR">     0</i>
  <i name="SIGMA">      0.01000000</i>
  <i type="logical" name="LWAVE"> F  </i>
  <i type="logical" name="LCHARG"> F  </i>
  <i type="logical" name="LELF"> F  </i>
  <i type="logical" name="LAECHG"> F  </i>
  <v type="int" name="KPOINT_BSE">    -1     0     0     0</v>
  <i type="int" name="NELM">   120</i>
 </incar>
 <structure name="primitive_cell" >
  <crystal>
   <varray name="basis" >
    <v>       0.00000000      10.93733369      10.93733369 </v>
    <v>      10.93733369       0.00000000      10.93733369 </v>
    <v>      10.93733369      10.93733369       0.00000000 </v>
   </varray>
   <i name="volume">   2616.76295363 </i>
   <varray name="rec_basis" >
    <v>      -0.04571498       0.04571498       0.04571498 </v>
    <v>       0.04571498      -0.04571498       0.04571498 </v>
    <v>       0.04571498       0.04571498      -0.04571498 </v>
   </varray>
  </crystal>
  <varray name="positions" >
   <v>       0.01032546      -0.01049645       0.00471271 </v>
   <v>       0.05894380      -0.18074099       0.06360145 </v>
   <v>       0.06648780       0.05575949       0.05849549 </v>
   <v>       0.06600748       0.05835610      -0.18823266 </v>
   <v>      -0.20084229       0.06045949       0.07134598 </v>
   <v>       0.00873146      -0.24004701       0.23945010 </v>
   <v>      -0.01026271      -0.23777427       0.00315236 </v>
   <v>      -0.00260857       0.01151954       0.24758021 </v>
   <v>       0.25602850      -0.26191850       0.01330038 </v>
   <v>       0.25437795       0.00875260      -0.24897591 </v>
   <v>       0.24926906       0.01006924       0.00482065 </v>
   <v>      -0.24999425       0.00922006       0.24907037 </v>
   <v>      -0.00044191      -0.00978181      -0.24485591 </v>
   <v>      -0.00134558       0.25346521       0.00080292 </v>
   <v>      -0.00222042       0.25292823      -0.24528078 </v>
   <v>      -0.25314029       0.24022867       0.00280167 </v>
   <v>      -0.26136039      -0.00077866       0.00328706 </v>
   <v>       0.08007311      -0.18996917      -0.17656674 </v>
   <v>       0.06537507       0.29204684      -0.17875626 </v>
   <v>      -0.18117760      -0.18864524       0.30011466 </v>
   <v>       0.31343607      -0.19075622       0.06802171 </v>
   <v>      -0.17986369       0.30385690       0.05457767 </v>
   <v>       0.07773627      -0.19572219       0.31347989 </v>
   <v>       0.31402807       0.06637094      -0.17709211 </v>
   <v>      -0.19718434       0.07248720       0.30876873 </v>
   <v>       0.32511556      -0.19785053      -0.18781281 </v>
   <v>      -0.18250289       0.30819432      -0.18037208 </v>
   <v>      -0.19269436      -0.18649986       0.06533486 </v>
   <v>      -0.19022978       0.06422297      -0.18450761 </v>
   <v>       0.23567334       0.25147541      -0.24815831 </v>
   <v>       0.25145262      -0.24735622       0.25600114 </v>
   <v>      -0.24952335       0.24507553       0.24808618 </v>
   <v>       0.25225358      -0.24823712      -0.25857904 </v>
   <v>      -0.24662620      -0.25659254       0.24810792 </v>
   <v>      -0.25375228       0.25244958      -0.24956439 </v>
   <v>       0.05680945      -0.42255340       0.06106951 </v>
   <v>       0.32588546      -0.43270331       0.06462152 </v>
   <v>       0.06294752      -0.43725617       0.31285064 </v>
   <v>      -0.42113751       0.05387857       0.31225356 </v>
   <v>       0.07206804       0.04420921       0.31826852 </v>
   <v>       0.32115130       0.04712061      -0.42798133 </v>
   <v>       0.31904686       0.05798447       0.06816378 </v>
   <v>       0.05428687       0.31387189       0.07172701 </v>
   <v>       0.06495339       0.30438004      -0.43907381 </v>
   <v>       0.06613137       0.06337143      -0.44031838 </v>
   <v>      -0.43288605       0.31323457       0.05541237 </v>
   <v>      -0.44594073       0.06675201       0.06414605 </v>
   <v>       0.49491395      -0.23666219       0.00575390 </v>
   <v>      -0.24568094      -0.24894512       0.48581882 </v>
   <v>       0.26396654      -0.49283985      -0.00661771 </v>
   <v>       0.24830179       0.00559811       0.24372524 </v>
   <v>       0.02171968      -0.25098829       0.49139729 </v>
   <v>       0.24888609       0.49605203       0.25320030 </v>
   <v>      -0.49694973      -0.25816125      -0.24029342 </v>
   <v>       0.00431453       0.49868899       0.24361772 </v>
   <v>       0.00325623      -0.24111721      -0.25288773 </v>
   <v>      -0.23751449      -0.24943234      -0.00664767 </v>
   <v>       0.01635987       0.23295342       0.25255655 </v>
   <v>      -0.49951153       0.00556124      -0.25586340 </v>
   <v>      -0.24387682       0.00248378       0.49733238 </v>
   <v>       0.25596508       0.24387203       0.00392956 </v>
   <v>      -0.25481563       0.49331009       0.00418665 </v>
   <v>       0.01796680       0.49083756      -0.25105150 </v>
   <v>       0.24921047       0.24533048       0.49497020 </v>
   <v>      -0.25342060       0.00221735      -0.24645060 </v>
   <v>       0.25104855       0.00523484       0.49251183 </v>
   <v>       0.00154007       0.24359240       0.49983607 </v>
   <v>      -0.24592288      -0.49654497      -0.25528035 </v>
   <v>       0.49094175       0.00285996       0.25849082 </v>
   <v>       0.49363115       0.24184172       0.26750331 </v>
   <v>       0.31240546      -0.18157737       0.30913885 </v>
   <v>       0.31647161      -0.43546071       0.31108085 </v>
   <v>      -0.42360065       0.30412867       0.29831995 </v>
   <v>       0.49403057       0.25450251      -0.00640804 </v>
   <v>       0.31251676      -0.43732758      -0.18257999 </v>
   <v>       0.31126364       0.30620031      -0.18609070 </v>
   <v>      -0.18256807      -0.18459017      -0.44076783 </v>
   <v>      -0.18795106      -0.43569311       0.30827826 </v>
   <v>       0.31017370       0.30794246      -0.43498625 </v>
   <v>      -0.43011884      -0.19106015       0.29835822 </v>
   <v>      -0.42873606      -0.17981479      -0.20493926 </v>
   <v>      -0.17954059       0.30638824       0.31296073 </v>
   <v>      -0.17302174       0.31469435      -0.44236425 </v>
   <v>      -0.19490779      -0.43940267      -0.17817662 </v>
   <v>      -0.18529679      -0.19046339      -0.19136730 </v>
   <v>       0.32224094      -0.19351854      -0.44524959 </v>
   <v>      -0.43832216       0.32754305      -0.19501960 </v>
   <v>       0.01013538      -0.01360964       0.49736097 </v>
   <v>      -0.49542134       0.49841854       0.00254827 </v>
   <v>       0.00667336       0.49392496       0.49562588 </v>
   <v>      -0.00531830      -0.49996861       0.00424929 </v>
   <v>      -0.49483102      -0.00382144       0.49549186 </v>
   <v>      -0.48919790      -0.00594311       0.00156483 </v>
   <v>       0.06568176      -0.18751385      -0.44791581 </v>
   <v>      -0.44857123      -0.19329019       0.07698555 </v>
   <v>      -0.44391380       0.06643164      -0.19287753 </v>
   <v>       0.06997902      -0.43802776      -0.43959426 </v>
   <v>      -0.44119024      -0.44343709      -0.18818313 </v>
   <v>      -0.43355638      -0.45130911       0.06078823 </v>
   <v>      -0.43247740       0.06826160      -0.44693827 </v>
   <v>       0.05670813      -0.44843722      -0.16872701 </v>
   <v>      -0.42492448      -0.19711984      -0.43753407 </v>
   <v>      -0.19336588      -0.44803972       0.06909619 </v>
   <v>      -0.18609397       0.07229790      -0.43313699 </v>
   <v>      -0.18299522      -0.45126756      -0.43579286 </v>
   <v>       0.25134939      -0.49306498       0.49432147 </v>
   <v>       0.49487872      -0.49341782      -0.24674617 </v>
   <v>       0.25431347      -0.25284176       0.49255577 </v>
   <v>      -0.25547645      -0.48345406       0.24673017 </v>
   <v>       0.24920710       0.49914312      -0.23856885 </v>
   <v>      -0.25746354       0.24678746       0.49159798 </v>
   <v>      -0.49774516       0.49859568       0.25251631 </v>
   <v>       0.49985193      -0.24597649      -0.49768239 </v>
   <v>      -0.24820706       0.49909520       0.49246568 </v>
   <v>      -0.48987097      -0.25661776       0.24815159 </v>
   <v>       0.30246336       0.32389404       0.06398094 </v>
   <v>       0.49437358       0.26318025       0.48804808 </v>
   <v>       0.29585852       0.06388072       0.31850076 </v>
   <v>       0.31121305       0.31679970       0.31599273 </v>
   <v>      -0.49802116       0.26691198      -0.25766173 </v>
   <v>       0.07227487       0.30881786       0.29949425 </v>
   <v>      -0.25899523      -0.25522302      -0.24968846 </v>
   <v>       0.26099736       0.25419814       0.24264475 </v>
   <v>       0.30746958      -0.43220794      -0.43063323 </v>
   <v>      -0.43365308      -0.43502505       0.31854944 </v>
   <v>      -0.43602708      -0.43818045      -0.43895087 </v>
   <v>      -0.43353083       0.31065709      -0.43229359 </v>
   <v>       0.49021043      -0.49781887      -0.49676767 </v>
  </varray>
 </structure>
 <varray name="primitive_index" >
  <v type="int" >        1 </v>
  <v type="int" >       77 </v>
  <v type="int" >       65 </v>
  <v type="int" >      113 </v>
  <v type="int" >       68 </v>
  <v type="int" >       29 </v>
  <v type="int" >       13 </v>
  <v type="int" >       17 </v>
  <v type="int" >       14 </v>
  <v type="int" >       50 </v>
  <v type="int" >        2 </v>
  <v type="int" >       20 </v>
  <v type="int" >       49 </v>
  <v type="int" >        5 </v>
  <v type="int" >       53 </v>
  <v type="int" >        8 </v>
  <v type="int" >        4 </v>
  <v type="int" >      125 </v>
  <v type="int" >      117 </v>
  <v type="int" >       96 </v>
  <v type="int" >       78 </v>
  <v type="int" >       72 </v>
  <v type="int" >       93 </v>
  <v type="int" >      114 </v>
  <v type="int" >       84 </v>
  <v type="int" >      126 </v>
  <v type="int" >      120 </v>
  <v type="int" >       80 </v>
  <v type="int" >      116 </v>
  <v type="int" >       54 </v>
  <v type="int" >       30 </v>
  <v type="int" >       24 </v>
  <v type="int" >       62 </v>
  <v type="int" >       32 </v>
  <v type="int" >       56 </v>
  <v type="int" >       73 </v>
  <v type="int" >       74 </v>
  <v type="int" >       89 </v>
  <v type="int" >       83 </v>
  <v type="int" >       81 </v>
  <v type="int" >       98 </v>
  <v type="int" >       66 </v>
  <v type="int" >       69 </v>
  <v type="int" >      101 </v>
  <v type="int" >       97 </v>
  <v type="int" >       71 </v>
  <v type="int" >       67 </v>
  <v type="int" >       15 </v>
  <v type="int" >       48 </v>
  <v type="int" >       10 </v>
  <v type="int" >       18 </v>
  <v type="int" >       45 </v>
  <v type="int" >       26 </v>
  <v type="int" >       63 </v>
  <v type="int" >       25 </v>
  <v type="int" >       61 </v>
  <v type="int" >       16 </v>
  <v type="int" >       21 </v>
  <v type="int" >       51 </v>
  <v type="int" >       36 </v>
  <v type="int" >        6 </v>
  <v type="int" >       12 </v>
  <v type="int" >       57 </v>
  <v type="int" >       38 </v>
  <v type="int" >       52 </v>
  <v type="int" >       34 </v>
  <v type="int" >       37 </v>
  <v type="int" >       60 </v>
  <v type="int" >       19 </v>
  <v type="int" >       23 </v>
  <v type="int" >       94 </v>
  <v type="int" >       90 </v>
  <v type="int" >       87 </v>
  <v type="int" >        7 </v>
  <v type="int" >      122 </v>
  <v type="int" >      118 </v>
  <v type="int" >      112 </v>
  <v type="int" >       92 </v>
  <v type="int" >      102 </v>
  <v type="int" >       95 </v>
  <v type="int" >      127 </v>
  <v type="int" >       88 </v>
  <v type="int" >      104 </v>
  <v type="int" >      124 </v>
  <v type="int" >      128 </v>
  <v type="int" >      110 </v>
  <v type="int" >      119 </v>
  <v type="int" >       33 </v>
  <v type="int" >       11 </v>
  <v type="int" >       41 </v>
  <v type="int" >        9 </v>
  <v type="int" >       35 </v>
  <v type="int" >        3 </v>
  <v type="int" >      109 </v>
  <v type="int" >       79 </v>
  <v type="int" >      115 </v>
  <v type="int" >      105 </v>
  <v type="int" >      123 </v>
  <v type="int" >       75 </v>
  <v type="int" >       99 </v>
  <v type="int" >      121 </v>
  <v type="int" >      111 </v>
  <v type="int" >       76 </v>
  <v type="int" >      100 </v>
  <v type="int" >      108 </v>
  <v type="int" >       42 </v>
  <v type="int" >       59 </v>
  <v type="int" >       46 </v>
  <v type="int" >       28 </v>
  <v type="int" >       58 </v>
  <v type="int" >       40 </v>
  <v type="int" >       27 </v>
  <v type="int" >       47 </v>
  <v type="int" >       44 </v>
  <v type="int" >       31 </v>
  <v type="int" >       70 </v>
  <v type="int" >       39 </v>
  <v type="int" >       82 </v>
  <v type="int" >       86 </v>
  <v type="int" >       55 </v>
  <v type="int" >       85 </v>
  <v type="int" >       64 </v>
  <v type="int" >       22 </v>
  <v type="int" >      106 </v>
  <v type="int" >       91 </v>
  <v type="int" >      107 </v>
  <v type="int" >      103 </v>
  <v type="int" >       43 </v>
 </varray>
 <kpoints>
  <generation param="Gamma">
   <v type="int" name="divisions">       2        2        2 </v>
   <v name="usershift">      0.00000000       0.00000000       0.00000000 </v>
   <v name="genvec1">      0.50000000       0.00000000       0.00000000 </v>
   <v name="genvec2">      0.00000000       0.50000000       0.00000000 </v>
   <v name="genvec3">      0.00000000       0.00000000       0.50000000 </v>
   <v name="shift">      0.00000000       0.00000000       0.00000000 </v>
  </generation>
  <varray name="kpointlist" >
   <v>       0.00000000       0.00000000       0.00000000 </v>
   <v>       0.50000000       0.00000000       0.00000000 </v>
   <v>       0.00000000       0.50000000       0.00000000 </v>
   <v>       0.50000000       0.50000000       0.00000000 </v>
   <v>       0.00000000       0.00000000       0.50000000 </v>
   <v>       0.50000000       0.00000000       0.50000000 </v>
   <v>       0.00000000       0.50000000       0.50000000 </v>
   <v>       0.50000000       0.50000000       0.50000000 </v>
  </varray>
  <varray name="weights" >
   <v>       0.12500000 </v>
   <v>       0.12500000 </v>
   <v>       0.12500000 </v>
   <v>       0.12500000 </v>
   <v>       0.12500000 </v>
   <v>       0.12500000 </v>
   <v>       0.12500000 </v>
   <v>       0.12500000 </v>
  </varray>
 </kpoints>
 <parameters>
  <separator name="general" >
   <i type="string" name="SYSTEM">potpaw_PBE@./ARUN.APL1ZEROSTATE</i>
   <i type="logical" name="LCOMPAT"> F  </i>
  </separator>
  <separator name="electronic" >
   <i type="string" name="PREC">accura</i>
   <i name="ENMAX">    500.00000000</i>
   <i name="ENAUG">    322.06900000</i>
   <i name="EDIFF">      0.00000001</i>
   <i type="int" name="IALGO">    38</i>
   <i type="int" name="IWAVPR">    10</i>
   <i type="int" name="NBANDS">   322</i>
   <i name="NELECT">    512.00000000</i>
   <i type="int" name="TURBO">     0</i>
   <i type="int" name="IRESTART">     0</i>
   <i type="int" name="NREBOOT">     0</i>
   <i type="int" name="NMIN">     0</i>
   <i name="EREF">      0.00000000</i>
   <separator name="electronic smearing" >
    <i type="int" name="ISMEAR">     0</i>
    <i name="SIGMA">      0.01000000</i>
    <i name="KSPACING">      0.50000000</i>
    <i type="logical" name="KGAMMA"> T  </i>
   </separator>
   <separator name="electronic projectors" >
    <i type="logical" name="LREAL"> F  </i>
    <v name="ROPT">      0.00000000</v>
    <i type="int" name="LMAXPAW">  -100</i>
    <i type="int" name="LMAXMIX">     2</i>
    <i type="logical" name="NLSPLINE"> F  </i>
   </separator>
   <separator name="electronic startup" >
    <i type="int" name="ISTART">     0</i>
    <i type="int" name="ICHARG">     2</i>
    <i type="int" name="INIWAV">     1</i>
   </separator>
   <separator name="electronic spin" >
    <i type="int" name="ISPIN">     1</i>
    <i type="logical" name="LNONCOLLINEAR"> F  </i>
    <v name="MAGMOM">      1.00000000      1.00000000      1.00000000      1.00000000      1.00000000      1.00000000      1.00000000      1.00000000      1.00000000      1.00000000      1.00000000      1.00000000      1.00000000      1.00000000      1.00000000      1.00000000      1.00000000      1.00000000      1.00000000      1.00000000
      1.00000000      1.00000000      1.00000000      1.00000000      1.00000000      1.00000000      1.00000000      1.00000000      1.00000000      1.00000000      1.00000000      1.00000000      1.00000000      1.00000000      1.00000000      1.00000000      1.00000000      1.00000000      1.00000000      1.00000000
      1.00000000      1.00000000      1.00000000      1.00000000      1.00000000      1.00000000      1.00000000      1.00000000      1.00000000      1.00000000      1.00000000      1.00000000      1.00000000      1.00000000      1.00000000      1.00000000      1.00000000      1.00000000      1.00000000      1.00000000
      1.00000000      1.00000000      1.00000000      1.00000000      1.00000000      1.00000000      1.00000000      1.00000000      1.00000000      1.00000000      1.00000000      1.00000000      1.00000000      1.00000000      1.00000000      1.00000000      1.00000000      1.00000000      1.00000000      1.00000000
      1.00000000      1.00000000      1.00000000      1.00000000      1.00000000      1.00000000      1.00000000      1.00000000      1.00000000      1.00000000      1.00000000      1.00000000      1.00000000      1.00000000      1.00000000      1.00000000      1.00000000      1.00000000      1.00000000      1.00000000
      1.00000000      1.00000000      1.00000000      1.00000000      1.00000000      1.00000000      1.00000000      1.00000000      1.00000000      1.00000000      1.00000000      1.00000000      1.00000000      1.00000000      1.00000000      1.00000000      1.00000000      1.00000000      1.00000000      1.00000000
      1.00000000      1.00000000      1.00000000      1.00000000      1.00000000      1.00000000      1.00000000      1.00000000</v>
    <i name="NUPDOWN">     -1.00000000</i>
    <i type="logical" name="LSORBIT"> F  </i>
    <v name="SAXIS">      0.00000000      0.00000000      1.00000000</v>
    <i type="logical" name="LSPIRAL"> F  </i>
    <v name="QSPIRAL">      0.00000000      0.00000000      0.00000000</v>
    <i type="logical" name="LZEROZ"> F  </i>
   </separator>
   <separator name="electronic exchange-correlation" >
    <i type="logical" name="LASPH"> F  </i>
    <i type="logical" name="LMETAGGA"> F  </i>
   </separator>
   <separator name="electronic convergence" >
    <i type="int" name="NELM">   120</i>
    <i type="int" name="NELMDL">    -5</i>
    <i type="int" name="NELMIN">     4</i>
    <i name="ENINI">    500.00000000</i>
    <separator name="electronic convergence detail" >
     <i type="logical" name="LDIAG"> T  </i>
     <i type="logical" name="LSUBROT"> F  </i>
     <i name="WEIMIN">      0.00000000</i>
     <i name="EBREAK">      0.00000000</i>
     <i name="DEPER">      0.30000000</i>
     <i type="int" name="NRMM">     4</i>
     <i name="TIME">      0.40000000</i>
    </separator>
   </separator>
   <separator name="electronic mixer" >
    <i name="AMIX">      0.40000000</i>
    <i name="BMIX">      1.00000000</i>
    <i name="AMIN">      0.10000000</i>
    <i name="AMIX_MAG">      1.60000000</i>
    <i name="BMIX_MAG">      1.00000000</i>
    <separator name="electronic mixer details" >
     <i type="int" name="IMIX">     4</i>
     <i type="logical" name="MIXFIRST"> F  </i>
     <i type="int" name="MAXMIX">   -45</i>
     <i name="WC">    100.00000000</i>
     <i type="int" name="INIMIX">     1</i>
     <i type="int" name="MIXPRE">     1</i>
     <i type="int" name="MREMOVE">     5</i>
    </separator>
   </separator>
   <separator name="electronic dipolcorrection" >
    <i type="logical" name="LDIPOL"> F  </i>
    <i type="logical" name="LMONO"> F  </i>
    <i type="int" name="IDIPOL">     0</i>
    <i name="EPSILON">      1.00000000</i>
    <v name="DIPOL">   -100.00000000   -100.00000000   -100.00000000</v>
    <i name="EFIELD">      0.00000000</i>
   </separator>
  </separator>
  <separator name="grids" >
   <i type="int" name="NGX">   120</i>
   <i type="int" name="NGY">   120</i>
   <i type="int" name="NGZ">   120</i>
   <i type="int" name="NGXF">   240</i>
   <i type="int" name="NGYF">   240</i>
   <i type="int" name="NGZF">   240</i>
   <i type="logical" name="ADDGRID"> T  </i>
  </separator>
  <separator name="ionic" >
   <i type="int" name="NSW">     0</i>
   <i type="int" name="IBRION">    -1</i>
   <i type="int" name="MDALGO">     0</i>
   <i type="int" name="ISIF">     2</i>
   <i name="PSTRESS">      0.00000000</i>
   <i name="EDIFFG">      0.00000010</i>
   <i type="int" name="NFREE">     0</i>
   <i name="POTIM">      0.50000000</i>
   <i name="SMASS">     -3.00000000</i>
   <i name="SCALEE">      1.00000000</i>
  </separator>
  <separator name="ionic md" >
   <i name="TEBEG">      0.00010000</i>
   <i name="TEEND">      0.00010000</i>
   <i type="int" name="NBLOCK">     1</i>
   <i type="int" name="KBLOCK">     1</i>
   <i type="int" name="NPACO">   256</i>
   <i name="APACO">     16.00000000</i>
  </separator>
  <separator name="symmetry" >
   <i type="int" name="ISYM">     2</i>
   <i name="SYMPREC">      0.00001000</i>
  </separator>
  <separator name="dos" >
   <i type="int" name="LORBIT">     0</i>
   <v name="RWIGS">     -1.00000000</v>
   <i type="int" name="NEDOS">   301</i>
   <i name="EMIN">     10.00000000</i>
   <i name="EMAX">    -10.00000000</i>
   <i name="EFERMI">      0.00000000</i>
  </separator>
  <separator name="writing" >
   <i type="int" name="NWRITE">     2</i>
   <i type="logical" name="LWAVE"> F  </i>
   <i type="logical" name="LDOWNSAMPLE"> F  </i>
   <i type="logical" name="LCHARG"> F  </i>
   <i type="logical" name="LPARD"> F  </i>
   <i type="logical" name="LVTOT"> F  </i>
   <i type="logical" name="LVHAR"> F  </i>
   <i type="logical" name="LELF"> F  </i>
   <i type="logical" name="LOPTICS"> F  </i>
   <v name="STM">      0.00000000      0.00000000      0.00000000      0.00000000      0.00000000      0.00000000      0.00000000</v>
  </separator>
  <separator name="performance" >
   <i type="int" name="NPAR">     2</i>
   <i type="int" name="NSIM">     4</i>
   <i type="int" name="NBLK">    -1</i>
   <i type="logical" name="LPLANE"> T  </i>
   <i type="logical" name="LSCALAPACK"> T  </i>
   <i type="logical" name="LSCAAWARE"> F  </i>
   <i type="logical" name="LSCALU"> F  </i>
   <i type="logical" name="LASYNC"> F  </i>
   <i type="logical" name="LORBITALREAL"> F  </i>
  </separator>
  <separator name="miscellaneous" >
   <i type="int" name="IDIOT">     3</i>
   <i type="int" name="ISPECIAL">     0</i>
   <i type="logical" name="LMUSIC"> F  </i>
   <v name="POMASS">     28.08500000</v>
   <v name="DARWINR">      0.00000000</v>
   <v name="DARWINV">      1.00000000</v>
   <i type="logical" name="LCORR"> T  </i>
  </separator>
  <i type="logical" name="GGA_COMPAT"> T  </i>
  <i type="logical" name="LBERRY"> F  </i>
  <i type="int" name="ICORELEVEL">     0</i>
  <i type="logical" name="LDAU"> F  </i>
  <i type="int" name="I_CONSTRAINED_M">     0</i>
  <separator name="electronic exchange-correlation" >
   <i type="string" name="GGA">--</i>
   <i type="int" name="VOSKOWN">     0</i>
   <i type="logical" name="LHFCALC"> F  </i>
   <i type="string" name="PRECFOCK"></i>
   <i type="logical" name="LSYMGRAD"> F  </i>
   <i type="logical" name="LHFONE"> F  </i>
   <i type="logical" name="LRHFCALC"> F  </i>
   <i type="logical" name="LTHOMAS"> F  </i>
   <i type="logical" name="LMODELHF"> F  </i>
   <i name="ENCUT4O">     -1.00000000</i>
   <i type="int" name="EXXOEP">     0</i>
   <i type="int" name="FOURORBIT">     0</i>
   <i name="AEXX">      0.00000000</i>
   <i name="HFALPHA">      0.00000000</i>
   <i name="MCALPHA">      0.00000000</i>
   <i name="ALDAX">      1.00000000</i>
   <i name="AGGAX">      1.00000000</i>
   <i name="ALDAC">      1.00000000</i>
   <i name="AGGAC">      1.00000000</i>
   <i type="int" name="NKREDX">     1</i>
   <i type="int" name="NKREDY">     1</i>
   <i type="int" name="NKREDZ">     1</i>
   <i type="logical" name="SHIFTRED"> F  </i>
   <i type="logical" name="ODDONLY"> F  </i>
   <i type="logical" name="EVENONLY"> F  </i>
   <i type="int" name="LMAXFOCK">     0</i>
   <i type="int" name="NMAXFOCKAE">     0</i>
   <i type="logical" name="LFOCKAEDFT"> F  </i>
   <i name="HFSCREEN">      0.00000000</i>
   <i name="HFSCREENC">      0.00000000</i>
   <i type="int" name="NBANDSGWLOW">     0</i>
  </separator>
  <separator name="vdW DFT" >
   <i type="logical" name="LUSE_VDW"> F  </i>
   <i name="Zab_VDW">     -0.84910000</i>
   <i name="PARAM1">      0.12340000</i>
   <i name="PARAM2">      1.00000000</i>
   <i name="PARAM3">      0.00000000</i>
  </separator>
  <separator name="model GW" >
   <i type="int" name="MODEL_GW">     0</i>
   <i name="MODEL_EPS0">     12.26607635</i>
   <i name="MODEL_ALPHA">      1.00000000</i>
  </separator>
  <separator name="linear response parameters" >
   <i type="logical" name="LEPSILON"> F  </i>
   <i type="logical" name="LRPA"> F  </i>
   <i type="logical" name="LNABLA"> F  </i>
   <i type="logical" name="LVEL"> F  </i>
   <i type="int" name="KINTER">     0</i>
   <i name="CSHIFT">      0.10000000</i>
   <i name="OMEGAMAX">     -1.00000000</i>
   <i name="DEG_THRESHOLD">      0.00200000</i>
   <i name="RTIME">     -0.10000000</i>
   <i name="WPLASMAI">      0.00000000</i>
   <v name="DFIELD">      0.00000000      0.00000000      0.00000000</v>
   <v name="WPLASMA">      0.00000000      0.00000000      0.00000000      0.00000000      0.00000000      0.00000000      0.00000000      0.00000000      0.00000000</v>
  </separator>
  <separator name="orbital magnetization" >
   <i type="logical" name="NUCIND"> F  </i>
   <v name="MAGPOS">      0.00000000      0.00000000      0.00000000</v>
   <i type="logical" name="LNICSALL"> T  </i>
   <i type="logical" name="ORBITALMAG"> F  </i>
   <i type="logical" name="LMAGBLOCH"> F  </i>
   <i type="logical" name="LCHIMAG"> F  </i>
   <i type="logical" name="LGAUGE"> T  </i>
   <i type="int" name="MAGATOM">     0</i>
   <v name="MAGDIPOL">      0.00000000      0.00000000      0.00000000</v>
   <v name="AVECCONST">      0.00000000      0.00000000      0.00000000</v>
  </separator>
  <separator name="response functions" >
   <i type="logical" name="LADDER"> F  </i>
   <i type="logical" name="LRPAFORCE"> F  </i>
   <i type="logical" name="LFXC"> F  </i>
   <i type="logical" name="LHARTREE"> T  </i>
   <i type="int" name="IBSE">     0</i>
   <v type="int" name="KPOINT">    -1     0     0     0</v>
   <i type="logical" name="LTCTE"> F  </i>
   <i type="logical" name="LTETE"> F  </i>
   <i type="logical" name="LTRIPLET"> F  </i>
   <i type="logical" name="LFXCEPS"> F  </i>
   <i type="logical" name="LFXHEG"> F  </i>
   <i type="int" name="NATURALO">     2</i>
   <i type="logical" name="L2ORDER"> F  </i>
   <i type="logical" name="LMP2LT"> F  </i>
   <i type="logical" name="LUSEW"> F  </i>
   <i name="ENCUTGW">     -2.00000000</i>
   <i name="ENCUTGWSOFT">     -2.00000000</i>
   <i name="ENCUTLF">     -1.00000000</i>
   <i type="int" name="LMAXMP2">    -1</i>
   <i name="SCISSOR">      0.00000000</i>
   <i type="int" name="NOMEGA">     0</i>
   <i type="int" name="NOMEGAR">     0</i>
   <i type="int" name="NBANDSGW">    -1</i>
   <i type="int" name="NBANDSO">    -1</i>
   <i type="int" name="NBANDSV">    -1</i>
   <i type="int" name="NELM">   120</i>
   <i type="int" name="NELMHF">     1</i>
   <i type="int" name="DIM">     3</i>
   <i type="int" name="ANTIRES">     0</i>
   <i name="OMEGAMAX">    -30.00000000</i>
   <i name="OMEGAMIN">    -30.00000000</i>
   <i name="OMEGATL">   -200.00000000</i>
   <i type="int" name="OMEGAGRID">   140</i>
   <i name="CSHIFT">     -0.10000000</i>
   <i type="logical" name="SELFENERGY"> F  </i>
   <i type="logical" name="LSPECTRAL"> F  </i>
   <i type="logical" name="LSPECTRALGW"> F  </i>
   <i type="logical" name="LSINGLES"> F  </i>
   <i type="logical" name="LFERMIGW"> F  </i>
   <i type="logical" name="ODDONLYGW"> F  </i>
   <i type="logical" name="EVENONLYGW"> F  </i>
   <i type="int" name="NKREDLFX">     1</i>
   <i type="int" name="NKREDLFY">     1</i>
   <i type="int" name="NKREDLFZ">     1</i>
   <i type="int" name="MAXMEM">  2800</i>
   <i type="int" name="TELESCOPE">     0</i>
   <i type="int" name="TAUPAR">     1</i>
   <i type="int" name="OMEGAPAR">    -1</i>
   <i name="LAMBDA">      1.00000000</i>
  </separator>
  <separator name="External order field" >
   <i name="OFIELD_KAPPA">      0.00000000</i>
   <v name="OFIELD_K">      0.00000000      0.00000000      0.00000000</v>
   <i name="OFIELD_Q6_NEAR">      0.00000000</i>
   <i name="OFIELD_Q6_FAR">      0.00000000</i>
   <i name="OFIELD_A">      0.00000000</i>
  </separator>
 </parameters>
 <atominfo>
  <atoms>     128 </atoms>
  <types>       1 </types>
  <array name="atoms" >
   <dimension dim="1">ion</dimension>
   <field type="string">element</field>
   <field type="int">atomtype</field>
   <set>
    <rc><c>Si</c><c>   1</c></rc>
    <rc><c>Si</c><c>   1</c></rc>
    <rc><c>Si</c><c>   1</c></rc>
    <rc><c>Si</c><c>   1</c></rc>
    <rc><c>Si</c><c>   1</c></rc>
    <rc><c>Si</c><c>   1</c></rc>
    <rc><c>Si</c><c>   1</c></rc>
    <rc><c>Si</c><c>   1</c></rc>
    <rc><c>Si</c><c>   1</c></rc>
    <rc><c>Si</c><c>   1</c></rc>
    <rc><c>Si</c><c>   1</c></rc>
    <rc><c>Si</c><c>   1</c></rc>
    <rc><c>Si</c><c>   1</c></rc>
    <rc><c>Si</c><c>   1</c></rc>
    <rc><c>Si</c><c>   1</c></rc>
    <rc><c>Si</c><c>   1</c></rc>
    <rc><c>Si</c><c>   1</c></rc>
    <rc><c>Si</c><c>   1</c></rc>
    <rc><c>Si</c><c>   1</c></rc>
    <rc><c>Si</c><c>   1</c></rc>
    <rc><c>Si</c><c>   1</c></rc>
    <rc><c>Si</c><c>   1</c></rc>
    <rc><c>Si</c><c>   1</c></rc>
    <rc><c>Si</c><c>   1</c></rc>
    <rc><c>Si</c><c>   1</c></rc>
    <rc><c>Si</c><c>   1</c></rc>
    <rc><c>Si</c><c>   1</c></rc>
    <rc><c>Si</c><c>   1</c></rc>
    <rc><c>Si</c><c>   1</c></rc>
    <rc><c>Si</c><c>   1</c></rc>
    <rc><c>Si</c><c>   1</c></rc>
    <rc><c>Si</c><c>   1</c></rc>
    <rc><c>Si</c><c>   1</c></rc>
    <rc><c>Si</c><c>   1</c></rc>
    <rc><c>Si</c><c>   1</c></rc>
    <rc><c>Si</c><c>   1</c></rc>
    <rc><c>Si</c><c>   1</c></rc>
    <rc><c>Si</c><c>   1</c></rc>
    <rc><c>Si</c><c>   1</c></rc>
    <rc><c>Si</c><c>   1</c></rc>
    <rc><c>Si</c><c>   1</c></rc>
    <rc><c>Si</c><c>   1</c></rc>
    <rc><c>Si</c><c>   1</c></rc>
    <rc><c>Si</c><c>   1</c></rc>
    <rc><c>Si</c><c>   1</c></rc>
    <rc><c>Si</c><c>   1</c></rc>
    <rc><c>Si</c><c>   1</c></rc>
    <rc><c>Si</c><c>   1</c></rc>
    <rc><c>Si</c><c>   1</c></rc>
    <rc><c>Si</c><c>   1</c></rc>
    <rc><c>Si</c><c>   1</c></rc>
    <rc><c>Si</c><c>   1</c></rc>
    <rc><c>Si</c><c>   1</c></rc>
    <rc><c>Si</c><c>   1</c></rc>
    <rc><c>Si</c><c>   1</c></rc>
    <rc><c>Si</c><c>   1</c></rc>
    <rc><c>Si</c><c>   1</c></rc>
    <rc><c>Si</c><c>   1</c></rc>
    <rc><c>Si</c><c>   1</c></rc>
    <rc><c>Si</c><c>   1</c></rc>
    <rc><c>Si</c><c>   1</c></rc>
    <rc><c>Si</c><c>   1</c></rc>
    <rc><c>Si</c><c>   1</c></rc>
    <rc><c>Si</c><c>   1</c></rc>
    <rc><c>Si</c><c>   1</c></rc>
    <rc><c>Si</c><c>   1</c></rc>
    <rc><c>Si</c><c>   1</c></rc>
    <rc><c>Si</c><c>   1</c></rc>
    <rc><c>Si</c><c>   1</c></rc>
    <rc><c>Si</c><c>   1</c></rc>
    <rc><c>Si</c><c>   1</c></rc>
    <rc><c>Si</c><c>   1</c></rc>
    <rc><c>Si</c><c>   1</c></rc>
    <rc><c>Si</c><c>   1</c></rc>
    <rc><c>Si</c><c>   1</c></rc>
    <rc><c>Si</c><c>   1</c></rc>
    <rc><c>Si</c><c>   1</c></rc>
    <rc><c>Si</c><c>   1</c></rc>
    <rc><c>Si</c><c>   1</c></rc>
    <rc><c>Si</c><c>   1</c></rc>
    <rc><c>Si</c><c>   1</c></rc>
    <rc><c>Si</c><c>   1</c></rc>
    <rc><c>Si</c><c>   1</c></rc>
    <rc><c>Si</c><c>   1</c></rc>
    <rc><c>Si</c><c>   1</c></rc>
    <rc><c>Si</c><c>   1</c></rc>
    <rc><c>Si</c><c>   1</c></rc>
    <rc><c>Si</c><c>   1</c></rc>
    <rc><c>Si</c><c>   1</c></rc>
    <rc><c>Si</c><c>   1</c></rc>
    <rc><c>Si</c><c>   1</c></rc>
    <rc><c>Si</c><c>   1</c></rc>
    <rc><c>Si</c><c>   1</c></rc>
    <rc><c>Si</c><c>   1</c></rc>
    <rc><c>Si</c><c>   1</c></rc>
    <rc><c>Si</c><c>   1</c></rc>
    <rc><c>Si</c><c>   1</c></rc>
    <rc><c>Si</c><c>   1</c></rc>
    <rc><c>Si</c><c>   1</c></rc>
    <rc><c>Si</c><c>   1</c></rc>
    <rc><c>Si</c><c>   1</c></rc>
    <rc><c>Si</c><c>   1</c></rc>
    <rc><c>Si</c><c>   1</c></rc>
    <rc><c>Si</c><c>   1</c></rc>
    <rc><c>Si</c><c>   1</c></rc>
    <rc><c>Si</c><c>   1</c></rc>
    <rc><c>Si</c><c>   1</c></rc>
    <rc><c>Si</c><c>   1</c></rc>
    <rc><c>Si</c><c>   1</c></rc>
    <rc><c>Si</c><c>   1</c></rc>
    <rc><c>Si</c><c>   1</c></rc>
    <rc><c>Si</c><c>   1</c></rc>
    <rc><c>Si</c><c>   1</c></rc>
    <rc><c>Si</c><c>   1</c></rc>
    <rc><c>Si</c><c>   1</c></rc>
    <rc><c>Si</c><c>   1</c></rc>
    <rc><c>Si</c><c>   1</c></rc>
    <rc><c>Si</c><c>   1</c></rc>
    <rc><c>Si</c><c>   1</c></rc>
    <rc><c>Si</c><c>   1</c></rc>
    <rc><c>Si</c><c>   1</c></rc>
    <rc><c>Si</c><c>   1</c></rc>
    <rc><c>Si</c><c>   1</c></rc>
    <rc><c>Si</c><c>   1</c></rc>
    <rc><c>Si</c><c>   1</c></rc>
    <rc><c>Si</c><c>   1</c></rc>
    <rc><c>Si</c><c>   1</c></rc>
    <rc><c>Si</c><c>   1</c></rc>
   </set>
  </array>
  <array name="atomtypes" >
   <dimension dim="1">type</dimension>
   <field type="int">atomspertype</field>
   <field type="string">element</field>
   <field>mass</field>
   <field>valence</field>
   <field type="string">pseudopotential</field>
   <set>
    <rc><c> 128</c><c>Si</c><c>     28.08500000</c><c>      4.00000000</c><c> PAW_PBE Si 05Jan2001                   </c></rc>
   </set>
  </array>
 </atominfo>
 <structure name="initialpos" >
  <crystal>
   <varray name="basis" >
    <v>       0.00000000      10.93733369      10.93733369 </v>
    <v>      10.93733369       0.00000000      10.93733369 </v>
    <v>      10.93733369      10.93733369       0.00000000 </v>
   </varray>
   <i name="volume">   2616.76295363 </i>
   <varray name="rec_basis" >
    <v>      -0.04571498       0.04571498       0.04571498 </v>
    <v>       0.04571498      -0.04571498       0.04571498 </v>
    <v>       0.04571498       0.04571498      -0.04571498 </v>
   </varray>
  </crystal>
  <varray name="positions" >
   <v>       0.01032546       0.98950355       0.00471271 </v>
   <v>       0.24926906       0.01006924       0.00482065 </v>
   <v>       0.51080210       0.99405689       0.00156483 </v>
   <v>       0.73863961       0.99922134       0.00328706 </v>
   <v>       0.99865442       0.25346521       0.00080292 </v>
   <v>       0.25596508       0.24387203       0.00392956 </v>
   <v>       0.49403057       0.25450251       0.99359196 </v>
   <v>       0.74685971       0.24022867       0.00280167 </v>
   <v>       0.99468170       0.50003139       0.00424929 </v>
   <v>       0.26396654       0.50716015       0.99338229 </v>
   <v>       0.50457866       0.49841854       0.00254827 </v>
   <v>       0.74518437       0.49331009       0.00418665 </v>
   <v>       0.98973729       0.76222573       0.00315236 </v>
   <v>       0.25602850       0.73808150       0.01330038 </v>
   <v>       0.49491395       0.76333781       0.00575390 </v>
   <v>       0.76248551       0.75056766       0.99335233 </v>
   <v>       0.99739143       0.01151954       0.24758021 </v>
   <v>       0.24830179       0.00559811       0.24372524 </v>
   <v>       0.49094175       0.00285996       0.25849082 </v>
   <v>       0.75000575       0.00922006       0.24907037 </v>
   <v>       0.01635987       0.23295342       0.25255655 </v>
   <v>       0.26099736       0.25419814       0.24264475 </v>
   <v>       0.49363115       0.24184172       0.26750331 </v>
   <v>       0.75047665       0.24507553       0.24808618 </v>
   <v>       0.00431453       0.49868899       0.24361772 </v>
   <v>       0.24888609       0.49605203       0.25320030 </v>
   <v>       0.50225484       0.49859568       0.25251631 </v>
   <v>       0.74452355       0.51654594       0.24673017 </v>
   <v>       0.00873146       0.75995299       0.23945010 </v>
   <v>       0.25145262       0.75264378       0.25600114 </v>
   <v>       0.51012903       0.74338224       0.24815159 </v>
   <v>       0.75337380       0.74340746       0.24810792 </v>
   <v>       0.01013538       0.98639036       0.49736097 </v>
   <v>       0.25104855       0.00523484       0.49251183 </v>
   <v>       0.50516898       0.99617856       0.49549186 </v>
   <v>       0.75612318       0.00248378       0.49733238 </v>
   <v>       0.00154007       0.24359240       0.49983607 </v>
   <v>       0.24921047       0.24533048       0.49497020 </v>
   <v>       0.49437358       0.26318025       0.48804808 </v>
   <v>       0.74253646       0.24678746       0.49159798 </v>
   <v>       0.00667336       0.49392496       0.49562588 </v>
   <v>       0.25134939       0.50693502       0.49432147 </v>
   <v>       0.49021043       0.50218113       0.50323233 </v>
   <v>       0.75179294       0.49909520       0.49246568 </v>
   <v>       0.02171968       0.74901171       0.49139729 </v>
   <v>       0.25431347       0.74715824       0.49255577 </v>
   <v>       0.49985193       0.75402351       0.50231761 </v>
   <v>       0.75431906       0.75105488       0.48581882 </v>
   <v>       0.99955809       0.99021819       0.75514409 </v>
   <v>       0.25437795       0.00875260       0.75102409 </v>
   <v>       0.50048847       0.00556124       0.74413660 </v>
   <v>       0.74657940       0.00221735       0.75354940 </v>
   <v>       0.99777958       0.25292823       0.75471922 </v>
   <v>       0.23567334       0.25147541       0.75184169 </v>
   <v>       0.50197884       0.26691198       0.74233827 </v>
   <v>       0.74624772       0.25244958       0.75043561 </v>
   <v>       0.01796680       0.49083756       0.74894850 </v>
   <v>       0.24920710       0.49914312       0.76143115 </v>
   <v>       0.49487872       0.50658218       0.75325383 </v>
   <v>       0.75407712       0.50345503       0.74471965 </v>
   <v>       0.00325623       0.75888279       0.74711227 </v>
   <v>       0.25225358       0.75176288       0.74142096 </v>
   <v>       0.50305027       0.74183875       0.75970658 </v>
   <v>       0.74100477       0.74477698       0.75031154 </v>
   <v>       0.06648780       0.05575949       0.05849549 </v>
   <v>       0.31904686       0.05798447       0.06816378 </v>
   <v>       0.55405927       0.06675201       0.06414605 </v>
   <v>       0.79915771       0.06045949       0.07134598 </v>
   <v>       0.05428687       0.31387189       0.07172701 </v>
   <v>       0.30246336       0.32389404       0.06398094 </v>
   <v>       0.56711395       0.31323457       0.05541237 </v>
   <v>       0.82013631       0.30385690       0.05457767 </v>
   <v>       0.05680945       0.57744660       0.06106951 </v>
   <v>       0.32588546       0.56729669       0.06462152 </v>
   <v>       0.56644362       0.54869089       0.06078823 </v>
   <v>       0.80663412       0.55196028       0.06909619 </v>
   <v>       0.05894380       0.81925901       0.06360145 </v>
   <v>       0.31343607       0.80924378       0.06802171 </v>
   <v>       0.55142877       0.80670981       0.07698555 </v>
   <v>       0.80730564       0.81350014       0.06533486 </v>
   <v>       0.07206804       0.04420921       0.31826852 </v>
   <v>       0.29585852       0.06388072       0.31850076 </v>
   <v>       0.57886249       0.05387857       0.31225356 </v>
   <v>       0.80281566       0.07248720       0.30876873 </v>
   <v>       0.07227487       0.30881786       0.29949425 </v>
   <v>       0.31121305       0.31679970       0.31599273 </v>
   <v>       0.57639935       0.30412867       0.29831995 </v>
   <v>       0.82045941       0.30638824       0.31296073 </v>
   <v>       0.06294752       0.56274383       0.31285064 </v>
   <v>       0.31647161       0.56453929       0.31108085 </v>
   <v>       0.56634692       0.56497495       0.31854944 </v>
   <v>       0.81204894       0.56430689       0.30827826 </v>
   <v>       0.07773627       0.80427781       0.31347989 </v>
   <v>       0.31240546       0.81842263       0.30913885 </v>
   <v>       0.56988116       0.80893985       0.29835822 </v>
   <v>       0.81882240       0.81135476       0.30011466 </v>
   <v>       0.06613137       0.06337143       0.55968162 </v>
   <v>       0.32115130       0.04712061       0.57201867 </v>
   <v>       0.56752260       0.06826160       0.55306173 </v>
   <v>       0.81390603       0.07229790       0.56686301 </v>
   <v>       0.06495339       0.30438004       0.56092619 </v>
   <v>       0.31017370       0.30794246       0.56501375 </v>
   <v>       0.56646917       0.31065709       0.56770641 </v>
   <v>       0.82697826       0.31469435       0.55763575 </v>
   <v>       0.06997902       0.56197224       0.56040574 </v>
   <v>       0.30746958       0.56779206       0.56936677 </v>
   <v>       0.56397292       0.56181955       0.56104913 </v>
   <v>       0.81700478       0.54873244       0.56420714 </v>
   <v>       0.06568176       0.81248615       0.55208419 </v>
   <v>       0.32224094       0.80648146       0.55475041 </v>
   <v>       0.57507552       0.80288016       0.56246593 </v>
   <v>       0.81743193       0.81540983       0.55923217 </v>
   <v>       0.06600748       0.05835610       0.81176734 </v>
   <v>       0.31402807       0.06637094       0.82290789 </v>
   <v>       0.55608620       0.06643164       0.80712247 </v>
   <v>       0.80977022       0.06422297       0.81549239 </v>
   <v>       0.06537507       0.29204684       0.82124374 </v>
   <v>       0.31126364       0.30620031       0.81390930 </v>
   <v>       0.56167784       0.32754305       0.80498040 </v>
   <v>       0.81749711       0.30819432       0.81962792 </v>
   <v>       0.05670813       0.55156278       0.83127299 </v>
   <v>       0.31251676       0.56267242       0.81742001 </v>
   <v>       0.55880976       0.55656291       0.81181687 </v>
   <v>       0.80509221       0.56059733       0.82182338 </v>
   <v>       0.08007311       0.81003083       0.82343326 </v>
   <v>       0.32511556       0.80214947       0.81218719 </v>
   <v>       0.57126394       0.82018521       0.79506074 </v>
   <v>       0.81470321       0.80953661       0.80863270 </v>
  </varray>
 </structure>
 <calculation>
  <scstep>
   <time name="dav">   69.41   69.44</time>
   <time name="total">   70.40   70.44</time>
   <energy>
    <i name="alphaZ">    210.77028614 </i>
    <i name="ewald"> -14462.38185488 </i>
    <i name="hartreedc">   -763.68251798 </i>
    <i name="XCdc">  -1195.30220760 </i>
    <i name="pawpsdc">   4221.13331941 </i>
    <i name="pawaedc">  -1969.18571412 </i>
    <i name="eentropy">     -0.00132707 </i>
    <i name="bandstr">   2150.74914973 </i>
    <i name="atom">  13192.48085998 </i>
    <i name="e_fr_energy">   1384.57999363 </i>
    <i name="e_wo_entrp">   1384.58132069 </i>
    <i name="e_0_energy">   1384.58065716 </i>
   </energy>
  </scstep>
  <scstep>
   <time name="dav">   78.83   78.86</time>
   <time name="total">   78.83   78.87</time>
   <energy>
    <i name="e_fr_energy">   -535.23576873 </i>
    <i name="e_wo_entrp">   -535.23576869 </i>
    <i name="e_0_energy">   -535.23576871 </i>
   </energy>
  </scstep>
  <scstep>
   <time name="dav">   80.84   80.87</time>
   <time name="total">   80.84   80.87</time>
   <energy>
    <i name="e_fr_energy">   -685.08712582 </i>
    <i name="e_wo_entrp">   -685.08712582 </i>
    <i name="e_0_energy">   -685.08712582 </i>
   </energy>
  </scstep>
  <scstep>
   <time name="dav">   79.62   79.65</time>
   <time name="total">   79.62   79.65</time>
   <energy>
    <i name="e_fr_energy">   -689.35580674 </i>
    <i name="e_wo_entrp">   -689.35580674 </i>
    <i name="e_0_energy">   -689.35580674 </i>
   </energy>
  </scstep>
  <scstep>
   <time name="dav">   81.13   81.17</time>
   <time name="total">   84.33   84.37</time>
   <energy>
    <i name="e_fr_energy">   -689.50561132 </i>
    <i name="e_wo_entrp">   -689.50561132 </i>
    <i name="e_0_energy">   -689.50561132 </i>
   </energy>
  </scstep>
  <scstep>
   <time name="dav">   76.51   76.53</time>
   <time name="total">   80.71   80.74</time>
   <energy>
    <i name="e_fr_energy">   -680.90092875 </i>
    <i name="e_wo_entrp">   -680.90092875 </i>
    <i name="e_0_energy">   -680.90092875 </i>
   </energy>
  </scstep>
  <scstep>
   <time name="dav">   76.94   76.99</time>
   <time name="total">   81.15   81.20</time>
   <energy>
    <i name="e_fr_energy">   -677.37254150 </i>
    <i name="e_wo_entrp">   -677.37254150 </i>
    <i name="e_0_energy">   -677.37254150 </i>
   </energy>
  </scstep>
  <scstep>
   <time name="dav">   75.73   75.77</time>
   <time name="total">   79.95   79.99</time>
   <energy>
    <i name="e_fr_energy">   -677.42102698 </i>
    <i name="e_wo_entrp">   -677.42102698 </i>
    <i name="e_0_energy">   -677.42102698 </i>
   </energy>
  </scstep>
  <scstep>
   <time name="dav">   78.69   78.72</time>
   <time name="total">   82.90   82.94</time>
   <energy>
    <i name="e_fr_energy">   -677.44730141 </i>
    <i name="e_wo_entrp">   -677.44730141 </i>
    <i name="e_0_energy">   -677.44730141 </i>
   </energy>
  </scstep>
  <scstep>
   <time name="dav">   78.17   78.22</time>
   <time name="total">   82.44   82.49</time>
   <energy>
    <i name="e_fr_energy">   -677.44966424 </i>
    <i name="e_wo_entrp">   -677.44966424 </i>
    <i name="e_0_energy">   -677.44966424 </i>
   </energy>
  </scstep>
  <scstep>
   <time name="dav">   74.91   74.95</time>
   <time name="total">   79.15   79.20</time>
   <energy>
    <i name="e_fr_energy">   -677.45139772 </i>
    <i name="e_wo_entrp">   -677.45139772 </i>
    <i name="e_0_energy">   -677.45139772 </i>
   </energy>
  </scstep>
  <scstep>
   <time name="dav">   79.07   79.10</time>
   <time name="total">   83.31   83.34</time>
   <energy>
    <i name="e_fr_energy">   -677.45151486 </i>
    <i name="e_wo_entrp">   -677.45151486 </i>
    <i name="e_0_energy">   -677.45151486 </i>
   </energy>
  </scstep>
  <scstep>
   <time name="dav">   75.55   75.59</time>
   <time name="total">   79.75   79.79</time>
   <energy>
    <i name="e_fr_energy">   -677.45154706 </i>
    <i name="e_wo_entrp">   -677.45154706 </i>
    <i name="e_0_energy">   -677.45154706 </i>
   </energy>
  </scstep>
  <scstep>
   <time name="dav">   79.11   79.15</time>
   <time name="total">   83.30   83.34</time>
   <energy>
    <i name="e_fr_energy">   -677.45155313 </i>
    <i name="e_wo_entrp">   -677.45155313 </i>
    <i name="e_0_energy">   -677.45155313 </i>
   </energy>
  </scstep>
  <scstep>
   <time name="dav">   81.41   81.45</time>
   <time name="total">   85.60   85.64</time>
   <energy>
    <i name="e_fr_energy">   -677.45155644 </i>
    <i name="e_wo_entrp">   -677.45155644 </i>
    <i name="e_0_energy">   -677.45155644 </i>
   </energy>
  </scstep>
  <scstep>
   <time name="dav">   77.28   77.32</time>
   <time name="total">   81.57   81.62</time>
   <energy>
    <i name="e_fr_energy">   -677.45155569 </i>
    <i name="e_wo_entrp">   -677.45155569 </i>
    <i name="e_0_energy">   -677.45155569 </i>
   </energy>
  </scstep>
  <scstep>
   <time name="dav">   55.97   56.00</time>
   <time name="total">   60.25   60.29</time>
   <energy>
    <i name="e_fr_energy">   -677.45155590 </i>
    <i name="e_wo_entrp">   -677.45155590 </i>
    <i name="e_0_energy">   -677.45155590 </i>
   </energy>
  </scstep>
  <scstep>
   <time name="dav">   51.43   51.46</time>
   <time name="total">   55.73   55.75</time>
   <energy>
    <i name="e_fr_energy">   -677.45155598 </i>
    <i name="e_wo_entrp">   -677.45155598 </i>
    <i name="e_0_energy">   -677.45155598 </i>
   </energy>
  </scstep>
  <scstep>
   <time name="dav">   50.48   50.50</time>
   <time name="total">   54.78   54.81</time>
   <energy>
    <i name="e_fr_energy">   -677.45155592 </i>
    <i name="e_wo_entrp">   -677.45155592 </i>
    <i name="e_0_energy">   -677.45155592 </i>
   </energy>
  </scstep>
  <scstep>
   <time name="dav">   49.84   49.86</time>
   <time name="total">   50.83   50.86</time>
   <energy>
    <i name="alphaZ">    210.77028614 </i>
    <i name="ewald"> -14462.38185488 </i>
    <i name="hartreedc">  -1008.62455233 </i>
    <i name="XCdc">  -1155.89742133 </i>
    <i name="pawpsdc">   4732.26470979 </i>
    <i name="pawaedc">  -2494.02398828 </i>
    <i name="eentropy">     -0.00000000 </i>
    <i name="bandstr">    307.96040498 </i>
    <i name="atom">  13192.48085998 </i>
    <i name="e_fr_energy">   -677.45155591 </i>
    <i name="e_wo_entrp">   -677.45155591 </i>
    <i name="e_0_energy">   -677.45155591 </i>
   </energy>
  </scstep>
  <structure>
   <crystal>
    <varray name="basis" >
     <v>       0.00000000      10.93733369      10.93733369 </v>
     <v>      10.93733369       0.00000000      10.93733369 </v>
     <v>      10.93733369      10.93733369       0.00000000 </v>
    </varray>
    <i name="volume">   2616.76295363 </i>
    <varray name="rec_basis" >
     <v>      -0.04571498       0.04571498       0.04571498 </v>
     <v>       0.04571498      -0.04571498       0.04571498 </v>
     <v>       0.04571498       0.04571498      -0.04571498 </v>
    </varray>
   </crystal>
   <varray name="positions" >
    <v>       0.01032546       0.98950355       0.00471271 </v>
    <v>       0.24926906       0.01006924       0.00482065 </v>
    <v>       0.51080210       0.99405689       0.00156483 </v>
    <v>       0.73863961       0.99922134       0.00328706 </v>
    <v>       0.99865442       0.25346521       0.00080292 </v>
    <v>       0.25596508       0.24387203       0.00392956 </v>
    <v>       0.49403057       0.25450251       0.99359196 </v>
    <v>       0.74685971       0.24022867       0.00280167 </v>
    <v>       0.99468170       0.50003139       0.00424929 </v>
    <v>       0.26396654       0.50716015       0.99338229 </v>
    <v>       0.50457866       0.49841854       0.00254827 </v>
    <v>       0.74518437       0.49331009       0.00418665 </v>
    <v>       0.98973729       0.76222573       0.00315236 </v>
    <v>       0.25602850       0.73808150       0.01330038 </v>
    <v>       0.49491395       0.76333781       0.00575390 </v>
    <v>       0.76248551       0.75056766       0.99335233 </v>
    <v>       0.99739143       0.01151954       0.24758021 </v>
    <v>       0.24830179       0.00559811       0.24372524 </v>
    <v>       0.49094175       0.00285996       0.25849082 </v>
    <v>       0.75000575       0.00922006       0.24907037 </v>
    <v>       0.01635987       0.23295342       0.25255655 </v>
    <v>       0.26099736       0.25419814       0.24264475 </v>
    <v>       0.49363115       0.24184172       0.26750331 </v>
    <v>       0.75047665       0.24507553       0.24808618 </v>
    <v>       0.00431453       0.49868899       0.24361772 </v>
    <v>       0.24888609       0.49605203       0.25320030 </v>
    <v>       0.50225484       0.49859568       0.25251631 </v>
    <v>       0.74452355       0.51654594       0.24673017 </v>
    <v>       0.00873146       0.75995299       0.23945010 </v>
    <v>       0.25145262       0.75264378       0.25600114 </v>
    <v>       0.51012903       0.74338224       0.24815159 </v>
    <v>       0.75337380       0.74340746       0.24810792 </v>
    <v>       0.01013538       0.98639036       0.49736097 </v>
    <v>       0.25104855       0.00523484       0.49251183 </v>
    <v>       0.50516898       0.99617856       0.49549186 </v>
    <v>       0.75612318       0.00248378       0.49733238 </v>
    <v>       0.00154007       0.24359240       0.49983607 </v>
    <v>       0.24921047       0.24533048       0.49497020 </v>
    <v>       0.49437358       0.26318025       0.48804808 </v>
    <v>       0.74253646       0.24678746       0.49159798 </v>
    <v>       0.00667336       0.49392496       0.49562588 </v>
    <v>       0.25134939       0.50693502       0.49432147 </v>
    <v>       0.49021043       0.50218113       0.50323233 </v>
    <v>       0.75179294       0.49909520       0.49246568 </v>
    <v>       0.02171968       0.74901171       0.49139729 </v>
    <v>       0.25431347       0.74715824       0.49255577 </v>
    <v>       0.49985193       0.75402351       0.50231761 </v>
    <v>       0.75431906       0.75105488       0.48581882 </v>
    <v>       0.99955809       0.99021819       0.75514409 </v>
    <v>       0.25437795       0.00875260       0.75102409 </v>
    <v>       0.50048847       0.00556124       0.74413660 </v>
    <v>       0.74657940       0.00221735       0.75354940 </v>
    <v>       0.99777958       0.25292823       0.75471922 </v>
    <v>       0.23567334       0.25147541       0.75184169 </v>
    <v>       0.50197884       0.26691198       0.74233827 </v>
    <v>       0.74624772       0.25244958       0.75043561 </v>
    <v>       0.01796680       0.49083756       0.74894850 </v>
    <v>       0.24920710       0.49914312       0.76143115 </v>
    <v>       0.49487872       0.50658218       0.75325383 </v>
    <v>       0.75407712       0.50345503       0.74471965 </v>
    <v>       0.00325623       0.75888279       0.74711227 </v>
    <v>       0.25225358       0.75176288       0.74142096 </v>
    <v>       0.50305027       0.74183875       0.75970658 </v>
    <v>       0.74100477       0.74477698       0.75031154 </v>
    <v>       0.06648780       0.05575949       0.05849549 </v>
    <v>       0.31904686       0.05798447       0.06816378 </v>
    <v>       0.55405927       0.06675201       0.06414605 </v>
    <v>       0.79915771       0.06045949       0.07134598 </v>
    <v>       0.05428687       0.31387189       0.07172701 </v>
    <v>       0.30246336       0.32389404       0.06398094 </v>
    <v>       0.56711395       0.31323457       0.05541237 </v>
    <v>       0.82013631       0.30385690       0.05457767 </v>
    <v>       0.05680945       0.57744660       0.06106951 </v>
    <v>       0.32588546       0.56729669       0.06462152 </v>
    <v>       0.56644362       0.54869089       0.06078823 </v>
    <v>       0.80663412       0.55196028       0.06909619 </v>
    <v>       0.05894380       0.81925901       0.06360145 </v>
    <v>       0.31343607       0.80924378       0.06802171 </v>
    <v>       0.55142877       0.80670981       0.07698555 </v>
    <v>       0.80730564       0.81350014       0.06533486 </v>
    <v>       0.07206804       0.04420921       0.31826852 </v>
    <v>       0.29585852       0.06388072       0.31850076 </v>
    <v>       0.57886249       0.05387857       0.31225356 </v>
    <v>       0.80281566       0.07248720       0.30876873 </v>
    <v>       0.07227487       0.30881786       0.29949425 </v>
    <v>       0.31121305       0.31679970       0.31599273 </v>
    <v>       0.57639935       0.30412867       0.29831995 </v>
    <v>       0.82045941       0.30638824       0.31296073 </v>
    <v>       0.06294752       0.56274383       0.31285064 </v>
    <v>       0.31647161       0.56453929       0.31108085 </v>
    <v>       0.56634692       0.56497495       0.31854944 </v>
    <v>       0.81204894       0.56430689       0.30827826 </v>
    <v>       0.07773627       0.80427781       0.31347989 </v>
    <v>       0.31240546       0.81842263       0.30913885 </v>
    <v>       0.56988116       0.80893985       0.29835822 </v>
    <v>       0.81882240       0.81135476       0.30011466 </v>
    <v>       0.06613137       0.06337143       0.55968162 </v>
    <v>       0.32115130       0.04712061       0.57201867 </v>
    <v>       0.56752260       0.06826160       0.55306173 </v>
    <v>       0.81390603       0.07229790       0.56686301 </v>
    <v>       0.06495339       0.30438004       0.56092619 </v>
    <v>       0.31017370       0.30794246       0.56501375 </v>
    <v>       0.56646917       0.31065709       0.56770641 </v>
    <v>       0.82697826       0.31469435       0.55763575 </v>
    <v>       0.06997902       0.56197224       0.56040574 </v>
    <v>       0.30746958       0.56779206       0.56936677 </v>
    <v>       0.56397292       0.56181955       0.56104913 </v>
    <v>       0.81700478       0.54873244       0.56420714 </v>
    <v>       0.06568176       0.81248615       0.55208419 </v>
    <v>       0.32224094       0.80648146       0.55475041 </v>
    <v>       0.57507552       0.80288016       0.56246593 </v>
    <v>       0.81743193       0.81540983       0.55923217 </v>
    <v>       0.06600748       0.05835610       0.81176734 </v>
    <v>       0.31402807       0.06637094       0.82290789 </v>
    <v>       0.55608620       0.06643164       0.80712247 </v>
    <v>       0.80977022       0.06422297       0.81549239 </v>
    <v>       0.06537507       0.29204684       0.82124374 </v>
    <v>       0.31126364       0.30620031       0.81390930 </v>
    <v>       0.56167784       0.32754305       0.80498040 </v>
    <v>       0.81749711       0.30819432       0.81962792 </v>
    <v>       0.05670813       0.55156278       0.83127299 </v>
    <v>       0.31251676       0.56267242       0.81742001 </v>
    <v>       0.55880976       0.55656291       0.81181687 </v>
    <v>       0.80509221       0.56059733       0.82182338 </v>
    <v>       0.08007311       0.81003083       0.82343326 </v>
    <v>       0.32511556       0.80214947       0.81218719 </v>
    <v>       0.57126394       0.82018521       0.79506074 </v>
    <v>       0.81470321       0.80953661       0.80863270 </v>
   </varray>
  </structure>
  <varray name="forces" >
   <v>       0.96665591      -3.25757609       0.49047762 </v>
   <v>      -1.09154563       0.48540630      -1.35732867 </v>
   <v>      -0.38283520      -1.28757941      -0.90624800 </v>
   <v>       0.28243696       0.42344227       0.55361919 </v>
   <v>      -0.78290545       1.17960785      -0.56555288 </v>
   <v>       0.66871262      -1.10425241      -0.26163592 </v>
   <v>       0.45117141       0.25022653       0.41756603 </v>
   <v>       0.27935586       0.27339895       1.28160825 </v>
   <v>       1.62679145       1.34286819      -0.81897119 </v>
   <v>       1.99172750       0.00904919      -1.25100343 </v>
   <v>      -2.07574869      -1.15828042      -0.58149966 </v>
   <v>      -0.55201724       0.70701947      -0.00817440 </v>
   <v>      -0.16189185       0.76136870       0.14450322 </v>
   <v>       0.86309219      -2.81369205       1.49948639 </v>
   <v>      -3.47296171      -1.05094538      -1.04352647 </v>
   <v>      -0.27119155      -0.73934889      -2.26103756 </v>
   <v>      -1.43325130      -0.13159402      -1.30373010 </v>
   <v>      -0.25745729       1.30486900      -0.72297591 </v>
   <v>      -0.97087486      -0.06016797       0.21704475 </v>
   <v>      -2.31275460       1.17831049      -0.66893522 </v>
   <v>       0.45234629      -0.87085949      -1.17778619 </v>
   <v>       0.44368906       0.26761096      -1.25554164 </v>
   <v>      -1.93154538      -0.91417554       0.86857499 </v>
   <v>       0.19140869       0.02936378       3.01490790 </v>
   <v>       0.64406448       0.21342180      -0.33583308 </v>
   <v>       0.69566885      -0.20476196       1.36473764 </v>
   <v>      -0.86502005       0.25827771       0.38099403 </v>
   <v>      -1.72487534       1.23084158      -1.47864494 </v>
   <v>       0.51505957       1.27922854      -1.87102550 </v>
   <v>      -1.91864331       0.28447375       0.72486592 </v>
   <v>       1.51805446      -0.68006515      -1.80574697 </v>
   <v>       0.59167825      -0.30770424       0.71165699 </v>
   <v>       2.81799178      -0.67494324       0.83222833 </v>
   <v>       0.82650388       2.14217217      -1.37530982 </v>
   <v>       0.12551617       1.36562987      -0.04405181 </v>
   <v>       0.63085306       0.15016287       0.01501564 </v>
   <v>      -0.83925589      -0.23405671       1.62889101 </v>
   <v>       0.52055055       1.72309050      -0.51150534 </v>
   <v>      -0.38339522       1.73488672       0.00650562 </v>
   <v>       1.13207086       1.50411032       1.93662544 </v>
   <v>       0.83471464       0.49109814      -0.27552093 </v>
   <v>      -0.27913351       1.47508198      -0.62343813 </v>
   <v>      -0.16232123       1.32279330       0.61845607 </v>
   <v>       0.45113285       0.52738688      -0.24451900 </v>
   <v>      -0.39604716      -1.79010719      -3.50091795 </v>
   <v>       1.06840146       0.01748389       0.54252715 </v>
   <v>      -2.01807563       0.37042897       0.68013098 </v>
   <v>      -0.21871277       1.96745041       0.22914201 </v>
   <v>       0.41470838      -0.42604244       1.27709700 </v>
   <v>      -0.32549769       1.13146367      -1.59703481 </v>
   <v>      -0.65452290      -0.79427744      -0.03763658 </v>
   <v>      -0.29219912      -0.03395722      -0.42208454 </v>
   <v>      -2.24084270      -0.52625620      -0.87677300 </v>
   <v>      -1.29228252       2.14878186       2.04831816 </v>
   <v>      -0.05302854       0.72482891      -2.46082780 </v>
   <v>      -0.22071188       0.59472487       1.30654626 </v>
   <v>       0.30862385      -0.84212060      -1.54684671 </v>
   <v>      -0.50106189      -0.47605576      -0.96252318 </v>
   <v>      -1.37534201      -1.57268850       0.06994750 </v>
   <v>       0.29344722       0.55260005      -1.67622693 </v>
   <v>      -0.51608559       0.85288599      -0.69230384 </v>
   <v>      -0.56861618       1.83046467       1.07301747 </v>
   <v>      -1.26788673      -0.31242192       0.94752899 </v>
   <v>      -0.96155932       1.79844750       2.49339792 </v>
   <v>       2.15116811       0.57174133       1.15096552 </v>
   <v>      -0.58736623      -0.36427400       1.41044802 </v>
   <v>       0.89745137       0.56121579       0.14670851 </v>
   <v>      -1.83714683       0.43237962       0.85935140 </v>
   <v>      -1.34130051       0.50693706       0.86317410 </v>
   <v>      -1.35800507       0.11834253       0.74352730 </v>
   <v>       0.91312002       0.01041072      -1.92694367 </v>
   <v>       1.12275464      -0.50159204      -0.99120103 </v>
   <v>      -1.42165865       0.44007333       0.11990794 </v>
   <v>      -1.08690717       0.47097166      -2.66510603 </v>
   <v>       3.38946679       0.64247768       1.69779444 </v>
   <v>       0.22738047      -0.74442232       1.76044726 </v>
   <v>      -2.55779160       1.40064538      -0.42596715 </v>
   <v>       1.09475066      -0.46931470       0.66145751 </v>
   <v>      -0.94745546       0.49926500       3.56199768 </v>
   <v>       0.06761156      -0.27893261       0.37714026 </v>
   <v>       0.78888468      -1.34811953       0.55876866 </v>
   <v>      -0.65824504       0.03437769       2.53306043 </v>
   <v>       1.51031479      -2.35117134      -2.07580972 </v>
   <v>      -0.53559929       2.94921342       0.01916385 </v>
   <v>       1.38516983       1.01696034       0.32608947 </v>
   <v>      -0.88931203       0.03838570      -0.38193513 </v>
   <v>       2.98946889      -0.83615754      -0.40756848 </v>
   <v>      -0.21483996      -1.15281919       0.67507851 </v>
   <v>      -0.27252665      -0.95268016       0.37580794 </v>
   <v>      -0.26394138      -0.27787839      -0.28509995 </v>
   <v>      -0.67852207      -0.74176771      -1.66702082 </v>
   <v>      -0.39173337       1.42729605       0.66925197 </v>
   <v>       1.23306719      -2.70126735       0.01106473 </v>
   <v>      -0.37389088       1.07990393       0.84174350 </v>
   <v>       2.66112923       0.94284042       0.42809414 </v>
   <v>       0.89410767       0.11681839       0.66385371 </v>
   <v>      -0.61641405       0.59862487      -1.55017489 </v>
   <v>      -0.27136834      -1.92416745       1.07323924 </v>
   <v>       0.43338263      -0.38533330      -0.24481585 </v>
   <v>      -1.99811179       0.40337864      -1.01652938 </v>
   <v>       0.73704896       0.25693738       0.16271733 </v>
   <v>       0.15939109      -1.29006361       0.37862821 </v>
   <v>      -0.57962365      -2.77362876      -0.10140164 </v>
   <v>       0.36324554      -1.73838734      -2.50099834 </v>
   <v>       0.01878539      -0.42429364      -0.61732915 </v>
   <v>      -0.62783601      -0.01378187      -1.15231146 </v>
   <v>       0.47176649      -0.35474860      -0.20573479 </v>
   <v>       0.13779855      -1.06866509       1.63433109 </v>
   <v>       1.27382880       3.36426020       0.36651428 </v>
   <v>       1.15002174      -1.57510377      -0.35729604 </v>
   <v>       1.40546543      -0.66281445      -0.38519899 </v>
   <v>      -1.13322079       0.00259551      -0.22962813 </v>
   <v>       0.46987664      -0.18870523       0.05277075 </v>
   <v>      -0.90547596      -0.79368336       0.22353402 </v>
   <v>       1.07789022       1.24780913       1.25330910 </v>
   <v>      -0.14461207       0.05454520      -0.25958053 </v>
   <v>       2.48121362      -1.22700035       0.95776375 </v>
   <v>       0.47292183      -0.25600240       0.72952694 </v>
   <v>      -0.18434297       0.89955353      -0.99407136 </v>
   <v>       0.08245570      -1.74435103      -0.37147491 </v>
   <v>      -0.91508551      -1.53785174       2.75417285 </v>
   <v>      -0.30466176      -1.03544997       0.73213493 </v>
   <v>       1.19631798       2.06027444       1.80658043 </v>
   <v>      -1.34304596       0.32499470       1.20777862 </v>
   <v>      -0.10012616      -2.42076835      -1.60051631 </v>
   <v>       1.67216123      -1.17349122      -0.53828182 </v>
   <v>       2.66996804      -0.24003083      -2.04235152 </v>
   <v>       0.10645112      -0.56533874       0.35374834 </v>
  </varray>
  <varray name="stress" >
   <v>      13.85482404       3.80620591      -6.47583600 </v>
   <v>       3.80620591      14.49950201       5.28903277 </v>
   <v>      -6.47583601       5.28903277      13.20457368 </v>
  </varray>
  <energy>
   <i name="e_fr_energy">   -677.45155591 </i>
   <i name="e_wo_entrp">   -677.45155591 </i>
   <i name="e_0_energy">     -0.00000000 </i>
  </energy>
  <time name="totalsc"> 1632.10 1632.90</time>
  <eigenvalues>
   <array>
    <dimension dim="1">band</dimension>
    <dimension dim="2">kpoint</dimension>
    <dimension dim="3">spin</dimension>
    <field>eigene</field>
    <field>occ</field>
    <set>
     <set comment="spin 1">
      <set comment="kpoint 1">
       <r>   -6.3229    1.0000 </r>
       <r>   -5.7701    1.0000 </r>
       <r>   -5.6695    1.0000 </r>
       <r>   -5.6501    1.0000 </r>
       <r>   -5.5546    1.0000 </r>
       <r>   -5.5231    1.0000 </r>
       <r>   -5.4878    1.0000 </r>
       <r>   -5.4627    1.0000 </r>
       <r>   -5.4362    1.0000 </r>
       <r>   -5.3394    1.0000 </r>
       <r>   -5.2270    1.0000 </r>
       <r>   -5.1885    1.0000 </r>
       <r>   -5.1584    1.0000 </r>
       <r>   -5.1433    1.0000 </r>
       <r>   -5.0664    1.0000 </r>
       <r>   -4.5745    1.0000 </r>
       <r>   -4.5391    1.0000 </r>
       <r>   -4.4561    1.0000 </r>
       <r>   -4.3945    1.0000 </r>
       <r>   -4.3785    1.0000 </r>
       <r>   -4.3535    1.0000 </r>
       <r>   -4.3196    1.0000 </r>
       <r>   -4.2714    1.0000 </r>
       <r>   -4.2290    1.0000 </r>
       <r>   -4.1807    1.0000 </r>
       <r>   -4.1573    1.0000 </r>
       <r>   -4.1212    1.0000 </r>
       <r>   -4.1009    1.0000 </r>
       <r>   -4.0534    1.0000 </r>
       <r>   -3.9424    1.0000 </r>
       <r>   -3.9252    1.0000 </r>
       <r>   -3.8447    1.0000 </r>
       <r>   -3.8247    1.0000 </r>
       <r>   -3.7946    1.0000 </r>
       <r>   -3.7668    1.0000 </r>
       <r>   -3.7382    1.0000 </r>
       <r>   -3.7181    1.0000 </r>
       <r>   -3.6969    1.0000 </r>
       <r>   -3.6526    1.0000 </r>
       <r>   -3.6307    1.0000 </r>
       <r>   -3.6281    1.0000 </r>
       <r>   -3.6049    1.0000 </r>
       <r>   -3.5613    1.0000 </r>
       <r>   -3.5397    1.0000 </r>
       <r>   -3.5218    1.0000 </r>
       <r>   -3.5084    1.0000 </r>
       <r>   -3.4783    1.0000 </r>
       <r>   -3.4595    1.0000 </r>
       <r>   -3.4167    1.0000 </r>
       <r>   -3.3633    1.0000 </r>
       <r>   -3.3531    1.0000 </r>
       <r>   -3.3327    1.0000 </r>
       <r>   -3.2949    1.0000 </r>
       <r>   -3.2427    1.0000 </r>
       <r>   -3.1580    1.0000 </r>
       <r>   -2.3604    1.0000 </r>
       <r>   -2.3342    1.0000 </r>
       <r>   -2.2854    1.0000 </r>
       <r>   -2.2459    1.0000 </r>
       <r>   -2.2275    1.0000 </r>
       <r>   -2.2091    1.0000 </r>
       <r>   -2.1090    1.0000 </r>
       <r>   -2.1054    1.0000 </r>
       <r>   -2.0890    1.0000 </r>
       <r>   -2.0650    1.0000 </r>
       <r>   -2.0288    1.0000 </r>
       <r>   -1.9804    1.0000 </r>
       <r>   -1.9264    1.0000 </r>
       <r>   -1.9165    1.0000 </r>
       <r>   -1.8580    1.0000 </r>
       <r>   -1.8337    1.0000 </r>
       <r>   -1.8232    1.0000 </r>
       <r>   -1.7509    1.0000 </r>
       <r>   -1.4369    1.0000 </r>
       <r>   -1.3529    1.0000 </r>
       <r>   -1.2735    1.0000 </r>
       <r>   -1.1972    1.0000 </r>
       <r>   -1.0632    1.0000 </r>
       <r>   -1.0185    1.0000 </r>
       <r>   -0.9712    1.0000 </r>
       <r>   -0.9418    1.0000 </r>
       <r>   -0.9210    1.0000 </r>
       <r>   -0.8845    1.0000 </r>
       <r>   -0.8503    1.0000 </r>
       <r>   -0.8136    1.0000 </r>
       <r>   -0.8035    1.0000 </r>
       <r>   -0.7745    1.0000 </r>
       <r>   -0.7522    1.0000 </r>
       <r>   -0.7290    1.0000 </r>
       <r>   -0.7089    1.0000 </r>
       <r>   -0.6769    1.0000 </r>
       <r>   -0.6522    1.0000 </r>
       <r>   -0.6288    1.0000 </r>
       <r>   -0.6006    1.0000 </r>
       <r>   -0.5919    1.0000 </r>
       <r>   -0.5416    1.0000 </r>
       <r>   -0.5374    1.0000 </r>
       <r>   -0.4870    1.0000 </r>
       <r>   -0.4716    1.0000 </r>
       <r>   -0.4385    1.0000 </r>
       <r>   -0.3483    1.0000 </r>
       <r>   -0.0724    1.0000 </r>
       <r>    0.0127    1.0000 </r>
       <r>    0.0698    1.0000 </r>
       <r>    0.1303    1.0000 </r>
       <r>    0.1512    1.0000 </r>
       <r>    0.1707    1.0000 </r>
       <r>    0.1908    1.0000 </r>
       <r>    0.2319    1.0000 </r>
       <r>    0.2416    1.0000 </r>
       <r>    0.3005    1.0000 </r>
       <r>    0.3526    1.0000 </r>
       <r>    0.3892    1.0000 </r>
       <r>    1.3959    1.0000 </r>
       <r>    1.4409    1.0000 </r>
       <r>    1.4761    1.0000 </r>
       <r>    1.5025    1.0000 </r>
       <r>    1.5597    1.0000 </r>
       <r>    1.5808    1.0000 </r>
       <r>    1.5990    1.0000 </r>
       <r>    1.6174    1.0000 </r>
       <r>    1.6410    1.0000 </r>
       <r>    1.6441    1.0000 </r>
       <r>    1.6775    1.0000 </r>
       <r>    1.6925    1.0000 </r>
       <r>    1.7002    1.0000 </r>
       <r>    1.7123    1.0000 </r>
       <r>    1.7319    1.0000 </r>
       <r>    1.7578    1.0000 </r>
       <r>    1.7609    1.0000 </r>
       <r>    1.7801    1.0000 </r>
       <r>    1.8002    1.0000 </r>
       <r>    1.8021    1.0000 </r>
       <r>    1.8156    1.0000 </r>
       <r>    1.8263    1.0000 </r>
       <r>    1.8325    1.0000 </r>
       <r>    1.8476    1.0000 </r>
       <r>    1.8824    1.0000 </r>
       <r>    1.8954    1.0000 </r>
       <r>    1.9100    1.0000 </r>
       <r>    1.9254    1.0000 </r>
       <r>    1.9351    1.0000 </r>
       <r>    1.9471    1.0000 </r>
       <r>    1.9593    1.0000 </r>
       <r>    1.9709    1.0000 </r>
       <r>    1.9827    1.0000 </r>
       <r>    2.0031    1.0000 </r>
       <r>    2.0233    1.0000 </r>
       <r>    2.0393    1.0000 </r>
       <r>    2.0459    1.0000 </r>
       <r>    2.0572    1.0000 </r>
       <r>    2.0673    1.0000 </r>
       <r>    2.0933    1.0000 </r>
       <r>    2.1126    1.0000 </r>
       <r>    2.1219    1.0000 </r>
       <r>    2.1314    1.0000 </r>
       <r>    2.1670    1.0000 </r>
       <r>    2.1715    1.0000 </r>
       <r>    2.1888    1.0000 </r>
       <r>    2.1975    1.0000 </r>
       <r>    2.2073    1.0000 </r>
       <r>    2.2238    1.0000 </r>
       <r>    2.2392    1.0000 </r>
       <r>    2.2577    1.0000 </r>
       <r>    2.2732    1.0000 </r>
       <r>    2.2913    1.0000 </r>
       <r>    2.3008    1.0000 </r>
       <r>    2.3090    1.0000 </r>
       <r>    2.3472    1.0000 </r>
       <r>    2.3643    1.0000 </r>
       <r>    2.3966    1.0000 </r>
       <r>    2.4145    1.0000 </r>
       <r>    2.4436    1.0000 </r>
       <r>    2.4945    1.0000 </r>
       <r>    2.5281    1.0000 </r>
       <r>    2.7169    1.0000 </r>
       <r>    2.7956    1.0000 </r>
       <r>    2.8224    1.0000 </r>
       <r>    2.8542    1.0000 </r>
       <r>    2.8575    1.0000 </r>
       <r>    2.8764    1.0000 </r>
       <r>    3.2171    1.0000 </r>
       <r>    3.2439    1.0000 </r>
       <r>    3.2607    1.0000 </r>
       <r>    3.2738    1.0000 </r>
       <r>    3.2923    1.0000 </r>
       <r>    3.3032    1.0000 </r>
       <r>    3.3337    1.0000 </r>
       <r>    3.3602    1.0000 </r>
       <r>    3.3637    1.0000 </r>
       <r>    3.3760    1.0000 </r>
       <r>    3.3843    1.0000 </r>
       <r>    3.4027    1.0000 </r>
       <r>    3.4206    1.0000 </r>
       <r>    3.4418    1.0000 </r>
       <r>    3.4551    1.0000 </r>
       <r>    3.4901    1.0000 </r>
       <r>    3.5038    1.0000 </r>
       <r>    3.5263    1.0000 </r>
       <r>    3.5506    1.0000 </r>
       <r>    3.5710    1.0000 </r>
       <r>    3.5996    1.0000 </r>
       <r>    3.6098    1.0000 </r>
       <r>    3.6550    1.0000 </r>
       <r>    3.6597    1.0000 </r>
       <r>    3.6697    1.0000 </r>
       <r>    3.7050    1.0000 </r>
       <r>    3.7254    1.0000 </r>
       <r>    3.7323    1.0000 </r>
       <r>    3.7485    1.0000 </r>
       <r>    3.8137    1.0000 </r>
       <r>    3.8372    1.0000 </r>
       <r>    3.8552    1.0000 </r>
       <r>    3.9014    1.0000 </r>
       <r>    3.9206    1.0000 </r>
       <r>    3.9419    1.0000 </r>
       <r>    4.0310    1.0000 </r>
       <r>    4.1020    1.0000 </r>
       <r>    4.1325    1.0000 </r>
       <r>    4.1753    1.0000 </r>
       <r>    4.1953    1.0000 </r>
       <r>    4.2451    1.0000 </r>
       <r>    4.2804    1.0000 </r>
       <r>    4.3139    1.0000 </r>
       <r>    4.3408    1.0000 </r>
       <r>    4.3455    1.0000 </r>
       <r>    4.3784    1.0000 </r>
       <r>    4.4065    1.0000 </r>
       <r>    4.4537    1.0000 </r>
       <r>    4.4737    1.0000 </r>
       <r>    4.4996    1.0000 </r>
       <r>    4.5188    1.0000 </r>
       <r>    4.5586    1.0000 </r>
       <r>    4.5704    1.0000 </r>
       <r>    4.5846    1.0000 </r>
       <r>    4.6098    1.0000 </r>
       <r>    4.6631    1.0000 </r>
       <r>    4.7427    1.0000 </r>
       <r>    4.7650    1.0000 </r>
       <r>    4.8061    1.0000 </r>
       <r>    4.8625    1.0000 </r>
       <r>    4.8662    1.0000 </r>
       <r>    4.9200    1.0000 </r>
       <r>    4.9463    1.0000 </r>
       <r>    4.9556    1.0000 </r>
       <r>    5.0118    1.0000 </r>
       <r>    5.0462    1.0000 </r>
       <r>    5.0751    1.0000 </r>
       <r>    5.0871    1.0000 </r>
       <r>    5.1453    1.0000 </r>
       <r>    5.1916    1.0000 </r>
       <r>    5.2648    1.0000 </r>
       <r>    5.3425    1.0000 </r>
       <r>    5.6754    1.0000 </r>
       <r>    5.7740    1.0000 </r>
       <r>    5.9299    1.0000 </r>
       <r>    6.0500    0.0000 </r>
       <r>    6.1160    0.0000 </r>
       <r>    6.2159    0.0000 </r>
       <r>    6.2637    0.0000 </r>
       <r>    6.3130    0.0000 </r>
       <r>    6.3951    0.0000 </r>
       <r>    6.5161    0.0000 </r>
       <r>    6.5825    0.0000 </r>
       <r>    6.6227    0.0000 </r>
       <r>    6.6365    0.0000 </r>
       <r>    6.6831    0.0000 </r>
       <r>    6.7058    0.0000 </r>
       <r>    6.7638    0.0000 </r>
       <r>    6.7844    0.0000 </r>
       <r>    6.8264    0.0000 </r>
       <r>    6.8431    0.0000 </r>
       <r>    6.8504    0.0000 </r>
       <r>    6.8859    0.0000 </r>
       <r>    6.9111    0.0000 </r>
       <r>    6.9203    0.0000 </r>
       <r>    6.9528    0.0000 </r>
       <r>    6.9715    0.0000 </r>
       <r>    6.9946    0.0000 </r>
       <r>    7.0013    0.0000 </r>
       <r>    7.0403    0.0000 </r>
       <r>    7.0499    0.0000 </r>
       <r>    7.0641    0.0000 </r>
       <r>    7.0789    0.0000 </r>
       <r>    7.0954    0.0000 </r>
       <r>    7.1152    0.0000 </r>
       <r>    7.1320    0.0000 </r>
       <r>    7.1495    0.0000 </r>
       <r>    7.1634    0.0000 </r>
       <r>    7.2115    0.0000 </r>
       <r>    7.2202    0.0000 </r>
       <r>    7.2447    0.0000 </r>
       <r>    7.2623    0.0000 </r>
       <r>    7.2987    0.0000 </r>
       <r>    7.3186    0.0000 </r>
       <r>    7.3545    0.0000 </r>
       <r>    7.4660    0.0000 </r>
       <r>    7.4740    0.0000 </r>
       <r>    7.4897    0.0000 </r>
       <r>    7.5295    0.0000 </r>
       <r>    7.5321    0.0000 </r>
       <r>    7.5519    0.0000 </r>
       <r>    7.5914    0.0000 </r>
       <r>    7.6361    0.0000 </r>
       <r>    7.7455    0.0000 </r>
       <r>    7.8352    0.0000 </r>
       <r>    7.8547    0.0000 </r>
       <r>    7.8782    0.0000 </r>
       <r>    7.8835    0.0000 </r>
       <r>    7.9615    0.0000 </r>
       <r>    7.9721    0.0000 </r>
       <r>    8.0181    0.0000 </r>
       <r>    8.0478    0.0000 </r>
       <r>    8.0676    0.0000 </r>
       <r>    8.0816    0.0000 </r>
       <r>    8.1217    0.0000 </r>
       <r>    8.1791    0.0000 </r>
       <r>    8.1823    0.0000 </r>
       <r>    8.2152    0.0000 </r>
       <r>    8.4947    0.0000 </r>
       <r>    8.5162    0.0000 </r>
       <r>    8.5907    0.0000 </r>
      </set>
      <set comment="kpoint 2">
       <r>   -6.1718    1.0000 </r>
       <r>   -6.0960    1.0000 </r>
       <r>   -5.7857    1.0000 </r>
       <r>   -5.6632    1.0000 </r>
       <r>   -5.6177    1.0000 </r>
       <r>   -5.5581    1.0000 </r>
       <r>   -5.5035    1.0000 </r>
       <r>   -5.4149    1.0000 </r>
       <r>   -5.2847    1.0000 </r>
       <r>   -5.1783    1.0000 </r>
       <r>   -5.1243    1.0000 </r>
       <r>   -5.0561    1.0000 </r>
       <r>   -5.0027    1.0000 </r>
       <r>   -4.9694    1.0000 </r>
       <r>   -4.7638    1.0000 </r>
[...]
       <r>    -3.1314    23.3688    99.3421 </r>
       <r>    -3.0767    50.4530   102.1011 </r>
       <r>    -3.0221    51.3544   104.9094 </r>
       <r>    -2.9674    37.2858   106.9483 </r>
       <r>    -2.9127    34.8106   108.8518 </r>
       <r>    -2.8580    35.4598   110.7909 </r>
       <r>    -2.8033    35.3652   112.7248 </r>
       <r>    -2.7486    26.0009   114.1466 </r>
       <r>    -2.6940    31.4812   115.8681 </r>
       <r>    -2.6393    43.4118   118.2420 </r>
       <r>    -2.5846    35.4718   120.1818 </r>
       <r>    -2.5299    27.6995   121.6965 </r>
       <r>    -2.4752     9.2174   122.2005 </r>
       <r>    -2.4205     9.9313   122.7436 </r>
       <r>    -2.3659     1.1194   122.8048 </r>
       <r>    -2.3112     8.1407   123.2499 </r>
       <r>    -2.2565    10.6122   123.8303 </r>
       <r>    -2.2018    27.7365   125.3470 </r>
       <r>    -2.1471    18.2656   126.3458 </r>
       <r>    -2.0925    27.1133   127.8285 </r>
       <r>    -2.0378    21.9241   129.0274 </r>
       <r>    -1.9831    23.9321   130.3361 </r>
       <r>    -1.9284    15.6457   131.1917 </r>
       <r>    -1.8737    19.3849   132.2517 </r>
       <r>    -1.8190    12.3215   132.9255 </r>
       <r>    -1.7644     1.4921   133.0071 </r>
       <r>    -1.7097     8.7443   133.4853 </r>
       <r>    -1.6550     9.4179   134.0003 </r>
       <r>    -1.6003    18.2016   134.9956 </r>
       <r>    -1.5456    28.3328   136.5449 </r>
       <r>    -1.4909    36.5720   138.5449 </r>
       <r>    -1.4363    54.4340   141.5215 </r>
       <r>    -1.3816    32.4904   143.2982 </r>
       <r>    -1.3269    47.7852   145.9113 </r>
       <r>    -1.2722    66.5845   149.5524 </r>
       <r>    -1.2175    74.0426   153.6013 </r>
       <r>    -1.1628    51.7506   156.4312 </r>
       <r>    -1.1082    58.9158   159.6529 </r>
       <r>    -1.0535    67.9558   163.3689 </r>
       <r>    -0.9988    71.1053   167.2572 </r>
       <r>    -0.9441    54.9520   170.2622 </r>
       <r>    -0.8894    62.3496   173.6718 </r>
       <r>    -0.8347    63.6011   177.1497 </r>
       <r>    -0.7801    42.5752   179.4779 </r>
       <r>    -0.7254    67.8391   183.1876 </r>
       <r>    -0.6707    37.8435   185.2571 </r>
       <r>    -0.6160    36.8899   187.2743 </r>
       <r>    -0.5613    30.3126   188.9319 </r>
       <r>    -0.5066    19.5597   190.0015 </r>
       <r>    -0.4520    13.8837   190.7607 </r>
       <r>    -0.3973    34.3172   192.6373 </r>
       <r>    -0.3426    41.2165   194.8912 </r>
       <r>    -0.2879    54.1494   197.8523 </r>
       <r>    -0.2332    43.0307   200.2053 </r>
       <r>    -0.1785    52.8939   203.0978 </r>
       <r>    -0.1239    49.2041   205.7884 </r>
       <r>    -0.0692    39.8425   207.9671 </r>
       <r>    -0.0145    47.4913   210.5641 </r>
       <r>     0.0402    28.4229   212.1184 </r>
       <r>     0.0949    14.0723   212.8879 </r>
       <r>     0.1496    17.6248   213.8517 </r>
       <r>     0.2042    13.9646   214.6153 </r>
       <r>     0.2589    25.2824   215.9978 </r>
       <r>     0.3136    18.6345   217.0168 </r>
       <r>     0.3683    22.6558   218.2557 </r>
       <r>     0.4230    17.0262   219.1868 </r>
       <r>     0.4777    20.2988   220.2968 </r>
       <r>     0.5323    23.3976   221.5763 </r>
       <r>     0.5870    22.0354   222.7812 </r>
       <r>     0.6417    26.2846   224.2186 </r>
       <r>     0.6964    24.1468   225.5390 </r>
       <r>     0.7511    19.3101   226.5950 </r>
       <r>     0.8058    19.4324   227.6576 </r>
       <r>     0.8604     9.5536   228.1800 </r>
       <r>     0.9151    15.6260   229.0345 </r>
       <r>     0.9698    14.5928   229.8325 </r>
       <r>     1.0245    17.9378   230.8134 </r>
       <r>     1.0792    23.8808   232.1193 </r>
       <r>     1.1339    51.6171   234.9419 </r>
       <r>     1.1885    23.5493   236.2296 </r>
       <r>     1.2432    12.9698   236.9389 </r>
       <r>     1.2979    27.4527   238.4401 </r>
       <r>     1.3526    33.0001   240.2446 </r>
       <r>     1.4073    35.7655   242.2004 </r>
       <r>     1.4620    53.3731   245.1191 </r>
       <r>     1.5166    96.5905   250.4010 </r>
       <r>     1.5713    83.1233   254.9464 </r>
       <r>     1.6260    84.3103   259.5568 </r>
       <r>     1.6807    65.8954   263.1602 </r>
       <r>     1.7354    58.8079   266.3760 </r>
       <r>     1.7901    56.0891   269.4432 </r>
       <r>     1.8447    45.9076   271.9536 </r>
       <r>     1.8994    22.6851   273.1941 </r>
       <r>     1.9541    20.3403   274.3064 </r>
       <r>     2.0088    33.6623   276.1472 </r>
       <r>     2.0635    60.3968   279.4499 </r>
       <r>     2.1182    84.7266   284.0831 </r>
       <r>     2.1728    94.4315   289.2469 </r>
       <r>     2.2275   113.4619   295.4514 </r>
       <r>     2.2822   125.1740   302.2963 </r>
       <r>     2.3369   122.3459   308.9866 </r>
       <r>     2.3916   100.8649   314.5023 </r>
       <r>     2.4463    73.0063   318.4945 </r>
       <r>     2.5009    58.7712   321.7083 </r>
       <r>     2.5556    35.7818   323.6650 </r>
       <r>     2.6103    40.1372   325.8598 </r>
       <r>     2.6650    69.3842   329.6540 </r>
       <r>     2.7197    68.8297   333.4178 </r>
       <r>     2.7744    81.5943   337.8797 </r>
       <r>     2.8290   103.5441   343.5418 </r>
       <r>     2.8837    89.1623   348.4175 </r>
       <r>     2.9384    99.1911   353.8417 </r>
       <r>     2.9931    92.4916   358.8994 </r>
       <r>     3.0478    91.3764   363.8962 </r>
       <r>     3.1025    81.6531   368.3613 </r>
       <r>     3.1571    78.4603   372.6518 </r>
       <r>     3.2118    71.7626   376.5760 </r>
       <r>     3.2665    95.2260   381.7833 </r>
       <r>     3.3212    91.4336   386.7832 </r>
       <r>     3.3759   102.1687   392.3701 </r>
       <r>     3.4306   101.1704   397.9025 </r>
       <r>     3.4852    83.6038   402.4742 </r>
       <r>     3.5399    79.5866   406.8263 </r>
       <r>     3.5946    74.2719   410.8878 </r>
       <r>     3.6493    67.2806   414.5669 </r>
       <r>     3.7040    79.0527   418.8898 </r>
       <r>     3.7587    82.1165   423.3802 </r>
       <r>     3.8133    72.7503   427.3585 </r>
       <r>     3.8680    78.6681   431.6604 </r>
       <r>     3.9227    82.6917   436.1822 </r>
       <r>     3.9774    74.6730   440.2656 </r>
       <r>     4.0321    78.1297   444.5380 </r>
       <r>     4.0868    68.9023   448.3058 </r>
       <r>     4.1414    73.6235   452.3318 </r>
       <r>     4.1961    78.2582   456.6113 </r>
       <r>     4.2508    44.6398   459.0523 </r>
       <r>     4.3055    74.3171   463.1162 </r>
       <r>     4.3602    82.6889   467.6379 </r>
       <r>     4.4149    69.2269   471.4235 </r>
       <r>     4.4695    59.3914   474.6712 </r>
       <r>     4.5242    68.3249   478.4075 </r>
       <r>     4.5789    64.5757   481.9387 </r>
       <r>     4.6336    52.5204   484.8107 </r>
       <r>     4.6883    55.9303   487.8692 </r>
       <r>     4.7430    23.7384   489.1673 </r>
       <r>     4.7976    37.3492   491.2097 </r>
       <r>     4.8523    28.6019   492.7738 </r>
       <r>     4.9070    23.3917   494.0529 </r>
       <r>     4.9617    50.3729   496.8075 </r>
       <r>     5.0164    42.4792   499.1304 </r>
       <r>     5.0711    27.0989   500.6123 </r>
       <r>     5.1257    35.0445   502.5287 </r>
       <r>     5.1804    17.9588   503.5107 </r>
       <r>     5.2351     4.3758   503.7500 </r>
       <r>     5.2898     7.6036   504.1658 </r>
       <r>     5.3445    21.4849   505.3407 </r>
       <r>     5.3992    23.2664   506.6129 </r>
       <r>     5.4538    11.7704   507.2566 </r>
       <r>     5.5085    18.7555   508.2822 </r>
       <r>     5.5632    13.0962   508.9984 </r>
       <r>     5.6179    13.7511   509.7503 </r>
       <r>     5.6726    15.7972   510.6142 </r>
       <r>     5.7273    14.0342   511.3816 </r>
       <r>     5.7819     6.1327   511.7170 </r>
       <r>     5.8366     0.6037   511.7500 </r>
       <r>     5.8913     0.0000   511.7500 </r>
       <r>     5.9460     4.5201   511.9972 </r>
       <r>     6.0007     0.0517   512.0000 </r>
       <r>     6.0554     3.5533   512.1943 </r>
       <r>     6.1100     9.2390   512.6995 </r>
       <r>     6.1647    11.7247   513.3407 </r>
       <r>     6.2194    18.6184   514.3588 </r>
       <r>     6.2741    10.8320   514.9511 </r>
       <r>     6.3288    20.7204   516.0842 </r>
       <r>     6.3835    16.2297   516.9717 </r>
       <r>     6.4381    25.3044   518.3554 </r>
       <r>     6.4928    30.1768   520.0056 </r>
       <r>     6.5475    15.0094   520.8263 </r>
       <r>     6.6022    15.9016   521.6959 </r>
       <r>     6.6569    23.4118   522.9761 </r>
       <r>     6.7116    21.7690   524.1665 </r>
       <r>     6.7662    40.8594   526.4009 </r>
       <r>     6.8209    29.1148   527.9930 </r>
       <r>     6.8756    42.3898   530.3110 </r>
       <r>     6.9303    36.6546   532.3154 </r>
       <r>     6.9850    40.1124   534.5089 </r>
       <r>     7.0397    42.8138   536.8501 </r>
       <r>     7.0943    32.1132   538.6061 </r>
       <r>     7.1490    21.2062   539.7658 </r>
       <r>     7.2037    41.1035   542.0134 </r>
       <r>     7.2584    58.5222   545.2136 </r>
       <r>     7.3131    70.1174   549.0479 </r>
       <r>     7.3678    83.7581   553.6281 </r>
       <r>     7.4224    69.5440   557.4310 </r>
       <r>     7.4771    74.4246   561.5008 </r>
       <r>     7.5318    80.9925   565.9298 </r>
       <r>     7.5865    88.9200   570.7922 </r>
       <r>     7.6412    83.2995   575.3473 </r>
       <r>     7.6959    87.8021   580.1487 </r>
       <r>     7.7505    91.1359   585.1323 </r>
       <r>     7.8052   100.8845   590.6490 </r>
       <r>     7.8599    91.0337   595.6271 </r>
       <r>     7.9146    95.9206   600.8723 </r>
       <r>     7.9693    85.9950   605.5749 </r>
       <r>     8.0240    94.8669   610.7625 </r>
       <r>     8.0786    76.1325   614.9257 </r>
       <r>     8.1333    83.8853   619.5129 </r>
       <r>     8.1880    81.5057   623.9699 </r>
       <r>     8.2427    83.4289   628.5321 </r>
       <r>     8.2974    98.1388   633.8987 </r>
       <r>     8.3521    75.4658   638.0255 </r>
       <r>     8.4067    63.7417   641.5111 </r>
       <r>     8.4614    31.5011   643.2337 </r>
       <r>     8.5161     7.1146   643.6228 </r>
       <r>     8.5708     2.3379   643.7506 </r>
       <r>     8.6255     4.5605   644.0000 </r>
       <r>     8.6802     0.0000   644.0000 </r>
       <r>     8.7348     0.0000   644.0000 </r>
       <r>     8.7895     0.0000   644.0000 </r>
       <r>     8.8442     0.0000   644.0000 </r>
       <r>     8.8989     0.0000   644.0000 </r>
       <r>     8.9536     0.0000   644.0000 </r>
       <r>     9.0083     0.0000   644.0000 </r>
       <r>     9.0629     0.0000   644.0000 </r>
       <r>     9.1176     0.0000   644.0000 </r>
       <r>     9.1723     0.0000   644.0000 </r>
       <r>     9.2270     0.0000   644.0000 </r>
       <r>     9.2817     0.0000   644.0000 </r>
       <r>     9.3364     0.0000   644.0000 </r>
      </set>
     </set>
    </array>
   </total>
  </dos>
 </calculation>
 <structure name="finalpos" >
  <crystal>
   <varray name="basis" >
    <v>       0.00000000      10.93733369      10.93733369 </v>
    <v>      10.93733369       0.00000000      10.93733369 </v>
    <v>      10.93733369      10.93733369       0.00000000 </v>
   </varray>
   <i name="volume">   2616.76295363 </i>
   <varray name="rec_basis" >
    <v>      -0.04571498       0.04571498       0.04571498 </v>
    <v>       0.04571498      -0.04571498       0.04571498 </v>
    <v>       0.04571498       0.04571498      -0.04571498 </v>
   </varray>
  </crystal>
  <varray name="positions" >
   <v>       0.01032546       0.98950355       0.00471271 </v>
   <v>       0.24926906       0.01006924       0.00482065 </v>
   <v>       0.51080210       0.99405689       0.00156483 </v>
   <v>       0.73863961       0.99922134       0.00328706 </v>
   <v>       0.99865442       0.25346521       0.00080292 </v>
   <v>       0.25596508       0.24387203       0.00392956 </v>
   <v>       0.49403057       0.25450251       0.99359196 </v>
   <v>       0.74685971       0.24022867       0.00280167 </v>
   <v>       0.99468170       0.50003139       0.00424929 </v>
   <v>       0.26396654       0.50716015       0.99338229 </v>
   <v>       0.50457866       0.49841854       0.00254827 </v>
   <v>       0.74518437       0.49331009       0.00418665 </v>
   <v>       0.98973729       0.76222573       0.00315236 </v>
   <v>       0.25602850       0.73808150       0.01330038 </v>
   <v>       0.49491395       0.76333781       0.00575390 </v>
   <v>       0.76248551       0.75056766       0.99335233 </v>
   <v>       0.99739143       0.01151954       0.24758021 </v>
   <v>       0.24830179       0.00559811       0.24372524 </v>
   <v>       0.49094175       0.00285996       0.25849082 </v>
   <v>       0.75000575       0.00922006       0.24907037 </v>
   <v>       0.01635987       0.23295342       0.25255655 </v>
   <v>       0.26099736       0.25419814       0.24264475 </v>
   <v>       0.49363115       0.24184172       0.26750331 </v>
   <v>       0.75047665       0.24507553       0.24808618 </v>
   <v>       0.00431453       0.49868899       0.24361772 </v>
   <v>       0.24888609       0.49605203       0.25320030 </v>
   <v>       0.50225484       0.49859568       0.25251631 </v>
   <v>       0.74452355       0.51654594       0.24673017 </v>
   <v>       0.00873146       0.75995299       0.23945010 </v>
   <v>       0.25145262       0.75264378       0.25600114 </v>
   <v>       0.51012903       0.74338224       0.24815159 </v>
   <v>       0.75337380       0.74340746       0.24810792 </v>
   <v>       0.01013538       0.98639036       0.49736097 </v>
   <v>       0.25104855       0.00523484       0.49251183 </v>
   <v>       0.50516898       0.99617856       0.49549186 </v>
   <v>       0.75612318       0.00248378       0.49733238 </v>
   <v>       0.00154007       0.24359240       0.49983607 </v>
   <v>       0.24921047       0.24533048       0.49497020 </v>
   <v>       0.49437358       0.26318025       0.48804808 </v>
   <v>       0.74253646       0.24678746       0.49159798 </v>
   <v>       0.00667336       0.49392496       0.49562588 </v>
   <v>       0.25134939       0.50693502       0.49432147 </v>
   <v>       0.49021043       0.50218113       0.50323233 </v>
   <v>       0.75179294       0.49909520       0.49246568 </v>
   <v>       0.02171968       0.74901171       0.49139729 </v>
   <v>       0.25431347       0.74715824       0.49255577 </v>
   <v>       0.49985193       0.75402351       0.50231761 </v>
   <v>       0.75431906       0.75105488       0.48581882 </v>
   <v>       0.99955809       0.99021819       0.75514409 </v>
   <v>       0.25437795       0.00875260       0.75102409 </v>
   <v>       0.50048847       0.00556124       0.74413660 </v>
   <v>       0.74657940       0.00221735       0.75354940 </v>
   <v>       0.99777958       0.25292823       0.75471922 </v>
   <v>       0.23567334       0.25147541       0.75184169 </v>
   <v>       0.50197884       0.26691198       0.74233827 </v>
   <v>       0.74624772       0.25244958       0.75043561 </v>
   <v>       0.01796680       0.49083756       0.74894850 </v>
   <v>       0.24920710       0.49914312       0.76143115 </v>
   <v>       0.49487872       0.50658218       0.75325383 </v>
   <v>       0.75407712       0.50345503       0.74471965 </v>
   <v>       0.00325623       0.75888279       0.74711227 </v>
   <v>       0.25225358       0.75176288       0.74142096 </v>
   <v>       0.50305027       0.74183875       0.75970658 </v>
   <v>       0.74100477       0.74477698       0.75031154 </v>
   <v>       0.06648780       0.05575949       0.05849549 </v>
   <v>       0.31904686       0.05798447       0.06816378 </v>
   <v>       0.55405927       0.06675201       0.06414605 </v>
   <v>       0.79915771       0.06045949       0.07134598 </v>
   <v>       0.05428687       0.31387189       0.07172701 </v>
   <v>       0.30246336       0.32389404       0.06398094 </v>
   <v>       0.56711395       0.31323457       0.05541237 </v>
   <v>       0.82013631       0.30385690       0.05457767 </v>
   <v>       0.05680945       0.57744660       0.06106951 </v>
   <v>       0.32588546       0.56729669       0.06462152 </v>
   <v>       0.56644362       0.54869089       0.06078823 </v>
   <v>       0.80663412       0.55196028       0.06909619 </v>
   <v>       0.05894380       0.81925901       0.06360145 </v>
   <v>       0.31343607       0.80924378       0.06802171 </v>
   <v>       0.55142877       0.80670981       0.07698555 </v>
   <v>       0.80730564       0.81350014       0.06533486 </v>
   <v>       0.07206804       0.04420921       0.31826852 </v>
   <v>       0.29585852       0.06388072       0.31850076 </v>
   <v>       0.57886249       0.05387857       0.31225356 </v>
   <v>       0.80281566       0.07248720       0.30876873 </v>
   <v>       0.07227487       0.30881786       0.29949425 </v>
   <v>       0.31121305       0.31679970       0.31599273 </v>
   <v>       0.57639935       0.30412867       0.29831995 </v>
   <v>       0.82045941       0.30638824       0.31296073 </v>
   <v>       0.06294752       0.56274383       0.31285064 </v>
   <v>       0.31647161       0.56453929       0.31108085 </v>
   <v>       0.56634692       0.56497495       0.31854944 </v>
   <v>       0.81204894       0.56430689       0.30827826 </v>
   <v>       0.07773627       0.80427781       0.31347989 </v>
   <v>       0.31240546       0.81842263       0.30913885 </v>
   <v>       0.56988116       0.80893985       0.29835822 </v>
   <v>       0.81882240       0.81135476       0.30011466 </v>
   <v>       0.06613137       0.06337143       0.55968162 </v>
   <v>       0.32115130       0.04712061       0.57201867 </v>
   <v>       0.56752260       0.06826160       0.55306173 </v>
   <v>       0.81390603       0.07229790       0.56686301 </v>
   <v>       0.06495339       0.30438004       0.56092619 </v>
   <v>       0.31017370       0.30794246       0.56501375 </v>
   <v>       0.56646917       0.31065709       0.56770641 </v>
   <v>       0.82697826       0.31469435       0.55763575 </v>
   <v>       0.06997902       0.56197224       0.56040574 </v>
   <v>       0.30746958       0.56779206       0.56936677 </v>
   <v>       0.56397292       0.56181955       0.56104913 </v>
   <v>       0.81700478       0.54873244       0.56420714 </v>
   <v>       0.06568176       0.81248615       0.55208419 </v>
   <v>       0.32224094       0.80648146       0.55475041 </v>
   <v>       0.57507552       0.80288016       0.56246593 </v>
   <v>       0.81743193       0.81540983       0.55923217 </v>
   <v>       0.06600748       0.05835610       0.81176734 </v>
   <v>       0.31402807       0.06637094       0.82290789 </v>
   <v>       0.55608620       0.06643164       0.80712247 </v>
   <v>       0.80977022       0.06422297       0.81549239 </v>
   <v>       0.06537507       0.29204684       0.82124374 </v>
   <v>       0.31126364       0.30620031       0.81390930 </v>
   <v>       0.56167784       0.32754305       0.80498040 </v>
   <v>       0.81749711       0.30819432       0.81962792 </v>
   <v>       0.05670813       0.55156278       0.83127299 </v>
   <v>       0.31251676       0.56267242       0.81742001 </v>
   <v>       0.55880976       0.55656291       0.81181687 </v>
   <v>       0.80509221       0.56059733       0.82182338 </v>
   <v>       0.08007311       0.81003083       0.82343326 </v>
   <v>       0.32511556       0.80214947       0.81218719 </v>
   <v>       0.57126394       0.82018521       0.79506074 </v>
   <v>       0.81470321       0.80953661       0.80863270 </v>
  </varray>
 </structure>
</modeling>
