potpaw_PBE@./ARUN.APL1ZEROSTATE         
           1
     0.000000   10.937334   10.937334
    10.937334    0.000000   10.937334
    10.937334   10.937334    0.000000
   Si
 128
Direct configuration=     1
   0.01032546  0.98950355  0.00471271
   0.24926906  0.01006924  0.00482065
   0.51080210  0.99405689  0.00156483
   0.73863961  0.99922134  0.00328706
   0.99865442  0.25346521  0.00080292
   0.25596508  0.24387203  0.00392956
   0.49403057  0.25450251  0.99359196
   0.74685971  0.24022867  0.00280167
   0.99468170  0.50003139  0.00424929
   0.26396654  0.50716015  0.99338229
   0.50457866  0.49841854  0.00254827
   0.74518437  0.49331009  0.00418665
   0.98973729  0.76222573  0.00315236
   0.25602850  0.73808150  0.01330038
   0.49491395  0.76333781  0.00575390
   0.76248551  0.75056766  0.99335233
   0.99739143  0.01151954  0.24758021
   0.24830179  0.00559811  0.24372524
   0.49094175  0.00285996  0.25849082
   0.75000575  0.00922006  0.24907037
   0.01635987  0.23295342  0.25255655
   0.26099736  0.25419814  0.24264475
   0.49363115  0.24184172  0.26750331
   0.75047665  0.24507553  0.24808618
   0.00431453  0.49868899  0.24361772
   0.24888609  0.49605203  0.25320030
   0.50225484  0.49859568  0.25251631
   0.74452355  0.51654594  0.24673017
   0.00873146  0.75995299  0.23945010
   0.25145262  0.75264378  0.25600114
   0.51012903  0.74338224  0.24815159
   0.75337380  0.74340746  0.24810792
   0.01013538  0.98639036  0.49736097
   0.25104855  0.00523484  0.49251183
   0.50516898  0.99617856  0.49549186
   0.75612318  0.00248378  0.49733238
   0.00154007  0.24359240  0.49983607
   0.24921047  0.24533048  0.49497020
   0.49437358  0.26318025  0.48804808
   0.74253646  0.24678746  0.49159798
   0.00667336  0.49392496  0.49562588
   0.25134939  0.50693502  0.49432147
   0.49021043  0.50218113  0.50323233
   0.75179294  0.49909520  0.49246568
   0.02171968  0.74901171  0.49139729
   0.25431347  0.74715824  0.49255577
   0.49985193  0.75402351  0.50231761
   0.75431906  0.75105488  0.48581882
   0.99955809  0.99021819  0.75514409
   0.25437795  0.00875260  0.75102409
   0.50048847  0.00556124  0.74413660
   0.74657940  0.00221735  0.75354940
   0.99777958  0.25292823  0.75471922
   0.23567334  0.25147541  0.75184169
   0.50197884  0.26691198  0.74233827
   0.74624772  0.25244958  0.75043561
   0.01796680  0.49083756  0.74894850
   0.24920710  0.49914312  0.76143115
   0.49487872  0.50658218  0.75325383
   0.75407712  0.50345503  0.74471965
   0.00325623  0.75888279  0.74711227
   0.25225358  0.75176288  0.74142096
   0.50305027  0.74183875  0.75970658
   0.74100477  0.74477698  0.75031154
   0.06648780  0.05575949  0.05849549
   0.31904686  0.05798447  0.06816378
   0.55405927  0.06675201  0.06414605
   0.79915771  0.06045949  0.07134598
   0.05428687  0.31387189  0.07172701
   0.30246336  0.32389404  0.06398094
   0.56711395  0.31323457  0.05541237
   0.82013631  0.30385690  0.05457767
   0.05680945  0.57744660  0.06106951
   0.32588546  0.56729669  0.06462152
   0.56644362  0.54869089  0.06078823
   0.80663412  0.55196028  0.06909619
   0.05894380  0.81925901  0.06360145
   0.31343607  0.80924378  0.06802171
   0.55142877  0.80670981  0.07698555
   0.80730564  0.81350014  0.06533486
   0.07206804  0.04420921  0.31826852
   0.29585852  0.06388072  0.31850076
   0.57886249  0.05387857  0.31225356
   0.80281566  0.07248720  0.30876873
   0.07227487  0.30881786  0.29949425
   0.31121305  0.31679970  0.31599273
   0.57639935  0.30412867  0.29831995
   0.82045941  0.30638824  0.31296073
   0.06294752  0.56274383  0.31285064
   0.31647161  0.56453929  0.31108085
   0.56634692  0.56497495  0.31854944
   0.81204894  0.56430689  0.30827826
   0.07773627  0.80427781  0.31347989
   0.31240546  0.81842263  0.30913885
   0.56988116  0.80893985  0.29835822
   0.81882240  0.81135476  0.30011466
   0.06613137  0.06337143  0.55968162
   0.32115130  0.04712061  0.57201867
   0.56752260  0.06826160  0.55306173
   0.81390603  0.07229790  0.56686301
   0.06495339  0.30438004  0.56092619
   0.31017370  0.30794246  0.56501375
   0.56646917  0.31065709  0.56770641
   0.82697826  0.31469435  0.55763575
   0.06997902  0.56197224  0.56040574
   0.30746958  0.56779206  0.56936677
   0.56397292  0.56181955  0.56104913
   0.81700478  0.54873244  0.56420714
   0.06568176  0.81248615  0.55208419
   0.32224094  0.80648146  0.55475041
   0.57507552  0.80288016  0.56246593
   0.81743193  0.81540983  0.55923217
   0.06600748  0.05835610  0.81176734
   0.31402807  0.06637094  0.82290789
   0.55608620  0.06643164  0.80712247
   0.80977022  0.06422297  0.81549239
   0.06537507  0.29204684  0.82124374
   0.31126364  0.30620031  0.81390930
   0.56167784  0.32754305  0.80498040
   0.81749711  0.30819432  0.81962792
   0.05670813  0.55156278  0.83127299
   0.31251676  0.56267242  0.81742001
   0.55880976  0.55656291  0.81181687
   0.80509221  0.56059733  0.82182338
   0.08007311  0.81003083  0.82343326
   0.32511556  0.80214947  0.81218719
   0.57126394  0.82018521  0.79506074
   0.81470321  0.80953661  0.80863270
