 128 128   0   0
  0.2044346E+02  0.1546773E-08  0.1546773E-08  0.1546773E-08  0.5000000E-15
  1.000000000000000E-004
  CAR 
 potpaw_PBE@./ARUN.APL1ZEROSTATE         
      9.35559478     -7.04619757  301      5.87021390      1.00000000
     -7.046  0.0000E+00  0.0000E+00
     -6.992  0.0000E+00  0.0000E+00
     -6.937  0.0000E+00  0.0000E+00
     -6.882  0.0000E+00  0.0000E+00
     -6.828  0.0000E+00  0.0000E+00
     -6.773  0.0000E+00  0.0000E+00
     -6.718  0.0000E+00  0.0000E+00
     -6.663  0.0000E+00  0.0000E+00
     -6.609  0.0000E+00  0.0000E+00
     -6.554  0.0000E+00  0.0000E+00
     -6.499  0.0000E+00  0.0000E+00
     -6.445  0.0000E+00  0.0000E+00
     -6.390  0.0000E+00  0.0000E+00
     -6.335  0.1976E-05  0.1080E-06
     -6.281  0.4561E+01  0.2494E+00
     -6.226  0.1127E-01  0.2500E+00
     -6.171  0.4219E+00  0.2731E+00
     -6.117  0.2103E+02  0.1423E+01
     -6.062  0.2089E+02  0.2565E+01
     -6.007  0.1708E+02  0.3499E+01
     -5.953  0.4594E+01  0.3750E+01
     -5.898  0.2118E+01  0.3866E+01
     -5.843  0.3531E+01  0.4059E+01
     -5.789  0.1608E+02  0.4938E+01
     -5.734  0.2131E+02  0.6103E+01
     -5.679  0.2873E+02  0.7673E+01
     -5.625  0.1905E+02  0.8715E+01
     -5.570  0.3138E+02  0.1043E+02
     -5.515  0.3023E+02  0.1208E+02
     -5.461  0.3587E+02  0.1404E+02
     -5.406  0.7881E+01  0.1447E+02
     -5.351  0.5030E+01  0.1475E+02
     -5.297  0.4202E+01  0.1498E+02
     -5.242  0.5050E+01  0.1526E+02
     -5.187  0.2827E+02  0.1680E+02
     -5.133  0.3667E+02  0.1881E+02
     -5.078  0.4605E+02  0.2132E+02
     -5.023  0.2906E+02  0.2291E+02
     -4.969  0.4562E+02  0.2541E+02
     -4.914  0.3249E+02  0.2718E+02
     -4.859  0.1660E+02  0.2809E+02
     -4.805  0.2143E+02  0.2926E+02
     -4.750  0.3512E+02  0.3118E+02
     -4.695  0.3299E+02  0.3299E+02
     -4.641  0.3696E+02  0.3501E+02
     -4.586  0.3508E+02  0.3692E+02
     -4.531  0.3949E+02  0.3908E+02
     -4.477  0.3483E+02  0.4099E+02
     -4.422  0.2533E+02  0.4237E+02
     -4.367  0.1862E+02  0.4339E+02
     -4.313  0.1760E+02  0.4435E+02
     -4.258  0.4453E+02  0.4679E+02
     -4.203  0.4597E+02  0.4930E+02
     -4.149  0.5562E+02  0.5234E+02
     -4.094  0.5406E+02  0.5530E+02
     -4.039  0.5741E+02  0.5844E+02
     -3.985  0.5805E+02  0.6161E+02
     -3.930  0.5471E+02  0.6460E+02
     -3.875  0.5915E+02  0.6784E+02
     -3.821  0.6103E+02  0.7117E+02
     -3.766  0.4033E+02  0.7338E+02
     -3.711  0.4682E+02  0.7594E+02
     -3.656  0.3731E+02  0.7798E+02
     -3.602  0.3227E+02  0.7974E+02
     -3.547  0.2245E+02  0.8097E+02
     -3.492  0.3877E+02  0.8309E+02
     -3.438  0.5745E+02  0.8623E+02
     -3.383  0.5862E+02  0.8943E+02
     -3.328  0.5540E+02  0.9246E+02
     -3.274  0.4755E+02  0.9506E+02
     -3.219  0.2826E+02  0.9661E+02
     -3.164  0.3377E+02  0.9845E+02
     -3.110  0.5292E+02  0.1013E+03
     -3.055  0.3063E+02  0.1030E+03
     -3.000  0.4521E+02  0.1055E+03
     -2.946  0.4325E+02  0.1079E+03
     -2.891  0.3724E+02  0.1099E+03
     -2.836  0.3477E+02  0.1118E+03
     -2.782  0.2961E+02  0.1134E+03
     -2.727  0.3024E+02  0.1151E+03
     -2.672  0.4400E+02  0.1175E+03
     -2.618  0.3214E+02  0.1192E+03
     -2.563  0.2740E+02  0.1207E+03
     -2.508  0.2699E+02  0.1222E+03
     -2.454  0.9618E+01  0.1227E+03
     -2.399  0.1148E+01  0.1228E+03
     -2.344  0.9913E+01  0.1233E+03
     -2.290  0.3052E+01  0.1235E+03
     -2.235  0.1121E+02  0.1241E+03
     -2.180  0.1270E+02  0.1248E+03
     -2.126  0.3133E+02  0.1265E+03
     -2.071  0.2836E+02  0.1281E+03
     -2.016  0.2904E+02  0.1297E+03
     -1.962  0.2236E+02  0.1309E+03
     -1.907  0.2902E+02  0.1325E+03
     -1.852  0.2747E+01  0.1326E+03
     -1.798  0.6954E+01  0.1330E+03
     -1.743  0.4609E+01  0.1332E+03
     -1.688  0.2142E+00  0.1333E+03
     -1.634  0.1527E+02  0.1341E+03
     -1.579  0.2413E+02  0.1354E+03
     -1.524  0.3050E+02  0.1371E+03
     -1.470  0.3988E+02  0.1393E+03
     -1.415  0.3487E+02  0.1412E+03
     -1.360  0.4094E+02  0.1434E+03
     -1.306  0.4724E+02  0.1460E+03
     -1.251  0.6769E+02  0.1497E+03
     -1.196  0.6191E+02  0.1531E+03
     -1.142  0.5731E+02  0.1562E+03
     -1.087  0.7136E+02  0.1601E+03
     -1.032  0.7384E+02  0.1641E+03
     -0.978  0.6725E+02  0.1678E+03
     -0.923  0.6807E+02  0.1715E+03
     -0.868  0.6321E+02  0.1750E+03
     -0.814  0.6060E+02  0.1783E+03
     -0.759  0.6153E+02  0.1817E+03
     -0.704  0.3890E+02  0.1838E+03
     -0.649  0.4424E+02  0.1862E+03
     -0.595  0.3372E+02  0.1881E+03
     -0.540  0.2158E+02  0.1892E+03
     -0.485  0.2484E+02  0.1906E+03
     -0.431  0.1690E+02  0.1915E+03
     -0.376  0.2548E+02  0.1929E+03
     -0.321  0.5789E+02  0.1961E+03
     -0.267  0.5850E+02  0.1993E+03
     -0.212  0.4309E+02  0.2016E+03
     -0.157  0.5287E+02  0.2045E+03
     -0.103  0.4306E+02  0.2069E+03
     -0.048  0.4952E+02  0.2096E+03
      0.007  0.3366E+02  0.2114E+03
      0.061  0.2408E+02  0.2128E+03
      0.116  0.1806E+02  0.2137E+03
      0.171  0.5830E+01  0.2141E+03
      0.225  0.1449E+02  0.2148E+03
      0.280  0.2236E+02  0.2161E+03
      0.335  0.2895E+02  0.2177E+03
      0.389  0.2181E+02  0.2188E+03
      0.444  0.1933E+02  0.2199E+03
      0.499  0.2091E+02  0.2210E+03
      0.553  0.2224E+02  0.2223E+03
      0.608  0.2394E+02  0.2236E+03
      0.663  0.1978E+02  0.2247E+03
      0.717  0.2926E+02  0.2263E+03
      0.772  0.1951E+02  0.2273E+03
      0.827  0.7853E+01  0.2277E+03
      0.881  0.3365E-05  0.2278E+03
      0.936  0.1352E+02  0.2285E+03
      0.991  0.3543E+02  0.2304E+03
      1.045  0.2382E+02  0.2317E+03
      1.100  0.2834E+02  0.2333E+03
      1.155  0.2205E+02  0.2345E+03
      1.209  0.2965E+02  0.2361E+03
      1.264  0.2515E+02  0.2375E+03
      1.319  0.2381E+02  0.2388E+03
      1.373  0.2996E+02  0.2404E+03
      1.428  0.4900E+02  0.2431E+03
      1.483  0.5817E+02  0.2463E+03
      1.537  0.9069E+02  0.2512E+03
      1.592  0.8331E+02  0.2558E+03
      1.647  0.7019E+02  0.2596E+03
      1.701  0.7317E+02  0.2636E+03
      1.756  0.7066E+02  0.2675E+03
      1.811  0.4749E+02  0.2701E+03
      1.865  0.3859E+02  0.2722E+03
      1.920  0.2051E+02  0.2733E+03
      1.975  0.2184E+02  0.2745E+03
      2.029  0.3262E+02  0.2763E+03
      2.084  0.6950E+02  0.2801E+03
      2.139  0.8599E+02  0.2848E+03
      2.193  0.1190E+03  0.2913E+03
      2.248  0.1143E+03  0.2976E+03
      2.303  0.1165E+03  0.3039E+03
      2.357  0.1191E+03  0.3104E+03
      2.412  0.1077E+03  0.3163E+03
      2.467  0.6966E+02  0.3201E+03
      2.522  0.4321E+02  0.3225E+03
      2.576  0.1675E+02  0.3234E+03
      2.631  0.4921E+02  0.3261E+03
      2.686  0.6764E+02  0.3298E+03
      2.740  0.9800E+02  0.3352E+03
      2.795  0.1049E+03  0.3409E+03
      2.850  0.6977E+02  0.3447E+03
      2.904  0.8737E+02  0.3495E+03
      2.959  0.1028E+03  0.3551E+03
      3.014  0.9641E+02  0.3604E+03
      3.068  0.9672E+02  0.3657E+03
      3.123  0.9370E+02  0.3708E+03
      3.178  0.6992E+02  0.3746E+03
      3.232  0.7753E+02  0.3788E+03
      3.287  0.9440E+02  0.3840E+03
      3.342  0.9855E+02  0.3894E+03
      3.396  0.1027E+03  0.3950E+03
      3.451  0.1013E+03  0.4005E+03
      3.506  0.8513E+02  0.4052E+03
      3.560  0.7516E+02  0.4093E+03
      3.615  0.7582E+02  0.4135E+03
      3.670  0.6799E+02  0.4172E+03
      3.724  0.7467E+02  0.4213E+03
      3.779  0.7312E+02  0.4253E+03
      3.834  0.8996E+02  0.4302E+03
      3.888  0.8360E+02  0.4347E+03
      3.943  0.7844E+02  0.4390E+03
      3.998  0.6311E+02  0.4425E+03
      4.052  0.5329E+02  0.4454E+03
      4.107  0.8246E+02  0.4499E+03
      4.162  0.6212E+02  0.4533E+03
      4.216  0.7471E+02  0.4574E+03
      4.271  0.7811E+02  0.4617E+03
      4.326  0.7544E+02  0.4658E+03
      4.380  0.7908E+02  0.4701E+03
      4.435  0.7798E+02  0.4744E+03
      4.490  0.6109E+02  0.4777E+03
      4.544  0.5480E+02  0.4807E+03
      4.599  0.5879E+02  0.4839E+03
      4.654  0.4925E+02  0.4866E+03
      4.708  0.4788E+02  0.4892E+03
      4.763  0.2686E+02  0.4907E+03
      4.818  0.3002E+02  0.4923E+03
      4.872  0.3129E+02  0.4940E+03
      4.927  0.3654E+02  0.4960E+03
      4.982  0.4300E+02  0.4984E+03
      5.036  0.3515E+02  0.5003E+03
      5.091  0.4384E+02  0.5027E+03
      5.146  0.1614E+02  0.5036E+03
      5.200  0.5153E+01  0.5039E+03
      5.255  0.5627E+01  0.5042E+03
      5.310  0.8819E+01  0.5047E+03
      5.364  0.1497E+02  0.5055E+03
      5.419  0.1798E+02  0.5065E+03
      5.474  0.3156E+02  0.5082E+03
      5.529  0.2034E+02  0.5093E+03
      5.583  0.1267E+02  0.5100E+03
      5.638  0.1365E+02  0.5107E+03
      5.693  0.1348E+02  0.5115E+03
      5.747  0.3078E+00  0.5115E+03
      5.802  0.4399E+01  0.5117E+03
      5.857  0.4746E+01  0.5120E+03
      5.911  0.0000E+00  0.5120E+03
      5.966  0.0000E+00  0.5120E+03
      6.021  0.0000E+00  0.5120E+03
      6.075  0.1507E-01  0.5120E+03
      6.130  0.7592E+01  0.5124E+03
      6.185  0.1419E+02  0.5132E+03
      6.239  0.1936E+02  0.5143E+03
      6.294  0.1058E+02  0.5148E+03
      6.349  0.1692E+02  0.5158E+03
      6.403  0.3081E+02  0.5174E+03
      6.458  0.1683E+02  0.5184E+03
      6.513  0.2153E+02  0.5195E+03
      6.567  0.2281E+02  0.5208E+03
      6.622  0.1738E+02  0.5217E+03
      6.677  0.1742E+02  0.5227E+03
      6.731  0.3318E+02  0.5245E+03
      6.786  0.3682E+02  0.5265E+03
      6.841  0.2762E+02  0.5280E+03
      6.895  0.3179E+02  0.5298E+03
      6.950  0.3030E+02  0.5314E+03
      7.005  0.5158E+02  0.5342E+03
      7.059  0.4123E+02  0.5365E+03
      7.114  0.3080E+02  0.5382E+03
      7.169  0.2891E+02  0.5398E+03
      7.223  0.4014E+02  0.5419E+03
      7.278  0.4919E+02  0.5446E+03
      7.333  0.5689E+02  0.5477E+03
      7.387  0.7887E+02  0.5521E+03
      7.442  0.8109E+02  0.5565E+03
      7.497  0.8442E+02  0.5611E+03
      7.551  0.8539E+02  0.5658E+03
      7.606  0.1008E+03  0.5713E+03
      7.661  0.8807E+02  0.5761E+03
      7.715  0.7502E+02  0.5802E+03
      7.770  0.9030E+02  0.5851E+03
      7.825  0.1008E+03  0.5907E+03
      7.879  0.9267E+02  0.5957E+03
      7.934  0.9722E+02  0.6010E+03
      7.989  0.9829E+02  0.6064E+03
      8.043  0.8659E+02  0.6111E+03
      8.098  0.8244E+02  0.6156E+03
      8.153  0.7725E+02  0.6199E+03
      8.207  0.8148E+02  0.6243E+03
      8.262  0.7877E+02  0.6286E+03
      8.317  0.7284E+02  0.6326E+03
      8.371  0.8134E+02  0.6371E+03
      8.426  0.8385E+02  0.6416E+03
      8.481  0.2932E+02  0.6432E+03
      8.536  0.1583E+01  0.6433E+03
      8.590  0.3384E+01  0.6435E+03
      8.645  0.8758E+01  0.6440E+03
      8.700  0.0000E+00  0.6440E+03
      8.754  0.0000E+00  0.6440E+03
      8.809  0.0000E+00  0.6440E+03
      8.864  0.0000E+00  0.6440E+03
      8.918  0.0000E+00  0.6440E+03
      8.973  0.0000E+00  0.6440E+03
      9.028  0.0000E+00  0.6440E+03
      9.082  0.0000E+00  0.6440E+03
      9.137  0.0000E+00  0.6440E+03
      9.192  0.0000E+00  0.6440E+03
      9.246  0.0000E+00  0.6440E+03
      9.301  0.0000E+00  0.6440E+03
      9.356  0.0000E+00  0.6440E+03
