 vasp.5.4.4.18Apr17-6-g9f103f2a35 (build Nov 08 2017 09:05:29) complex          
  
 executed on          Intel_17.33 date 2020.07.18  21:42:35
 running on   32 total cores
 distrk:  each k-point on   32 cores,    1 groups
 distr:  one band on NCORES_PER_BAND=  16 cores,    2 groups


--------------------------------------------------------------------------------------------------------


 INCAR:
 POTCAR:   PAW_PBE Si 05Jan2001                   

 ----------------------------------------------------------------------------- 
|                                                                             |
|           W    W    AA    RRRRR   N    N  II  N    N   GGGG   !!!           |
|           W    W   A  A   R    R  NN   N  II  NN   N  G    G  !!!           |
|           W    W  A    A  R    R  N N  N  II  N N  N  G       !!!           |
|           W WW W  AAAAAA  RRRRR   N  N N  II  N  N N  G  GGG   !            |
|           WW  WW  A    A  R   R   N   NN  II  N   NN  G    G                |
|           W    W  A    A  R    R  N    N  II  N    N   GGGG   !!!           |
|                                                                             |
|      For optimal performance we recommend to set                            |
|        NCORE= 4 - approx SQRT( number of cores)                             |
|      NCORE specifies how many cores store one orbital (NPAR=cpu/NCORE).     |
|      This setting can  greatly improve the performance of VASP for DFT.     |
|      The default,   NCORE=1            might be grossly inefficient         |
|      on modern multi-core architectures or massively parallel machines.     |
|      Do your own testing !!!!                                               |
|      Unfortunately you need to use the default for GW and RPA calculations. |
|      (for HF NCORE is supported but not extensively tested yet)             |
|                                                                             |
 ----------------------------------------------------------------------------- 

 POTCAR:   PAW_PBE Si 05Jan2001                   
   VRHFIN =Si: s2p2                                                             
   LEXCH  = PE                                                                  
   EATOM  =   103.0669 eV,    7.5752 Ry                                         
                                                                                
   TITEL  = PAW_PBE Si 05Jan2001                                                
   LULTRA =        F    use ultrasoft PP ?                                      
   IUNSCR =        1    unscreen: 0-lin 1-nonlin 2-no                           
   RPACOR =    1.500    partial core radius                                     
   POMASS =   28.085; ZVAL   =    4.000    mass and valenz                      
   RCORE  =    1.900    outmost cutoff radius                                   
   RWIGS  =    2.480; RWIGS  =    1.312    wigner-seitz radius (au A)           
   ENMAX  =  245.345; ENMIN  =  184.009 eV                                      
   ICORE  =        2    local potential                                         
   LCOR   =        T    correct aug charges                                     
   LPAW   =        T    paw PP                                                  
   EAUG   =  322.069                                                            
   DEXC   =    -.007                                                            
   RMAX   =    2.944    core radius for proj-oper                               
   RAUG   =    1.300    factor for augmentation sphere                          
   RDEP   =    1.993    radius for radial grids                                 
   QCUT   =   -4.246; QGAM   =    8.493    optimization parameters              
                                                                                
   Description                                                                  
     l     E      TYP  RCUT    TYP  RCUT                                        
     0   .000     23  1.900                                                     
     0   .000     23  1.900                                                     
     1   .000     23  1.900                                                     
     1   .000     23  1.900                                                     
     2   .000      7  1.900                                                     
  local pseudopotential read in
  partial core-charges read in
  atomic valenz-charges read in
  non local Contribution for L=           0  read in
    real space projection operators read in
  non local Contribution for L=           0  read in
    real space projection operators read in
  non local Contribution for L=           1  read in
    real space projection operators read in
  non local Contribution for L=           1  read in
    real space projection operators read in
    PAW grid and wavefunctions read in
 
   number of l-projection  operators is LMAX  =           4
   number of lm-projection operators is LMMAX =           8
 

 ----------------------------------------------------------------------------- 
|                                                                             |
|  ADVICE TO THIS USER RUNNING 'VASP/VAMP'   (HEAR YOUR MASTER'S VOICE ...):  |
|                                                                             |
|      You have a (more or less) 'large supercell' and for larger cells       |
|      it might be more efficient to use real space projection operators      |
|      So try LREAL= Auto  in the INCAR   file.                               |
|      Mind: If you want to do a very accurate calculations keep the          |
|      reciprocal projection scheme          (i.e. LREAL=.FALSE.)             |
|                                                                             |
 ----------------------------------------------------------------------------- 

 PAW_PBE Si 05Jan2001                   :
 energy of atom  1       EATOM= -103.0669
 kinetic energy error for atom=    0.0006 (will be added to EATOM!!)
 
 
 POSCAR: kk                                      
  positions in direct lattice
  No initial velocities read in
 exchange correlation table for  LEXCH =        8
   RHO(1)=    0.500       N(1)  =     2000
   RHO(2)=  100.500       N(2)  =     4000
 


--------------------------------------------------------------------------------------------------------


 ion  position               nearest neighbor table
   1  0.994  0.001  0.007-  77 2.30 113 2.33  68 2.36  65 2.49
   2  0.246  0.998  0.003-  65 2.22  78 2.29  66 2.45 114 2.61
   3  0.495  0.011  0.998- 115 2.33  66 2.40  79 2.46  67 2.50
   4  0.742  0.991  0.009-  67 2.23  80 2.26  68 2.47 116 2.56
   5  0.004  0.258  1.000-  69 2.20 117 2.37  65 2.38  72 2.40
   6  0.265  0.258  0.996-  70 2.25 118 2.33  69 2.48  66 2.53
   7  0.495  0.254  0.996- 119 2.35  67 2.38  70 2.39  71 2.44
   8  0.753  0.248  0.998-  68 2.33  71 2.35  72 2.41 120 2.49
   9  0.995  0.514  0.987-  76 2.24 121 2.29  73 2.35  69 2.56
  10  0.243  0.510  0.996-  70 2.34  73 2.34  74 2.37 122 2.51
  11  0.499  0.502  0.990-  74 2.26 123 2.40  71 2.49  75 2.51
  12  0.733  0.504  0.004-  75 2.19 124 2.35  76 2.42  72 2.47
  13  0.981  0.756  0.007-  80 2.20  73 2.34  77 2.52 125 2.61
  14  0.250  0.759  0.997-  77 2.29 126 2.31  78 2.40  74 2.57
  15  0.498  0.743  0.000- 127 2.28  75 2.32  79 2.38  78 2.39
  16  0.746  0.756  0.998- 128 2.29  80 2.39  79 2.48  76 2.50
  17  0.998  0.996  0.262-  93 2.28  81 2.30  84 2.31  65 2.59
  18  0.242  0.002  0.255-  81 2.24  66 2.26  82 2.30  94 2.52
  19  0.507  1.000  0.242-  67 2.18  95 2.38  83 2.52  82 2.54
  20  0.754  0.998  0.247-  68 2.27  96 2.32  83 2.37  84 2.43
  21  0.001  0.251  0.242-  88 2.35  69 2.37  81 2.37  85 2.59
  22  0.240  0.256  0.247-  85 2.23  70 2.31  82 2.40  86 2.42
  23  0.496  0.255  0.255-  87 2.22  83 2.32  71 2.39  86 2.48
  24  0.748  0.257  0.242-  72 2.23  88 2.30  87 2.39  84 2.44
  25  0.996  0.505  0.249-  89 2.34  92 2.36  85 2.41  73 2.48
  26  0.254  0.495  0.246-  86 2.20  89 2.34  74 2.35  90 2.47
  27  0.506  0.497  0.247-  75 2.25  87 2.26  91 2.29  90 2.29
  28  0.760  0.515  0.234-  76 2.28  92 2.30  91 2.52  88 2.55
  29  0.000  0.739  0.249-  89 2.31  96 2.32  77 2.50  93 2.63
  30  0.249  0.759  0.243-  78 2.19  93 2.23  94 2.43  90 2.53
  31  0.493  0.740  0.264-  94 2.22  91 2.40  95 2.42  79 2.54
  32  0.754  0.741  0.254-  92 2.24  80 2.32  96 2.47  95 2.54
  33  0.991  0.003  0.496- 109 2.31 100 2.34  81 2.36  97 2.53
  34  0.247  0.004  0.501-  98 2.20  97 2.36  82 2.40 110 2.50
  35  0.506  0.998  0.498-  99 2.33 111 2.34  83 2.39  98 2.58
  36  0.758  0.998  0.493- 112 2.29  84 2.29 100 2.37  99 2.46
  37  0.997  0.246  0.499- 104 2.18  85 2.28  97 2.28 101 2.29
  38  0.247  0.248  0.500-  86 2.37  98 2.38 102 2.38 101 2.45
  39  0.507  0.245  0.508- 103 2.17  99 2.35 102 2.45  87 2.57
  40  0.758  0.263  0.489- 104 2.35  88 2.40 103 2.42 100 2.61
  41  0.012  0.495  0.502- 101 2.35 105 2.37  89 2.43 108 2.57
  42  0.262  0.501  0.497- 106 2.31 102 2.37  90 2.40 105 2.42
  43  0.508  0.493  0.500- 103 2.27 107 2.28  91 2.30 106 2.48
  44  0.761  0.495  0.499- 108 2.28  92 2.33 104 2.44 107 2.48
  45  0.996  0.760  0.492-  93 2.35 112 2.39 105 2.41 109 2.49
  46  0.255  0.748  0.501- 106 2.24  94 2.25 110 2.29 109 2.35
  47  0.498  0.749  0.498-  95 2.21 110 2.29 107 2.42 111 2.48
  48  0.740  0.760  0.500- 111 2.30 112 2.32  96 2.38 108 2.50
  49  0.002  0.006  0.746-  97 2.28 125 2.34 113 2.36 116 2.40
  50  0.245  1.000  0.751- 113 2.33 114 2.35 126 2.35  98 2.38
  51  0.490  0.006  0.753- 114 2.29 115 2.32  99 2.39 127 2.41
  52  0.750  0.007  0.752- 116 2.25 100 2.28 128 2.38 115 2.40
  53  0.008  0.252  0.742- 101 2.33 117 2.35 120 2.37 113 2.49
  54  0.240  0.262  0.745- 117 2.20 118 2.33 114 2.37 102 2.39
  55  0.499  0.253  0.745- 118 2.40 103 2.46 115 2.47 119 2.49
  56  0.760  0.261  0.736- 104 2.13 120 2.37 119 2.44 116 2.45
  57  0.007  0.506  0.732- 105 2.24 121 2.41 117 2.49 124 2.64
  58  0.247  0.501  0.751- 122 2.22 121 2.28 106 2.42 118 2.43
  59  0.502  0.507  0.737- 107 2.23 123 2.35 119 2.42 122 2.47
  60  0.752  0.498  0.743- 120 2.23 124 2.24 108 2.26 123 2.27
  61  0.006  0.747  0.760- 125 2.31 121 2.33 128 2.56 109 2.60
  62  0.251  0.752  0.737- 110 2.20 125 2.28 122 2.30 126 2.53
  63  0.493  0.745  0.758- 126 2.29 123 2.37 111 2.38 127 2.41
  64  0.758  0.746  0.747- 112 2.38 128 2.38 124 2.46 127 2.60
  65  0.071  0.070  0.058-   2 2.22   5 2.38   1 2.49  17 2.59
  66  0.306  0.059  0.076-  18 2.26   3 2.40   2 2.45   6 2.53
  67  0.567  0.066  0.070-  19 2.18   4 2.23   7 2.38   3 2.50
  68  0.807  0.063  0.067-  20 2.27   8 2.33   1 2.36   4 2.47
  69  0.069  0.312  0.054-   5 2.20  21 2.37   6 2.48   9 2.56
  70  0.306  0.325  0.065-   6 2.25  22 2.31  10 2.34   7 2.39
  71  0.567  0.305  0.066-   8 2.35  23 2.39   7 2.44  11 2.49
  72  0.815  0.309  0.065-  24 2.23   5 2.40   8 2.41  12 2.47
  73  0.058  0.571  0.052-  10 2.34  13 2.34   9 2.35  25 2.48
  74  0.320  0.556  0.060-  11 2.26  26 2.35  10 2.37  14 2.57
  75  0.560  0.559  0.069-  12 2.19  27 2.25  15 2.32  11 2.51
  76  0.818  0.559  0.055-   9 2.24  28 2.28  12 2.42  16 2.50
  77  0.069  0.820  0.053-  14 2.29   1 2.30  29 2.50  13 2.52
  78  0.310  0.817  0.069-  30 2.19   2 2.29  15 2.39  14 2.40
  79  0.550  0.817  0.063-  15 2.38   3 2.46  16 2.48  31 2.54
  80  0.807  0.812  0.070-  13 2.20   4 2.26  32 2.32  16 2.39
  81  0.065  0.063  0.310-  18 2.24  17 2.30  33 2.36  21 2.37
  82  0.305  0.066  0.311-  18 2.30  22 2.40  34 2.40  19 2.54
  83  0.566  0.072  0.310-  23 2.32  20 2.37  35 2.39  19 2.52
  84  0.816  0.065  0.312-  36 2.29  17 2.31  20 2.43  24 2.44
  85  0.064  0.315  0.320-  22 2.23  37 2.28  25 2.41  21 2.59
  86  0.300  0.321  0.313-  26 2.20  38 2.37  22 2.42  23 2.48
  87  0.558  0.318  0.305-  23 2.22  27 2.26  24 2.39  39 2.57
  88  0.815  0.313  0.300-  24 2.30  21 2.35  40 2.40  28 2.55
  89  0.069  0.556  0.310-  29 2.31  25 2.34  26 2.34  41 2.43
  90  0.324  0.559  0.307-  27 2.29  42 2.40  26 2.47  30 2.53
  91  0.562  0.550  0.318-  27 2.29  43 2.30  31 2.40  28 2.52
  92  0.809  0.564  0.315-  32 2.24  28 2.30  44 2.33  25 2.36
  93  0.073  0.817  0.306-  30 2.23  17 2.28  45 2.35  29 2.63
  94  0.317  0.803  0.322-  31 2.22  46 2.25  30 2.43  18 2.52
  95  0.553  0.813  0.323-  47 2.21  19 2.38  31 2.42  32 2.54
  96  0.818  0.815  0.312-  29 2.32  20 2.32  48 2.38  32 2.47
  97  0.060  0.065  0.565-  37 2.28  49 2.28  34 2.36  33 2.53
  98  0.302  0.060  0.563-  34 2.20  38 2.38  50 2.38  35 2.58
  99  0.563  0.060  0.564-  35 2.33  39 2.35  51 2.39  36 2.46
 100  0.807  0.057  0.572-  52 2.28  33 2.34  36 2.37  40 2.61
 101  0.053  0.312  0.558-  37 2.29  53 2.33  41 2.35  38 2.45
 102  0.314  0.314  0.556-  42 2.37  38 2.38  54 2.39  39 2.45
 103  0.567  0.314  0.550-  39 2.17  43 2.27  40 2.42  55 2.46
 104  0.824  0.302  0.568-  56 2.13  37 2.18  40 2.35  44 2.44
 105  0.071  0.570  0.555-  57 2.24  41 2.37  45 2.41  42 2.42
 106  0.313  0.570  0.560-  46 2.24  42 2.31  58 2.42  43 2.48
 107  0.564  0.557  0.560-  59 2.23  43 2.28  47 2.42  44 2.48
 108  0.809  0.562  0.565-  60 2.26  44 2.28  48 2.50  41 2.57
 109  0.070  0.821  0.554-  33 2.31  46 2.35  45 2.49  61 2.60
 110  0.317  0.806  0.563-  62 2.20  47 2.29  46 2.29  34 2.50
 111  0.558  0.813  0.570-  48 2.30  35 2.34  63 2.38  47 2.48
 112  0.807  0.817  0.559-  36 2.29  48 2.32  64 2.38  45 2.39
 113  0.061  0.056  0.823-  50 2.33   1 2.33  49 2.36  53 2.49
 114  0.309  0.075  0.796-  51 2.29  50 2.35  54 2.37   2 2.61
 115  0.560  0.057  0.814-  51 2.32   3 2.33  52 2.40  55 2.47
 116  0.812  0.068  0.807-  52 2.25  49 2.40  56 2.45   4 2.56
 117  0.066  0.310  0.813-  54 2.20  53 2.35   5 2.37  57 2.49
 118  0.309  0.308  0.814-  54 2.33   6 2.33  55 2.40  58 2.43
 119  0.567  0.315  0.811-   7 2.35  59 2.42  56 2.44  55 2.49
 120  0.821  0.322  0.801-  60 2.23  53 2.37  56 2.37   8 2.49
 121  0.066  0.564  0.806-  58 2.28   9 2.29  61 2.33  57 2.41
 122  0.307  0.570  0.797-  58 2.22  62 2.30  59 2.47  10 2.51
 123  0.572  0.559  0.800-  60 2.27  59 2.35  63 2.37  11 2.40
 124  0.799  0.553  0.818-  60 2.24  12 2.35  64 2.46  57 2.64
 125  0.072  0.821  0.803-  62 2.28  61 2.31  49 2.34  13 2.61
 126  0.312  0.814  0.814-  63 2.29  14 2.31  50 2.35  62 2.53
 127  0.552  0.816  0.820-  15 2.28  51 2.41  63 2.41  64 2.60
 128  0.804  0.819  0.817-  16 2.29  64 2.38  52 2.38  61 2.56
 
  LATTYP: Found a face centered cubic cell.
 ALAT       =    21.8746673814
  
  Lattice vectors:
  
 A1 = (   0.0000000000,  10.9373336907,  10.9373336907)
 A2 = (  10.9373336907,   0.0000000000,  10.9373336907)
 A3 = (  10.9373336907,  10.9373336907,   0.0000000000)


Analysis of symmetry for initial positions (statically):
=====================================================================
 Subroutine PRICEL returns:
 Original cell was already a primitive cell.
 

 Routine SETGRP: Setting up the symmetry group for a 
 face centered cubic supercell.


 Subroutine GETGRP returns: Found  1 space group operations
 (whereof  1 operations were pure point group operations)
 out of a pool of 48 trial point group operations.


The static configuration has the point symmetry C_1 .


Analysis of symmetry for dynamics (positions and initial velocities):
=====================================================================
 Subroutine PRICEL returns:
 Original cell was already a primitive cell.
 

 Routine SETGRP: Setting up the symmetry group for a 
 face centered cubic supercell.


 Subroutine GETGRP returns: Found  1 space group operations
 (whereof  1 operations were pure point group operations)
 out of a pool of 48 trial point group operations.


The dynamic configuration has the point symmetry C_1 .


 Subroutine INISYM returns: Found  1 space group operations
 (whereof  1 operations are pure point group operations),
 and found     1 'primitive' translations

 
 
 KPOINTS: KPOINTS File, automatically generated by

Automatic generation of k-mesh.
Space group operators:
 irot       det(A)        alpha          n_x          n_y          n_z        tau_x        tau_y        tau_z
    1     1.000000     0.000001     1.000000     0.000000     0.000000     0.000000     0.000000     0.000000
 
 Subroutine IBZKPT returns following result:
 ===========================================
 
 Found      8 irreducible k-points:
 
 Following reciprocal coordinates:
            Coordinates               Weight
  0.000000  0.000000  0.000000      1.000000
  0.500000  0.000000  0.000000      1.000000
  0.000000  0.500000  0.000000      1.000000
  0.500000  0.500000  0.000000      1.000000
  0.000000  0.000000  0.500000      1.000000
  0.500000  0.000000  0.500000      1.000000
  0.000000  0.500000  0.500000      1.000000
  0.500000  0.500000  0.500000      1.000000
 
 Following cartesian coordinates:
            Coordinates               Weight
  0.000000  0.000000  0.000000      1.000000
 -0.022857  0.022857  0.022857      1.000000
  0.022857 -0.022857  0.022857      1.000000
  0.000000  0.000000  0.045715      1.000000
  0.022857  0.022857 -0.022857      1.000000
  0.000000  0.045715  0.000000      1.000000
  0.045715  0.000000  0.000000      1.000000
  0.022857  0.022857  0.022857      1.000000
 


--------------------------------------------------------------------------------------------------------




 Dimension of arrays:
   k-points           NKPTS =      8   k-points in BZ     NKDIM =      8   number of bands    NBANDS=    322
   number of dos      NEDOS =    301   number of ions     NIONS =    128
   non local maximal  LDIM  =      4   non local SUM 2l+1 LMDIM =      8
   total plane-waves  NPLWV = ******
   max r-space proj   IRMAX =      1   max aug-charges    IRDMAX= 176811
   dimension x,y,z NGX =   120 NGY =  120 NGZ =  120
   dimension x,y,z NGXF=   240 NGYF=  240 NGZF=  240
   support grid    NGXF=   480 NGYF=  480 NGZF=  480
   ions per type =             128
   NGX,Y,Z   is equivalent  to a cutoff of  12.90, 12.90, 12.90 a.u.
   NGXF,Y,Z  is equivalent  to a cutoff of  25.80, 25.80, 25.80 a.u.

 SYSTEM =  potpaw_PBE@./ARUN.APL1ZEROSTATE         
 POSCAR =  kk                                      

 Startparameter for this run:
   NWRITE =      2    write-flag & timer
   PREC   = accura    normal or accurate (medium, high low for compatibility)
   ISTART =      0    job   : 0-new  1-cont  2-samecut
   ICHARG =      2    charge: 1-file 2-atom 10-const
   ISPIN  =      1    spin polarized calculation?
   LNONCOLLINEAR =      F non collinear calculations
   LSORBIT =      F    spin-orbit coupling
   INIWAV =      1    electr: 0-lowe 1-rand  2-diag
   LASPH  =      F    aspherical Exc in radial PAW
   METAGGA=      F    non-selfconsistent MetaGGA calc.

 Electronic Relaxation 1
   ENCUT  =  500.0 eV  36.75 Ry    6.06 a.u.  28.20 28.20 28.20*2*pi/ulx,y,z
   ENINI  =  500.0     initial cutoff
   ENAUG  =  322.1 eV  augmentation charge cutoff
   NELM   =    120;   NELMIN=  4; NELMDL= -5     # of ELM steps 
   EDIFF  = 0.1E-07   stopping-criterion for ELM
   LREAL  =      F    real-space projection
   NLSPLINE    = F    spline interpolate recip. space projectors
   LCOMPAT=      F    compatible to vasp.4.4
   GGA_COMPAT  = T    GGA compatible to vasp.4.4-vasp.4.6
   LMAXPAW     = -100 max onsite density
   LMAXMIX     =    2 max onsite mixed and CHGCAR
   VOSKOWN=      0    Vosko Wilk Nusair interpolation
   ROPT   =    0.00000
 Ionic relaxation
   EDIFFG = 0.1E-06   stopping-criterion for IOM
   NSW    =      0    number of steps for IOM
   NBLOCK =      1;   KBLOCK =      1    inner block; outer block 
   IBRION =     -1    ionic relax: 0-MD 1-quasi-New 2-CG
   NFREE  =      0    steps in history (QN), initial steepest desc. (CG)
   ISIF   =      2    stress and relaxation
   IWAVPR =     10    prediction:  0-non 1-charg 2-wave 3-comb
   ISYM   =      2    0-nonsym 1-usesym 2-fastsym
   LCORR  =      T    Harris-Foulkes like correction to forces

   POTIM  = 0.5000    time-step for ionic-motion
   TEIN   =    0.0    initial temperature
   TEBEG  =    0.0;   TEEND  =   0.0 temperature during run
   SMASS  =  -3.00    Nose mass-parameter (am)
   estimated Nose-frequenzy (Omega)   =  0.10E-29 period in steps =****** mass=  -0.547E-26a.u.
   SCALEE = 1.0000    scale energy and forces
   NPACO  =    256;   APACO  = 16.0  distance and # of slots for P.C.
   PSTRESS=    0.0 pullay stress

  Mass of Ions in am
   POMASS =  28.09
  Ionic Valenz
   ZVAL   =   4.00
  Atomic Wigner-Seitz radii
   RWIGS  =  -1.00
  virtual crystal weights 
   VCA    =   1.00
   NELECT =     512.0000    total number of electrons
   NUPDOWN=      -1.0000    fix difference up-down

 DOS related values:
   EMIN   =  10.00;   EMAX   =-10.00  energy-range for DOS
   EFERMI =   0.00
   ISMEAR =     0;   SIGMA  =   0.01  broadening in eV -4-tet -1-fermi 0-gaus

 Electronic relaxation 2 (details)
   IALGO  =     38    algorithm
   LDIAG  =      T    sub-space diagonalisation (order eigenvalues)
   LSUBROT=      F    optimize rotation matrix (better conditioning)
   TURBO    =      0    0=normal 1=particle mesh
   IRESTART =      0    0=no restart 2=restart with 2 vectors
   NREBOOT  =      0    no. of reboots
   NMIN     =      0    reboot dimension
   EREF     =   0.00    reference energy to select bands
   IMIX   =      4    mixing-type and parameters
     AMIX     =   0.40;   BMIX     =  1.00
     AMIX_MAG =   1.60;   BMIX_MAG =  1.00
     AMIN     =   0.10
     WC   =   100.;   INIMIX=   1;  MIXPRE=   1;  MAXMIX= -45

 Intra band minimization:
   WEIMIN = 0.0000     energy-eigenvalue tresh-hold
   EBREAK =  0.78E-11  absolut break condition
   DEPER  =   0.30     relativ break condition  

   TIME   =   0.40     timestep for ELM

  volume/ion in A,a.u.               =      20.44       137.96
  Fermi-wavevector in a.u.,A,eV,Ry     =   0.950408  1.796010 12.289804  0.903275
  Thomas-Fermi vector in A             =   2.078782
 
 Write flags
   LWAVE        =      F    write WAVECAR
   LDOWNSAMPLE  =      F    k-point downsampling of WAVECAR
   LCHARG       =      F    write CHGCAR
   LVTOT        =      F    write LOCPOT, total local potential
   LVHAR        =      F    write LOCPOT, Hartree potential only
   LELF         =      F    write electronic localiz. function (ELF)
   LORBIT       =      0    0 simple, 1 ext, 2 COOP (PROOUT), +10 PAW based schemes


 Dipole corrections
   LMONO  =      F    monopole corrections only (constant potential shift)
   LDIPOL =      F    correct potential (dipole corrections)
   IDIPOL =      0    1-x, 2-y, 3-z, 4-all directions 
   EPSILON=  1.0000000 bulk dielectric constant

 Exchange correlation treatment:
   GGA     =    --    GGA type
   LEXCH   =     8    internal setting for exchange type
   VOSKOWN=      0    Vosko Wilk Nusair interpolation
   LHFCALC =     F    Hartree Fock is set to
   LHFONE  =     F    Hartree Fock one center treatment
   AEXX    =    0.0000 exact exchange contribution

 Linear response parameters
   LEPSILON=     F    determine dielectric tensor
   LRPA    =     F    only Hartree local field effects (RPA)
   LNABLA  =     F    use nabla operator in PAW spheres
   LVEL    =     F    velocity operator in full k-point grid
   LINTERFAST=   F  fast interpolation
   KINTER  =     0    interpolate to denser k-point grid
   CSHIFT  =0.1000    complex shift for real part using Kramers Kronig
   OMEGAMAX=  -1.0    maximum frequency
   DEG_THRESHOLD= 0.2000000E-02 threshold for treating states as degnerate
   RTIME   =   -0.100 relaxation time in fs
  (WPLASMAI=    0.000 imaginary part of plasma frequency in eV, 0.658/RTIME)
   DFIELD  = 0.0000000 0.0000000 0.0000000 field for delta impulse in time
 
 Orbital magnetization related:
   ORBITALMAG=     F  switch on orbital magnetization
   LCHIMAG   =     F  perturbation theory with respect to B field
   DQ        =  0.001000  dq finite difference perturbation B field
   LLRAUG    =     F  two centre corrections for induced B field



--------------------------------------------------------------------------------------------------------


 Static calculation
 charge density and potential will be updated during run
 non-spin polarized calculation
 Variant of blocked Davidson
 Davidson routine will perform the subspace rotation
 perform sub-space diagonalisation
    after iterative eigenvector-optimisation
 modified Broyden-mixing scheme, WC =      100.0
 initial mixing is a Kerker type mixing with AMIX =  0.4000 and BMIX =      1.0000
 Hartree-type preconditioning will be used
 using additional bands           66
 reciprocal scheme for non local part
 use partial core corrections
 calculate Harris-corrections to forces 
   (improved forces if not selfconsistent)
 use gradient corrections 
 use of overlap-Matrix (Vanderbilt PP)
 Gauss-broadening in eV      SIGMA  =   0.01


--------------------------------------------------------------------------------------------------------


  energy-cutoff  :      500.00
  volume of cell :     2616.76
      direct lattice vectors                 reciprocal lattice vectors
     0.000000000 10.937333691 10.937333691    -0.045714981  0.045714981  0.045714981
    10.937333691  0.000000000 10.937333691     0.045714981 -0.045714981  0.045714981
    10.937333691 10.937333691  0.000000000     0.045714981  0.045714981 -0.045714981

  length of vectors
    15.467725642 15.467725642 15.467725642     0.079180669  0.079180669  0.079180669


 
 k-points in units of 2pi/SCALE and weight: KPOINTS File, automatically generated by
   0.00000000  0.00000000  0.00000000       0.125
  -0.02285749  0.02285749  0.02285749       0.125
   0.02285749 -0.02285749  0.02285749       0.125
   0.00000000  0.00000000  0.04571498       0.125
   0.02285749  0.02285749 -0.02285749       0.125
   0.00000000  0.04571498  0.00000000       0.125
   0.04571498  0.00000000  0.00000000       0.125
   0.02285749  0.02285749  0.02285749       0.125
 
 k-points in reciprocal lattice and weights: KPOINTS File, automatically generated by
   0.00000000  0.00000000  0.00000000       0.125
   0.50000000  0.00000000  0.00000000       0.125
   0.00000000  0.50000000  0.00000000       0.125
   0.50000000  0.50000000  0.00000000       0.125
   0.00000000  0.00000000  0.50000000       0.125
   0.50000000  0.00000000  0.50000000       0.125
   0.00000000  0.50000000  0.50000000       0.125
   0.50000000  0.50000000  0.50000000       0.125
 
 position of ions in fractional coordinates (direct lattice) 
   0.99358764  0.00149258  0.00677418
   0.24570842  0.99831989  0.00276987
   0.49498321  0.01137813  0.99789781
   0.74201750  0.99118449  0.00944958
   0.00414202  0.25789005  0.99969061
   0.26460652  0.25781898  0.99612927
   0.49519492  0.25354696  0.99635700
   0.75291565  0.24775608  0.99814052
   0.99469519  0.51396829  0.98653635
   0.24329453  0.50960286  0.99577239
   0.49864269  0.50155505  0.98990990
   0.73291538  0.50430535  0.00353271
   0.98112831  0.75606840  0.00732710
   0.25045596  0.75915166  0.99680012
   0.49838540  0.74306578  0.00022136
   0.74575143  0.75606613  0.99824535
   0.99839720  0.99637319  0.26210338
   0.24214779  0.00236626  0.25495881
   0.50675781  0.99968651  0.24154124
   0.75374344  0.99847457  0.24715711
   0.00099867  0.25079546  0.24183756
   0.23985211  0.25577454  0.24658086
   0.49595115  0.25503482  0.25467164
   0.74761954  0.25717657  0.24189592
   0.99640092  0.50541404  0.24854527
   0.25413918  0.49530553  0.24578878
   0.50589240  0.49681924  0.24706602
   0.75952559  0.51456081  0.23384510
   0.00014961  0.73880020  0.24926882
   0.24909793  0.75928230  0.24255503
   0.49267680  0.74046204  0.26351987
   0.75412168  0.74139487  0.25373057
   0.99103301  0.00271416  0.49633938
   0.24676847  0.00409490  0.50063248
   0.50568689  0.99751864  0.49841753
   0.75759895  0.99824715  0.49320411
   0.99677322  0.24572131  0.49939421
   0.24729618  0.24826720  0.49986822
   0.50734782  0.24549281  0.50755721
   0.75807471  0.26256441  0.48928236
   0.01176279  0.49540333  0.50168892
   0.26241998  0.50075381  0.49691171
   0.50836356  0.49336267  0.49976985
   0.76075499  0.49518250  0.49900566
   0.99621255  0.75974202  0.49182708
   0.25523114  0.74816887  0.50051279
   0.49778132  0.74866946  0.49806735
   0.74034023  0.75952681  0.49990849
   0.00153232  0.00611987  0.74579875
   0.24477489  0.99989575  0.75137013
   0.48955117  0.00642058  0.75267984
   0.74976089  0.00720042  0.75182628
   0.00817937  0.25243589  0.74164000
   0.23966273  0.26240016  0.74532128
   0.49882500  0.25258656  0.74484407
   0.75989617  0.26097612  0.73552957
   0.00682584  0.50648512  0.73247292
   0.24659663  0.50083106  0.75100736
   0.50214814  0.50664975  0.73710808
   0.75187373  0.49785511  0.74346900
   0.00633592  0.74670725  0.76006110
   0.25121002  0.75237418  0.73669715
   0.49346065  0.74531598  0.75816247
   0.75835901  0.74645614  0.74708192
   0.07084314  0.06986173  0.05759285
   0.30550308  0.05917479  0.07585749
   0.56667686  0.06587987  0.06965556
   0.80698212  0.06333342  0.06741009
   0.06945843  0.31175619  0.05440183
   0.30637766  0.32463047  0.06458372
   0.56704910  0.30478689  0.06623085
   0.81481970  0.30945745  0.06533407
   0.05781432  0.57146932  0.05202524
   0.31976888  0.55584753  0.05966884
   0.55997099  0.55948234  0.06865349
   0.81780797  0.55863723  0.05471158
   0.06937422  0.82037806  0.05293090
   0.30998410  0.81709217  0.06891554
   0.54957348  0.81721175  0.06261627
   0.80722410  0.81211702  0.07003057
   0.06493531  0.06323941  0.31015435
   0.30530207  0.06589430  0.31051830
   0.56628769  0.07161467  0.30981980
   0.81565236  0.06451910  0.31179345
   0.06438180  0.31470550  0.31967645
   0.29968611  0.32135580  0.31272486
   0.55840535  0.31841800  0.30474212
   0.81495071  0.31314474  0.30027230
   0.06892531  0.55640684  0.30973894
   0.32446282  0.55917061  0.30687960
   0.56244436  0.55043264  0.31778094
   0.80940920  0.56416469  0.31516424
   0.07294686  0.81717643  0.30611668
   0.31661903  0.80330735  0.32248097
   0.55292712  0.81254670  0.32286491
   0.81764037  0.81472355  0.31193654
   0.06007801  0.06528854  0.56494954
   0.30176859  0.06027938  0.56323035
   0.56272400  0.05995491  0.56359829
   0.80664317  0.05739948  0.57210462
   0.05332244  0.31172439  0.55821153
   0.31379730  0.31356824  0.55631748
   0.56707909  0.31387764  0.55014985
   0.82429475  0.30230024  0.56751713
   0.07110860  0.56969431  0.55529723
   0.31254170  0.57047385  0.55971120
   0.56426951  0.55714235  0.56045752
   0.80858611  0.56165381  0.56494264
   0.06961103  0.82092929  0.55390876
   0.31671818  0.80588886  0.56294783
   0.55832086  0.81267178  0.57010830
   0.80685268  0.81716516  0.55915558
   0.06094754  0.05629208  0.82271314
   0.30897551  0.07542730  0.79636911
   0.56021620  0.05713851  0.81433550
   0.81185654  0.06769039  0.80745576
   0.06602992  0.30957502  0.81279335
   0.30911767  0.30823956  0.81374008
   0.56695911  0.31535568  0.81068937
   0.82101784  0.32175129  0.80108603
   0.06631124  0.56356934  0.80609931
   0.30659431  0.57005619  0.79730632
   0.57237716  0.55914388  0.80023936
   0.79891512  0.55336562  0.81780116
   0.07150646  0.82113928  0.80256698
   0.31199566  0.81421531  0.81426607
   0.55239568  0.81552154  0.82002067
   0.80387560  0.81876634  0.81692706
 
 position of ions in cartesian coordinates  (Angst):
   0.09041631 10.94129104 10.88352451
  10.94925272  2.71768992 13.60635271
  11.03878778 16.32813793  5.53824296
  10.94426863  8.21904617 18.95660848
  13.75457932 10.97925246  2.86593223
  13.71485044 13.78908804  5.71394195
  13.67061673 16.31360108  8.18923980
  13.62678685 19.15188561 10.94468057
  16.41151997 21.66939051 16.50075593
  16.46479153 13.55208844  8.23469008
  16.31264985 16.28079637 10.93949639
   5.55439428  8.05477852 13.53189593
   8.34951133 10.81106665 19.00030007
  19.20543064 13.64165593 11.04241543
   8.12957945  5.45342853 13.57816585
  19.18749010 19.07467470 16.42587981
  13.76437818 13.78651544 21.81746937
   2.81445023  5.43702077  2.67433174
  13.57572217  8.18439641 16.47648421
  13.62388929 10.94718335 19.16459307
   5.38809177  2.65598089  2.75395644
   5.49442861  5.32027968  5.42083399
   5.57482972  8.20981194  8.21378414
   5.45852231 10.82266072 10.98979029
   8.24630456 13.61639193 16.42585138
   8.10559569  5.46787887  8.19692683
   8.13612129  8.23535753 10.96699176
   8.18556518 10.86482681 13.93510812
  10.80684066  2.72797268  8.08214071
  10.95742914  5.37737245 11.02899098
  10.98088512  8.27077526 13.48725090
  10.88401900 11.02321645 16.35696355
   5.45831511 16.26788821 10.86894437
   5.52037171  8.17457355  2.74377637
  16.36155314 10.98222512 16.44106053
  16.31250006 13.68045040 19.20427461
   8.14957702 16.36408248 13.58957728
   8.18260674  8.17198637  5.42014212
   8.23635935 11.10035493  8.23406922
   8.22319902 13.64276045 11.16307064
  10.90553069  5.61579277  5.54704511
  10.91180066  8.30506401  8.34708633
  10.86222178 11.02629152 10.95621398
  10.87376772 13.77842265 13.73660744
  13.68882897 16.27518608 19.20546117
  13.65724797  8.26582351 10.97452068
  13.63597646 10.89192916 13.63284806
  13.77486418 13.56501414 16.40454638
   8.22398489  8.17380924  0.08369457
  19.15417936 10.89517051 13.61337813
   8.30253456 13.58669504  5.42460849
   8.30172828 16.42335992  8.27913837
  10.87253979  8.20102464  2.85043605
  11.02178569 10.77309885  5.49122942
  10.90923166 13.60242365  8.21843896
  10.89911531 16.35597032 11.16562088
  13.55089746  8.08595724  5.61425321
  13.69177460 10.91112775  8.17486610
  13.60339445 13.55415879 11.03355916
  13.57677595 16.35506234 13.66870127
  16.48002823  8.38234002  8.23628445
  16.28647000 10.80507038 10.97653530
  16.44404546 13.68941973 13.54891333
  16.33532409 16.46550978 16.45866546
   1.39401329  1.40474736  1.53893614
   1.47689312  4.17106782  3.98860349
   1.48239623  6.95977999  6.91848399
   1.42998542  9.56351939  9.51893157
   4.00479243  1.35470101  4.16947152
   4.25696551  4.05732840  6.90154654
   4.05794490  6.92639419  9.53556123
   4.09921999  9.62653548 12.29659437
   6.81936808  1.20135187  6.88268514
   6.73210791  4.15003693  9.57690888
   6.87013108  6.87547561 12.24383452
   6.70840059  9.54303748 15.05464044
   9.55167155  1.33769184  9.73151758
   9.69056203  4.14415184 12.32720934
   9.62297266  6.69572363 14.94898621
   9.64834253  9.59482707 17.71127420
   4.08393213  4.10248070  1.40188966
   4.11695025  6.73543293  4.05989859
   4.17187606  9.58227994  6.97695096
   4.11585599 12.33125107  9.62672896
   6.93844708  4.20057329  4.14620426
   6.93515183  6.69814311  6.79254262
   6.81571015  9.44053193  9.59010954
   6.70914682 12.19756624 12.33835637
   9.47332545  4.14157729  6.83946643
   9.47228009  6.90520264  9.66459361
   9.49594159  9.62731779 12.17190701
   9.61751394 12.29983498 15.02323606
  12.28583155  4.14594439  9.73557538
  12.31312245  6.99004993 12.24900848
  12.41837564  9.57882963 14.93464277
  12.32265737 12.35455958 17.85370893
   6.89312417  6.83613485  1.37117573
   6.81953401  9.46078202  3.95983949
   6.82000943 12.31896271  6.81044702
   6.88509633 15.07982463  9.45032274
   9.51477937  6.68855110  3.99263901
   9.51423043  9.51673566  6.86170627
   9.45015693 12.21950566  9.63531768
   9.51348276 15.22271091 12.32194525
  12.30440782  6.85120959  7.00867525
  12.36121098  9.54012109  9.65783573
  12.22356272 12.30151481 12.26525575
  12.32196132 15.02274224 14.98677119
  15.03706249  6.81964392  9.74013662
  14.97142367  9.62120072 12.27832783
  15.12392716 12.34200628 14.99500401
  15.05327920 14.94048824 17.76242503
   9.61397343  9.66489175  1.28228883
   9.53512821 12.08952297  4.20434183
   9.53160203 15.03393061  6.75221449
   9.57176551 17.71095900  9.61989830
  12.27571736  9.61198338  4.10811657
  12.27146564 12.28106983  6.75224196
  12.31593040 15.06780104  9.65017123
  12.28084647 17.74149136 12.49884735
  14.98052315  9.54184539  6.88921416
  14.95530003 12.07372954  9.58821902
  14.86802816 15.01276491 12.37582319
  14.99690860 17.68256548 14.79034573
  17.75901717  9.56003287  9.76316434
  17.81124422 12.31830034 12.31774521
  17.88847093 15.01057554 14.96136706
  17.89012460 17.72725959 17.74737644
 


--------------------------------------------------------------------------------------------------------


 k-point  1 :   0.0000 0.0000 0.0000  plane waves:   66299
 k-point  2 :   0.5000 0.0000 0.0000  plane waves:   66394
 k-point  3 :   0.0000 0.5000 0.0000  plane waves:   66394
 k-point  4 :   0.5000 0.5000 0.0000  plane waves:   66552
 k-point  5 :   0.0000 0.0000 0.5000  plane waves:   66394
 k-point  6 :   0.5000 0.0000 0.5000  plane waves:   66552
 k-point  7 :   0.0000 0.5000 0.5000  plane waves:   66552
 k-point  8 :   0.5000 0.5000 0.5000  plane waves:   66394

 maximum and minimum number of plane-waves per node :      4207     4110

 maximum number of plane-waves:     66552
 maximum index in each direction: 
   IXMAX=   28   IYMAX=   28   IZMAX=   28
   IXMIN=  -28   IYMIN=  -28   IZMIN=  -28


 parallel 3D FFT for wavefunctions:
    minimum data exchange during FFTs selected (reduces bandwidth)
 parallel 3D FFT for charge:
    minimum data exchange during FFTs selected (reduces bandwidth)


 total amount of memory used by VASP MPI-rank0   221701. kBytes
=======================================================================

   base      :      30000. kBytes
   nonl-proj :      10690. kBytes
   fftplans  :      66746. kBytes
   grid      :      26864. kBytes
   one-center:         24. kBytes
   wavefun   :      87377. kBytes
 
     INWAV:  cpu time    0.0000: real time    0.0000
 Broyden mixing: mesh for mixing (old mesh)
   NGX = 57   NGY = 57   NGZ = 57
  (NGX  =240   NGY  =240   NGZ  =240)
  gives a total of 185193 points

 initial charge density was supplied:
 charge density of overlapping atoms calculated
 number of electron     512.0000000 magnetization 
 keeping initial charge density in first step


--------------------------------------------------------------------------------------------------------


 Maximum index for augmentation-charges         5608 (set IRDMAX)


--------------------------------------------------------------------------------------------------------


 First call to EWALD:  gamma=   0.129
 Maximum number of real-space cells 3x 3x 3
 Maximum number of reciprocal cells 3x 3x 3

    FEWALD:  cpu time    0.0067: real time    0.0067


--------------------------------------- Iteration      1(   1)  ---------------------------------------


    POTLOK:  cpu time    0.4872: real time    0.4954
    SETDIJ:  cpu time    0.5055: real time    0.5058
     EDDAV:  cpu time   69.9590: real time   69.9927
       DOS:  cpu time    0.0054: real time    0.0054
    --------------------------------------------
      LOOP:  cpu time   70.9571: real time   70.9993

 eigenvalue-minimisations  :  5152
 total energy-change (2. order) : 0.1382498E+04  (-0.1908230E+05)
 number of electron     512.0000000 magnetization 
 augmentation part      512.0000000 magnetization 

 Free energy of the ion-electron system (eV)
  ---------------------------------------------------
  alpha Z        PSCENC =       210.77028614
  Ewald energy   TEWEN  =    -14473.68152379
  -Hartree energ DENC   =      -755.38547805
  -exchange      EXHF   =         0.00000000
  -V(xc)+E(xc)   XCENC  =     -1195.33821676
  PAW double counting   =      4221.13331941    -1969.18571412
  entropy T*S    EENTRO =        -0.00224428
  eigenvalues    EBANDS =      2151.70682500
  atomic energy  EATOM  =     13192.48085998
  Solvation  Ediel_sol  =         0.00000000
  ---------------------------------------------------
  free energy    TOTEN  =      1382.49811355 eV

  energy without entropy =     1382.50035782  energy(sigma->0) =     1382.49923569


--------------------------------------------------------------------------------------------------------




--------------------------------------- Iteration      1(   2)  ---------------------------------------


     EDDAV:  cpu time   80.1289: real time   80.1600
       DOS:  cpu time    0.0040: real time    0.0040
    --------------------------------------------
      LOOP:  cpu time   80.1328: real time   80.1640

 eigenvalue-minimisations  :  6120
 total energy-change (2. order) :-0.1920932E+04  (-0.1826607E+04)
 number of electron     512.0000000 magnetization 
 augmentation part      512.0000000 magnetization 

 Free energy of the ion-electron system (eV)
  ---------------------------------------------------
  alpha Z        PSCENC =       210.77028614
  Ewald energy   TEWEN  =    -14473.68152379
  -Hartree energ DENC   =      -755.38547805
  -exchange      EXHF   =         0.00000000
  -V(xc)+E(xc)   XCENC  =     -1195.33821676
  PAW double counting   =      4221.13331941    -1969.18571412
  entropy T*S    EENTRO =        -0.00107245
  eigenvalues    EBANDS =       230.77377411
  atomic energy  EATOM  =     13192.48085998
  Solvation  Ediel_sol  =         0.00000000
  ---------------------------------------------------
  free energy    TOTEN  =      -538.43376551 eV

  energy without entropy =     -538.43269306  energy(sigma->0) =     -538.43322928


--------------------------------------------------------------------------------------------------------




--------------------------------------- Iteration      1(   3)  ---------------------------------------


     EDDAV:  cpu time   81.7760: real time   81.8042
       DOS:  cpu time    0.0012: real time    0.0012
    --------------------------------------------
      LOOP:  cpu time   81.7772: real time   81.8053

 eigenvalue-minimisations  :  6296
 total energy-change (2. order) :-0.1495340E+03  (-0.1465545E+03)
 number of electron     512.0000000 magnetization 
 augmentation part      512.0000000 magnetization 

 Free energy of the ion-electron system (eV)
  ---------------------------------------------------
  alpha Z        PSCENC =       210.77028614
  Ewald energy   TEWEN  =    -14473.68152379
  -Hartree energ DENC   =      -755.38547805
  -exchange      EXHF   =         0.00000000
  -V(xc)+E(xc)   XCENC  =     -1195.33821676
  PAW double counting   =      4221.13331941    -1969.18571412
  entropy T*S    EENTRO =        -0.00000000
  eigenvalues    EBANDS =        81.23867910
  atomic energy  EATOM  =     13192.48085998
  Solvation  Ediel_sol  =         0.00000000
  ---------------------------------------------------
  free energy    TOTEN  =      -687.96778807 eV

  energy without entropy =     -687.96778807  energy(sigma->0) =     -687.96778807


--------------------------------------------------------------------------------------------------------




--------------------------------------- Iteration      1(   4)  ---------------------------------------


     EDDAV:  cpu time   80.3555: real time   80.3903
       DOS:  cpu time    0.0013: real time    0.0013
    --------------------------------------------
      LOOP:  cpu time   80.3568: real time   80.3915

 eigenvalue-minimisations  :  6152
 total energy-change (2. order) :-0.4142620E+01  (-0.4109309E+01)
 number of electron     512.0000000 magnetization 
 augmentation part      512.0000000 magnetization 

 Free energy of the ion-electron system (eV)
  ---------------------------------------------------
  alpha Z        PSCENC =       210.77028614
  Ewald energy   TEWEN  =    -14473.68152379
  -Hartree energ DENC   =      -755.38547805
  -exchange      EXHF   =         0.00000000
  -V(xc)+E(xc)   XCENC  =     -1195.33821676
  PAW double counting   =      4221.13331941    -1969.18571412
  entropy T*S    EENTRO =        -0.00000000
  eigenvalues    EBANDS =        77.09605917
  atomic energy  EATOM  =     13192.48085998
  Solvation  Ediel_sol  =         0.00000000
  ---------------------------------------------------
  free energy    TOTEN  =      -692.11040800 eV

  energy without entropy =     -692.11040800  energy(sigma->0) =     -692.11040800


--------------------------------------------------------------------------------------------------------




--------------------------------------- Iteration      1(   5)  ---------------------------------------


     EDDAV:  cpu time   82.0313: real time   82.0503
       DOS:  cpu time    0.0012: real time    0.0012
    CHARGE:  cpu time    3.2613: real time    3.2650
    MIXING:  cpu time    0.0442: real time    0.0442
    --------------------------------------------
      LOOP:  cpu time   85.3380: real time   85.3608

 eigenvalue-minimisations  :  6320
 total energy-change (2. order) :-0.1418692E+00  (-0.1414687E+00)
 number of electron     511.9999998 magnetization 
 augmentation part      -30.1673146 magnetization 

 Broyden mixing:
  rms(total) = 0.23960E+01    rms(broyden)= 0.23960E+01
  rms(prec ) = 0.29047E+01
  weight for this iteration     100.00

 Free energy of the ion-electron system (eV)
  ---------------------------------------------------
  alpha Z        PSCENC =       210.77028614
  Ewald energy   TEWEN  =    -14473.68152379
  -Hartree energ DENC   =      -755.38547805
  -exchange      EXHF   =         0.00000000
  -V(xc)+E(xc)   XCENC  =     -1195.33821676
  PAW double counting   =      4221.13331941    -1969.18571412
  entropy T*S    EENTRO =        -0.00000000
  eigenvalues    EBANDS =        76.95419000
  atomic energy  EATOM  =     13192.48085998
  Solvation  Ediel_sol  =         0.00000000
  ---------------------------------------------------
  free energy    TOTEN  =      -692.25227718 eV

  energy without entropy =     -692.25227718  energy(sigma->0) =     -692.25227718


--------------------------------------------------------------------------------------------------------




--------------------------------------- Iteration      1(   6)  ---------------------------------------


    POTLOK:  cpu time    0.4875: real time    0.4889
    SETDIJ:  cpu time    0.5171: real time    0.5171
     EDDAV:  cpu time   78.0398: real time   78.0733
       DOS:  cpu time    0.0012: real time    0.0012
    CHARGE:  cpu time    3.2531: real time    3.2551
    MIXING:  cpu time    0.0475: real time    0.0475
    --------------------------------------------
      LOOP:  cpu time   82.3461: real time   82.3831

 eigenvalue-minimisations  :  5944
 total energy-change (2. order) : 0.8426503E+01  (-0.5782046E+00)
 number of electron     511.9999998 magnetization 
 augmentation part      -29.8284641 magnetization 

 Broyden mixing:
  rms(total) = 0.14242E+01    rms(broyden)= 0.14242E+01
  rms(prec ) = 0.17168E+01
  weight for this iteration     100.00

 eigenvalues of (default mixing * dielectric matrix)
  average eigenvalue GAMMA=   2.4327
  2.4327

 Free energy of the ion-electron system (eV)
  ---------------------------------------------------
  alpha Z        PSCENC =       210.77028614
  Ewald energy   TEWEN  =    -14473.68152379
  -Hartree energ DENC   =      -850.67396058
  -exchange      EXHF   =         0.00000000
  -V(xc)+E(xc)   XCENC  =     -1180.67334149
  PAW double counting   =      4465.42235830    -2220.23664298
  entropy T*S    EENTRO =        -0.00000000
  eigenvalues    EBANDS =       172.76619028
  atomic energy  EATOM  =     13192.48085998
  Solvation  Ediel_sol  =         0.00000000
  ---------------------------------------------------
  free energy    TOTEN  =      -683.82577414 eV

  energy without entropy =     -683.82577414  energy(sigma->0) =     -683.82577414


--------------------------------------------------------------------------------------------------------




--------------------------------------- Iteration      1(   7)  ---------------------------------------


    POTLOK:  cpu time    0.4876: real time    0.4891
    SETDIJ:  cpu time    0.5150: real time    0.5189
     EDDAV:  cpu time   77.5923: real time   77.6205
       DOS:  cpu time    0.0014: real time    0.0014
    CHARGE:  cpu time    3.2611: real time    3.2616
    MIXING:  cpu time    0.0450: real time    0.0450
    --------------------------------------------
      LOOP:  cpu time   81.9024: real time   81.9366

 eigenvalue-minimisations  :  5896
 total energy-change (2. order) : 0.3523443E+01  (-0.1124952E+01)
 number of electron     511.9999998 magnetization 
 augmentation part      -29.3741497 magnetization 

 Broyden mixing:
  rms(total) = 0.15557E+00    rms(broyden)= 0.15557E+00
  rms(prec ) = 0.20317E+00
  weight for this iteration     100.00

 eigenvalues of (default mixing * dielectric matrix)
  average eigenvalue GAMMA=   2.1093
  2.1093  2.1093

 Free energy of the ion-electron system (eV)
  ---------------------------------------------------
  alpha Z        PSCENC =       210.77028614
  Ewald energy   TEWEN  =    -14473.68152379
  -Hartree energ DENC   =     -1001.51050312
  -exchange      EXHF   =         0.00000000
  -V(xc)+E(xc)   XCENC  =     -1156.69772899
  PAW double counting   =      4785.00892110    -2548.35058317
  entropy T*S    EENTRO =        -0.00000000
  eigenvalues    EBANDS =       311.67794047
  atomic energy  EATOM  =     13192.48085998
  Solvation  Ediel_sol  =         0.00000000
  ---------------------------------------------------
  free energy    TOTEN  =      -680.30233136 eV

  energy without entropy =     -680.30233136  energy(sigma->0) =     -680.30233136


--------------------------------------------------------------------------------------------------------




--------------------------------------- Iteration      1(   8)  ---------------------------------------


    POTLOK:  cpu time    0.4897: real time    0.4910
    SETDIJ:  cpu time    0.5147: real time    0.5147
     EDDAV:  cpu time   76.4721: real time   76.5017
       DOS:  cpu time    0.0011: real time    0.0011
    CHARGE:  cpu time    3.2917: real time    3.2956
    MIXING:  cpu time    0.0432: real time    0.0432
    --------------------------------------------
      LOOP:  cpu time   80.8124: real time   80.8473

 eigenvalue-minimisations  :  5792
 total energy-change (2. order) :-0.5606767E-01  (-0.1072959E+00)
 number of electron     511.9999998 magnetization 
 augmentation part      -29.4414971 magnetization 

 Broyden mixing:
  rms(total) = 0.62748E-01    rms(broyden)= 0.62748E-01
  rms(prec ) = 0.77932E-01
  weight for this iteration     100.00

 eigenvalues of (default mixing * dielectric matrix)
  average eigenvalue GAMMA=   2.0092
  2.6808  1.6734  1.6734

 Free energy of the ion-electron system (eV)
  ---------------------------------------------------
  alpha Z        PSCENC =       210.77028614
  Ewald energy   TEWEN  =    -14473.68152379
  -Hartree energ DENC   =      -995.00664256
  -exchange      EXHF   =         0.00000000
  -V(xc)+E(xc)   XCENC  =     -1156.81555003
  PAW double counting   =      4737.38510989    -2499.24411357
  entropy T*S    EENTRO =        -0.00000000
  eigenvalues    EBANDS =       303.75317489
  atomic energy  EATOM  =     13192.48085998
  Solvation  Ediel_sol  =         0.00000000
  ---------------------------------------------------
  free energy    TOTEN  =      -680.35839903 eV

  energy without entropy =     -680.35839903  energy(sigma->0) =     -680.35839903


--------------------------------------------------------------------------------------------------------




--------------------------------------- Iteration      1(   9)  ---------------------------------------


    POTLOK:  cpu time    0.4905: real time    0.4917
    SETDIJ:  cpu time    0.5133: real time    0.5133
     EDDAV:  cpu time   79.0936: real time   79.1285
       DOS:  cpu time    0.0015: real time    0.0015
    CHARGE:  cpu time    3.2901: real time    3.2910
    MIXING:  cpu time    0.0475: real time    0.0475
    --------------------------------------------
      LOOP:  cpu time   83.4365: real time   83.4734

 eigenvalue-minimisations  :  6064
 total energy-change (2. order) :-0.2237795E-01  (-0.1097014E-01)
 number of electron     511.9999998 magnetization 
 augmentation part      -29.4471674 magnetization 

 Broyden mixing:
  rms(total) = 0.28671E-01    rms(broyden)= 0.28671E-01
  rms(prec ) = 0.33390E-01
  weight for this iteration     100.00

 eigenvalues of (default mixing * dielectric matrix)
  average eigenvalue GAMMA=   1.7816
  2.5925  1.8239  1.8239  0.8860

 Free energy of the ion-electron system (eV)
  ---------------------------------------------------
  alpha Z        PSCENC =       210.77028614
  Ewald energy   TEWEN  =    -14473.68152379
  -Hartree energ DENC   =     -1001.66729971
  -exchange      EXHF   =         0.00000000
  -V(xc)+E(xc)   XCENC  =     -1155.64888021
  PAW double counting   =      4740.32754122    -2502.26672692
  entropy T*S    EENTRO =        -0.00000000
  eigenvalues    EBANDS =       309.30496631
  atomic energy  EATOM  =     13192.48085998
  Solvation  Ediel_sol  =         0.00000000
  ---------------------------------------------------
  free energy    TOTEN  =      -680.38077698 eV

  energy without entropy =     -680.38077698  energy(sigma->0) =     -680.38077698


--------------------------------------------------------------------------------------------------------




--------------------------------------- Iteration      1(  10)  ---------------------------------------


    POTLOK:  cpu time    0.4881: real time    0.4893
    SETDIJ:  cpu time    0.5141: real time    0.5141
     EDDAV:  cpu time   78.7880: real time   78.8251
       DOS:  cpu time    0.0011: real time    0.0011
    CHARGE:  cpu time    3.2860: real time    3.2863
    MIXING:  cpu time    0.0354: real time    0.0354
    --------------------------------------------
      LOOP:  cpu time   83.1126: real time   83.1514

 eigenvalue-minimisations  :  6032
 total energy-change (2. order) :-0.2525629E-02  (-0.8704942E-03)
 number of electron     511.9999998 magnetization 
 augmentation part      -29.4566720 magnetization 

 Broyden mixing:
  rms(total) = 0.11701E-01    rms(broyden)= 0.11701E-01
  rms(prec ) = 0.14036E-01
  weight for this iteration     100.00

 eigenvalues of (default mixing * dielectric matrix)
  average eigenvalue GAMMA=   1.8604
  2.6886  2.6886  1.5074  1.5074  0.9099

 Free energy of the ion-electron system (eV)
  ---------------------------------------------------
  alpha Z        PSCENC =       210.77028614
  Ewald energy   TEWEN  =    -14473.68152379
  -Hartree energ DENC   =     -1000.53851088
  -exchange      EXHF   =         0.00000000
  -V(xc)+E(xc)   XCENC  =     -1155.81921020
  PAW double counting   =      4733.25708181    -2495.02047705
  entropy T*S    EENTRO =        -0.00000000
  eigenvalues    EBANDS =       308.16819137
  atomic energy  EATOM  =     13192.48085998
  Solvation  Ediel_sol  =         0.00000000
  ---------------------------------------------------
  free energy    TOTEN  =      -680.38330261 eV

  energy without entropy =     -680.38330261  energy(sigma->0) =     -680.38330261


--------------------------------------------------------------------------------------------------------




--------------------------------------- Iteration      1(  11)  ---------------------------------------


    POTLOK:  cpu time    0.4872: real time    0.4879
    SETDIJ:  cpu time    0.5147: real time    0.5147
     EDDAV:  cpu time   76.0537: real time   76.0813
       DOS:  cpu time    0.0011: real time    0.0011
    CHARGE:  cpu time    3.3224: real time    3.3261
    MIXING:  cpu time    0.0437: real time    0.0440
    --------------------------------------------
      LOOP:  cpu time   80.4228: real time   80.4550

 eigenvalue-minimisations  :  5760
 total energy-change (2. order) :-0.1612596E-02  (-0.2559455E-03)
 number of electron     511.9999998 magnetization 
 augmentation part      -29.4594195 magnetization 

 Broyden mixing:
  rms(total) = 0.38120E-02    rms(broyden)= 0.38120E-02
  rms(prec ) = 0.53943E-02
  weight for this iteration     100.00

 eigenvalues of (default mixing * dielectric matrix)
  average eigenvalue GAMMA=   1.7708
  2.8391  2.0174  2.0174  1.6175  1.2602  0.8730

 Free energy of the ion-electron system (eV)
  ---------------------------------------------------
  alpha Z        PSCENC =       210.77028614
  Ewald energy   TEWEN  =    -14473.68152379
  -Hartree energ DENC   =     -1000.47694296
  -exchange      EXHF   =         0.00000000
  -V(xc)+E(xc)   XCENC  =     -1155.82594037
  PAW double counting   =      4728.79126907    -2490.45173430
  entropy T*S    EENTRO =        -0.00000000
  eigenvalues    EBANDS =       308.00881101
  atomic energy  EATOM  =     13192.48085998
  Solvation  Ediel_sol  =         0.00000000
  ---------------------------------------------------
  free energy    TOTEN  =      -680.38491521 eV

  energy without entropy =     -680.38491521  energy(sigma->0) =     -680.38491521


--------------------------------------------------------------------------------------------------------




--------------------------------------- Iteration      1(  12)  ---------------------------------------


    POTLOK:  cpu time    0.4881: real time    0.4889
    SETDIJ:  cpu time    0.5111: real time    0.5112
     EDDAV:  cpu time   79.8553: real time   79.8773
       DOS:  cpu time    0.0010: real time    0.0010
    CHARGE:  cpu time    3.3315: real time    3.3326
    MIXING:  cpu time    0.0444: real time    0.0444
    --------------------------------------------
      LOOP:  cpu time   84.2314: real time   84.2553

 eigenvalue-minimisations  :  6144
 total energy-change (2. order) :-0.6219149E-04  (-0.4517237E-04)
 number of electron     511.9999998 magnetization 
 augmentation part      -29.4574814 magnetization 

 Broyden mixing:
  rms(total) = 0.18786E-02    rms(broyden)= 0.18786E-02
  rms(prec ) = 0.22385E-02
  weight for this iteration     100.00

 eigenvalues of (default mixing * dielectric matrix)
  average eigenvalue GAMMA=   1.8369
  3.1762  2.7012  1.7601  1.7601  0.8929  1.2838  1.2838

 Free energy of the ion-electron system (eV)
  ---------------------------------------------------
  alpha Z        PSCENC =       210.77028614
  Ewald energy   TEWEN  =    -14473.68152379
  -Hartree energ DENC   =     -1001.09111685
  -exchange      EXHF   =         0.00000000
  -V(xc)+E(xc)   XCENC  =     -1155.75674888
  PAW double counting   =      4730.09169924    -2491.79606291
  entropy T*S    EENTRO =        -0.00000000
  eigenvalues    EBANDS =       308.59762966
  atomic energy  EATOM  =     13192.48085998
  Solvation  Ediel_sol  =         0.00000000
  ---------------------------------------------------
  free energy    TOTEN  =      -680.38497740 eV

  energy without entropy =     -680.38497740  energy(sigma->0) =     -680.38497740


--------------------------------------------------------------------------------------------------------




--------------------------------------- Iteration      1(  13)  ---------------------------------------


    POTLOK:  cpu time    0.4879: real time    0.4891
    SETDIJ:  cpu time    0.5155: real time    0.5155
     EDDAV:  cpu time   75.9085: real time   75.9424
       DOS:  cpu time    0.0011: real time    0.0011
    CHARGE:  cpu time    3.3155: real time    3.3166
    MIXING:  cpu time    0.0500: real time    0.0500
    --------------------------------------------
      LOOP:  cpu time   80.2784: real time   80.3146

 eigenvalue-minimisations  :  5736
 total energy-change (2. order) :-0.3078602E-04  (-0.1200262E-04)
 number of electron     511.9999998 magnetization 
 augmentation part      -29.4574864 magnetization 

 Broyden mixing:
  rms(total) = 0.64119E-03    rms(broyden)= 0.64117E-03
  rms(prec ) = 0.82730E-03
  weight for this iteration     100.00

 eigenvalues of (default mixing * dielectric matrix)
  average eigenvalue GAMMA=   1.7838
  3.1554  2.5550  1.9332  1.9332  1.4013  1.4013  0.9456  0.9456

 Free energy of the ion-electron system (eV)
  ---------------------------------------------------
  alpha Z        PSCENC =       210.77028614
  Ewald energy   TEWEN  =    -14473.68152379
  -Hartree energ DENC   =     -1001.07487028
  -exchange      EXHF   =         0.00000000
  -V(xc)+E(xc)   XCENC  =     -1155.76938602
  PAW double counting   =      4729.48008128    -2491.17216644
  entropy T*S    EENTRO =        -0.00000000
  eigenvalues    EBANDS =       308.58171095
  atomic energy  EATOM  =     13192.48085998
  Solvation  Ediel_sol  =         0.00000000
  ---------------------------------------------------
  free energy    TOTEN  =      -680.38500818 eV

  energy without entropy =     -680.38500818  energy(sigma->0) =     -680.38500818


--------------------------------------------------------------------------------------------------------




--------------------------------------- Iteration      1(  14)  ---------------------------------------


    POTLOK:  cpu time    0.4878: real time    0.4924
    SETDIJ:  cpu time    0.5068: real time    0.5113
     EDDAV:  cpu time   79.7162: real time   79.7360
       DOS:  cpu time    0.0011: real time    0.0011
    CHARGE:  cpu time    3.3229: real time    3.3238
    MIXING:  cpu time    0.0539: real time    0.0539
    --------------------------------------------
      LOOP:  cpu time   84.0886: real time   84.1185

 eigenvalue-minimisations  :  6136
 total energy-change (2. order) :-0.5051961E-05  (-0.1014113E-05)
 number of electron     511.9999998 magnetization 
 augmentation part      -29.4573110 magnetization 

 Broyden mixing:
  rms(total) = 0.18672E-03    rms(broyden)= 0.18666E-03
  rms(prec ) = 0.26203E-03
  weight for this iteration     100.00

 eigenvalues of (default mixing * dielectric matrix)
  average eigenvalue GAMMA=   1.7712
  3.2098  2.5949  2.1998  1.6736  1.6736  1.3295  1.3295  1.0027  0.9270

 Free energy of the ion-electron system (eV)
  ---------------------------------------------------
  alpha Z        PSCENC =       210.77028614
  Ewald energy   TEWEN  =    -14473.68152379
  -Hartree energ DENC   =     -1001.13229739
  -exchange      EXHF   =         0.00000000
  -V(xc)+E(xc)   XCENC  =     -1155.76143561
  PAW double counting   =      4729.65575587    -2491.35177377
  entropy T*S    EENTRO =        -0.00000000
  eigenvalues    EBANDS =       308.63511533
  atomic energy  EATOM  =     13192.48085998
  Solvation  Ediel_sol  =         0.00000000
  ---------------------------------------------------
  free energy    TOTEN  =      -680.38501324 eV

  energy without entropy =     -680.38501324  energy(sigma->0) =     -680.38501324


--------------------------------------------------------------------------------------------------------




--------------------------------------- Iteration      1(  15)  ---------------------------------------


    POTLOK:  cpu time    0.4859: real time    0.4892
    SETDIJ:  cpu time    0.5154: real time    0.5155
     EDDAV:  cpu time   79.7080: real time   79.7314
       DOS:  cpu time    0.0010: real time    0.0010
    CHARGE:  cpu time    3.3235: real time    3.3244
    MIXING:  cpu time    0.0497: real time    0.0497
    --------------------------------------------
      LOOP:  cpu time   84.0837: real time   84.1112

 eigenvalue-minimisations  :  6128
 total energy-change (2. order) :-0.3532457E-05  (-0.1695060E-06)
 number of electron     511.9999998 magnetization 
 augmentation part      -29.4572006 magnetization 

 Broyden mixing:
  rms(total) = 0.67585E-04    rms(broyden)= 0.67400E-04
  rms(prec ) = 0.90372E-04
  weight for this iteration     100.00

 eigenvalues of (default mixing * dielectric matrix)
  average eigenvalue GAMMA=   1.7242
  3.2616  2.6117  2.1330  1.7363  1.7363  1.4305  1.4305  1.0675  0.9170  0.9170

 Free energy of the ion-electron system (eV)
  ---------------------------------------------------
  alpha Z        PSCENC =       210.77028614
  Ewald energy   TEWEN  =    -14473.68152379
  -Hartree energ DENC   =     -1001.15582019
  -exchange      EXHF   =         0.00000000
  -V(xc)+E(xc)   XCENC  =     -1155.76003898
  PAW double counting   =      4729.72724572    -2491.42542506
  entropy T*S    EENTRO =        -0.00000000
  eigenvalues    EBANDS =       308.65939940
  atomic energy  EATOM  =     13192.48085998
  Solvation  Ediel_sol  =         0.00000000
  ---------------------------------------------------
  free energy    TOTEN  =      -680.38501677 eV

  energy without entropy =     -680.38501677  energy(sigma->0) =     -680.38501677


--------------------------------------------------------------------------------------------------------




--------------------------------------- Iteration      1(  16)  ---------------------------------------


    POTLOK:  cpu time    0.4887: real time    0.4899
    SETDIJ:  cpu time    0.5116: real time    0.5116
     EDDAV:  cpu time   78.8082: real time   78.8317
       DOS:  cpu time    0.0010: real time    0.0010
    CHARGE:  cpu time    3.1152: real time    3.1186
    MIXING:  cpu time    0.0490: real time    0.0490
    --------------------------------------------
      LOOP:  cpu time   82.9738: real time   83.0018

 eigenvalue-minimisations  :  6040
 total energy-change (2. order) : 0.3547593E-06  (-0.2558188E-07)
 number of electron     511.9999998 magnetization 
 augmentation part      -29.4571920 magnetization 

 Broyden mixing:
  rms(total) = 0.33066E-04    rms(broyden)= 0.32688E-04
  rms(prec ) = 0.44818E-04
  weight for this iteration     100.00

 eigenvalues of (default mixing * dielectric matrix)
  average eigenvalue GAMMA=   1.6976
  3.2903  2.6248  2.0497  2.0497  1.4259  1.4259  1.4366  1.4366  0.9087  1.0124
  1.0124

 Free energy of the ion-electron system (eV)
  ---------------------------------------------------
  alpha Z        PSCENC =       210.77028614
  Ewald energy   TEWEN  =    -14473.68152379
  -Hartree energ DENC   =     -1001.15572342
  -exchange      EXHF   =         0.00000000
  -V(xc)+E(xc)   XCENC  =     -1155.76001395
  PAW double counting   =      4729.72277992    -2491.42064233
  entropy T*S    EENTRO =        -0.00000000
  eigenvalues    EBANDS =       308.65896103
  atomic energy  EATOM  =     13192.48085998
  Solvation  Ediel_sol  =         0.00000000
  ---------------------------------------------------
  free energy    TOTEN  =      -680.38501641 eV

  energy without entropy =     -680.38501641  energy(sigma->0) =     -680.38501641


--------------------------------------------------------------------------------------------------------




--------------------------------------- Iteration      1(  17)  ---------------------------------------


    POTLOK:  cpu time    0.4915: real time    0.4922
    SETDIJ:  cpu time    0.5091: real time    0.5091
     EDDAV:  cpu time   65.3551: real time   65.3728
       DOS:  cpu time    0.0010: real time    0.0010
    CHARGE:  cpu time    3.1204: real time    3.1207
    MIXING:  cpu time    0.0471: real time    0.0471
    --------------------------------------------
      LOOP:  cpu time   69.5242: real time   69.5429

 eigenvalue-minimisations  :  4696
 total energy-change (2. order) : 0.1260050E-06  (-0.3863677E-08)
 number of electron     511.9999998 magnetization 
 augmentation part      -29.4571956 magnetization 

 Broyden mixing:
  rms(total) = 0.15097E-04    rms(broyden)= 0.14251E-04
  rms(prec ) = 0.17980E-04
  weight for this iteration     100.00

 eigenvalues of (default mixing * dielectric matrix)
  average eigenvalue GAMMA=   1.7001
  3.2901  2.6155  2.3347  1.8582  1.8582  1.4858  1.4858  0.9266  0.9894  1.1466
  1.2050  1.2050

 Free energy of the ion-electron system (eV)
  ---------------------------------------------------
  alpha Z        PSCENC =       210.77028614
  Ewald energy   TEWEN  =    -14473.68152379
  -Hartree energ DENC   =     -1001.15496958
  -exchange      EXHF   =         0.00000000
  -V(xc)+E(xc)   XCENC  =     -1155.76003239
  PAW double counting   =      4729.72349706    -2491.42122263
  entropy T*S    EENTRO =        -0.00000000
  eigenvalues    EBANDS =       308.65808891
  atomic energy  EATOM  =     13192.48085998
  Solvation  Ediel_sol  =         0.00000000
  ---------------------------------------------------
  free energy    TOTEN  =      -680.38501629 eV

  energy without entropy =     -680.38501629  energy(sigma->0) =     -680.38501629


--------------------------------------------------------------------------------------------------------




--------------------------------------- Iteration      1(  18)  ---------------------------------------


    POTLOK:  cpu time    0.4893: real time    0.4905
    SETDIJ:  cpu time    0.5129: real time    0.5131
     EDDAV:  cpu time   52.4087: real time   52.4223
       DOS:  cpu time    0.0010: real time    0.0010
    CHARGE:  cpu time    3.1118: real time    3.1121
    MIXING:  cpu time    0.0600: real time    0.0601
    --------------------------------------------
      LOOP:  cpu time   56.5838: real time   56.5990

 eigenvalue-minimisations  :  3392
 total energy-change (2. order) :-0.1384324E-06  (-0.1066044E-08)
 number of electron     511.9999998 magnetization 
 augmentation part      -29.4571908 magnetization 

 Broyden mixing:
  rms(total) = 0.75544E-05    rms(broyden)= 0.56764E-05
  rms(prec ) = 0.74525E-05
  weight for this iteration     100.00
  WARNING: grid for Broyden might be to small

 eigenvalues of (default mixing * dielectric matrix)
  average eigenvalue GAMMA=   1.7209
  3.2858  2.6906  2.4338  2.4338  1.7653  1.7653  1.2436  1.2436  0.9271  0.9777
  1.0130  1.2960  1.2960

 Free energy of the ion-electron system (eV)
  ---------------------------------------------------
  alpha Z        PSCENC =       210.77028614
  Ewald energy   TEWEN  =    -14473.68152379
  -Hartree energ DENC   =     -1001.15593814
  -exchange      EXHF   =         0.00000000
  -V(xc)+E(xc)   XCENC  =     -1155.75991951
  PAW double counting   =      4729.72822110    -2491.42602841
  entropy T*S    EENTRO =        -0.00000000
  eigenvalues    EBANDS =       308.65902618
  atomic energy  EATOM  =     13192.48085998
  Solvation  Ediel_sol  =         0.00000000
  ---------------------------------------------------
  free energy    TOTEN  =      -680.38501643 eV

  energy without entropy =     -680.38501643  energy(sigma->0) =     -680.38501643


--------------------------------------------------------------------------------------------------------




--------------------------------------- Iteration      1(  19)  ---------------------------------------


    POTLOK:  cpu time    0.4856: real time    0.4885
    SETDIJ:  cpu time    0.5126: real time    0.5126
     EDDAV:  cpu time   50.6409: real time   50.6590
       DOS:  cpu time    0.0010: real time    0.0010
    CHARGE:  cpu time    3.1087: real time    3.1092
    MIXING:  cpu time    0.0529: real time    0.0529
    --------------------------------------------
      LOOP:  cpu time   54.8018: real time   54.8233

 eigenvalue-minimisations  :  3216
 total energy-change (2. order) : 0.6753726E-07  (-0.2151558E-09)
 number of electron     511.9999998 magnetization 
 augmentation part      -29.4571927 magnetization 

 Broyden mixing:
  rms(total) = 0.57707E-05    rms(broyden)= 0.29074E-05
  rms(prec ) = 0.40198E-05
  weight for this iteration     100.00
  WARNING: grid for Broyden might be to small

 eigenvalues of (default mixing * dielectric matrix)
  average eigenvalue GAMMA=   1.6691
  3.3206  2.7047  2.3331  2.3331  1.7640  1.7640  1.3323  1.3323  1.3315  1.3315
  1.0155  1.0155  0.8947  0.8947

 Free energy of the ion-electron system (eV)
  ---------------------------------------------------
  alpha Z        PSCENC =       210.77028614
  Ewald energy   TEWEN  =    -14473.68152379
  -Hartree energ DENC   =     -1001.15550951
  -exchange      EXHF   =         0.00000000
  -V(xc)+E(xc)   XCENC  =     -1155.75994842
  PAW double counting   =      4729.72764814    -2491.42539830
  entropy T*S    EENTRO =        -0.00000000
  eigenvalues    EBANDS =       308.65856940
  atomic energy  EATOM  =     13192.48085998
  Solvation  Ediel_sol  =         0.00000000
  ---------------------------------------------------
  free energy    TOTEN  =      -680.38501636 eV

  energy without entropy =     -680.38501636  energy(sigma->0) =     -680.38501636


--------------------------------------------------------------------------------------------------------




--------------------------------------- Iteration      1(  20)  ---------------------------------------


    POTLOK:  cpu time    0.4887: real time    0.4893
    SETDIJ:  cpu time    0.5119: real time    0.5119
     EDDAV:  cpu time   50.1756: real time   50.1990
       DOS:  cpu time    0.0010: real time    0.0010
    CHARGE:  cpu time    3.1136: real time    3.1147
    MIXING:  cpu time    0.0517: real time    0.0517
    --------------------------------------------
      LOOP:  cpu time   54.3425: real time   54.3675

 eigenvalue-minimisations  :  3168
 total energy-change (2. order) :-0.2153683E-07  (-0.4091022E-10)
 number of electron     511.9999998 magnetization 
 augmentation part      -29.4571918 magnetization 

 Broyden mixing:
  rms(total) = 0.52532E-05    rms(broyden)= 0.16579E-05
  rms(prec ) = 0.22070E-05
  weight for this iteration     100.00
  WARNING: grid for Broyden might be to small

 eigenvalues of (default mixing * dielectric matrix)
  average eigenvalue GAMMA=   1.6924
  3.2739  2.6844  2.3795  2.3795  1.9654  1.9654  1.5584  1.3733  1.3733  1.1746
  1.1746  1.2572  0.9220  0.9524  0.9524

 Free energy of the ion-electron system (eV)
  ---------------------------------------------------
  alpha Z        PSCENC =       210.77028614
  Ewald energy   TEWEN  =    -14473.68152379
  -Hartree energ DENC   =     -1001.15571179
  -exchange      EXHF   =         0.00000000
  -V(xc)+E(xc)   XCENC  =     -1155.75992884
  PAW double counting   =      4729.72807430    -2491.42584085
  entropy T*S    EENTRO =        -0.00000000
  eigenvalues    EBANDS =       308.65876847
  atomic energy  EATOM  =     13192.48085998
  Solvation  Ediel_sol  =         0.00000000
  ---------------------------------------------------
  free energy    TOTEN  =      -680.38501638 eV

  energy without entropy =     -680.38501638  energy(sigma->0) =     -680.38501638


--------------------------------------------------------------------------------------------------------




--------------------------------------- Iteration      1(  21)  ---------------------------------------


    POTLOK:  cpu time    0.4878: real time    0.4908
    SETDIJ:  cpu time    0.5119: real time    0.5122
     EDDAV:  cpu time   49.9730: real time   49.9879
       DOS:  cpu time    0.0009: real time    0.0009
    --------------------------------------------
      LOOP:  cpu time   50.9735: real time   50.9917

 eigenvalue-minimisations  :  3152
 total energy-change (2. order) :-0.5929905E-09  (-0.1673878E-10)
 number of electron     511.9999998 magnetization 
 augmentation part      -29.4571918 magnetization 

 Free energy of the ion-electron system (eV)
  ---------------------------------------------------
  alpha Z        PSCENC =       210.77028614
  Ewald energy   TEWEN  =    -14473.68152379
  -Hartree energ DENC   =     -1001.15565020
  -exchange      EXHF   =         0.00000000
  -V(xc)+E(xc)   XCENC  =     -1155.75993552
  PAW double counting   =      4729.72802556    -2491.42579350
  entropy T*S    EENTRO =        -0.00000000
  eigenvalues    EBANDS =       308.65871494
  atomic energy  EATOM  =     13192.48085998
  Solvation  Ediel_sol  =         0.00000000
  ---------------------------------------------------
  free energy    TOTEN  =      -680.38501638 eV

  energy without entropy =     -680.38501638  energy(sigma->0) =     -680.38501638


--------------------------------------------------------------------------------------------------------




 average (electrostatic) potential at core
  the test charge radii are     0.9892
  (the norm of the test charge is              1.0000)
       1 -83.4201       2 -83.4662       3 -83.4114       4 -83.6221       5 -83.5437
       6 -83.4973       7 -83.7271       8 -83.6105       9 -83.4224      10 -83.6254
      11 -83.6102      12 -83.6625      13 -83.5090      14 -83.5292      15 -83.4326
      16 -83.3247      17 -83.3682      18 -83.4172      19 -83.6288      20 -83.5303
      21 -83.4297      22 -83.5874      23 -83.5226      24 -83.5478      25 -83.5209
      26 -83.5317      27 -83.5075      28 -83.6132      29 -83.4528      30 -83.4706
      31 -83.3722      32 -83.5341      33 -83.4074      34 -83.5280      35 -83.4966
      36 -83.4419      37 -83.5376      38 -83.5906      39 -83.6147      40 -83.6489
      41 -83.5657      42 -83.5329      43 -83.5097      44 -83.6420      45 -83.4126
      46 -83.3822      47 -83.5634      48 -83.5156      49 -83.4589      50 -83.5385
      51 -83.4847      52 -83.5137      53 -83.5247      54 -83.4549      55 -83.4639
      56 -83.6890      57 -83.5580      58 -83.4307      59 -83.5601      60 -83.5221
      61 -83.2932      62 -83.4982      63 -83.4663      64 -83.6106      65 -83.4281
      66 -83.4581      67 -83.5252      68 -83.4659      69 -83.3567      70 -83.6719
      71 -83.4756      72 -83.5932      73 -83.6103      74 -83.5997      75 -83.5641
      76 -83.5190      77 -83.4342      78 -83.4694      79 -83.3495      80 -83.5203
      81 -83.3215      82 -83.5727      83 -83.5832      84 -83.5295      85 -83.5738
      86 -83.5212      87 -83.5276      88 -83.5116      89 -83.4725      90 -83.5890
      91 -83.5708      92 -83.5511      93 -83.3170      94 -83.3642      95 -83.5687
      96 -83.5778      97 -83.4297      98 -83.4868      99 -83.4694     100 -83.4931
     101 -83.4912     102 -83.6739     103 -83.4461     104 -83.6156     105 -83.4658
     106 -83.5159     107 -83.5882     108 -83.5618     109 -83.3218     110 -83.5164
     111 -83.4923     112 -83.4778     113 -83.4832     114 -83.5128     115 -83.4753
     116 -83.6827     117 -83.4448     118 -83.5430     119 -83.7181     120 -83.6218
     121 -83.3617     122 -83.5629     123 -83.6181     124 -83.6930     125 -83.3854
     126 -83.5419     127 -83.4296     128 -83.4272
 
 
 
 E-fermi :   5.8702     XC(G=0):  -9.3313     alpha+bet :-11.7321


 k-point     1 :       0.0000    0.0000    0.0000
  band No.  band energies     occupation 
      1      -6.3007      2.00000
      2      -5.7432      2.00000
      3      -5.6472      2.00000
      4      -5.5923      2.00000
      5      -5.5259      2.00000
      6      -5.5030      2.00000
      7      -5.4811      2.00000
      8      -5.4150      2.00000
      9      -5.3738      2.00000
     10      -5.3057      2.00000
     11      -5.2819      2.00000
     12      -5.2175      2.00000
     13      -5.1666      2.00000
     14      -5.1275      2.00000
     15      -5.0758      2.00000
     16      -4.5882      2.00000
     17      -4.4591      2.00000
     18      -4.4221      2.00000
     19      -4.3512      2.00000
     20      -4.3502      2.00000
     21      -4.3135      2.00000
     22      -4.2775      2.00000
     23      -4.2548      2.00000
     24      -4.2323      2.00000
     25      -4.1681      2.00000
     26      -4.1383      2.00000
     27      -4.1073      2.00000
     28      -4.0744      2.00000
     29      -3.9998      2.00000
     30      -3.9360      2.00000
     31      -3.9017      2.00000
     32      -3.8939      2.00000
     33      -3.8277      2.00000
     34      -3.8137      2.00000
     35      -3.7601      2.00000
     36      -3.7435      2.00000
     37      -3.7076      2.00000
     38      -3.6910      2.00000
     39      -3.6745      2.00000
     40      -3.6445      2.00000
     41      -3.6169      2.00000
     42      -3.5585      2.00000
     43      -3.5496      2.00000
     44      -3.5329      2.00000
     45      -3.5153      2.00000
[...]
   0.297E+01 0.105E+02 0.118E+01   -.235E+01 -.973E+01 -.957E-01   0.360E+00 -.275E+01 -.847E+00   -.369E-06 0.110E-06 -.113E-05
   0.298E+01 -.106E+01 0.804E+01   -.255E+01 0.103E+01 -.747E+01   -.176E+00 -.124E+00 -.303E+01   0.927E-06 0.196E-06 0.114E-05
   0.762E+01 0.180E+01 -.441E+01   -.692E+01 -.155E+01 0.396E+01   -.256E+01 -.118E+01 0.109E+01   0.100E-07 0.180E-05 -.667E-06
   -.422E+01 -.350E+01 -.374E+01   0.372E+01 0.300E+01 0.416E+01   0.771E+00 0.158E+01 -.227E-01   0.964E-06 0.796E-06 -.216E-05
   -.222E+01 0.543E+01 0.587E+01   0.159E+01 -.525E+01 -.538E+01   0.572E+00 -.113E+01 -.197E+01   0.145E-05 -.785E-06 -.270E-06
   -.673E+01 0.241E+01 -.238E+01   0.619E+01 -.272E+01 0.204E+01   0.171E+01 -.336E+00 -.228E+00   -.424E-06 0.142E-05 0.784E-06
   0.262E+01 -.902E+01 -.108E+02   -.288E+01 0.815E+01 0.977E+01   0.319E+00 0.170E+01 0.199E+01   0.164E-05 -.656E-06 -.205E-05
   0.833E+00 0.222E+01 0.710E+01   -.474E+00 -.181E+01 -.689E+01   -.116E+01 -.316E+00 -.145E+01   0.131E-05 -.427E-06 0.836E-06
   -.626E+00 0.799E+01 -.714E+00   0.362E+00 -.713E+01 0.339E+00   0.483E-01 -.183E+01 0.403E+00   0.208E-06 -.517E-06 0.904E-06
   0.162E+01 0.127E+02 0.264E+01   -.198E+01 -.124E+02 -.175E+01   0.107E-01 -.297E+01 -.169E+01   -.359E-07 0.153E-05 -.170E-05
   0.960E+01 -.846E+01 0.340E+01   -.846E+01 0.760E+01 -.291E+01   -.291E+01 0.239E+01 -.130E+01   -.106E-05 -.278E-07 0.461E-07
   -.168E+01 -.115E+02 0.749E+01   0.125E+01 0.101E+02 -.737E+01   0.988E+00 0.362E+01 -.350E+00   0.102E-05 -.208E-05 0.164E-05
   -.575E+01 0.104E+00 -.165E+01   0.499E+01 0.708E-01 0.215E+01   0.208E+01 0.132E+00 0.623E+00   0.217E-07 0.368E-06 -.412E-06
   -.492E+01 -.211E+01 -.234E+01   0.500E+01 0.135E+01 0.243E+01   0.424E+00 0.939E+00 -.447E+00   -.613E-06 0.127E-05 -.345E-06
   -.461E+01 0.113E+02 0.463E+01   0.437E+01 -.102E+02 -.446E+01   0.115E+01 -.240E+01 -.738E+00   -.159E-05 0.831E-06 0.245E-05
   0.550E+01 -.364E+01 -.984E+01   -.460E+01 0.336E+01 0.952E+01   -.813E+00 0.469E+00 0.232E+01   -.748E-06 -.187E-05 -.193E-05
   0.673E+00 -.215E+01 0.500E+01   -.608E+00 0.172E+01 -.368E+01   -.799E+00 0.135E+01 -.120E+01   0.608E-06 0.932E-06 -.925E-06
   0.900E+01 0.679E+01 0.130E+02   -.821E+01 -.623E+01 -.127E+02   -.101E+01 -.168E+01 -.283E+01   0.218E-06 0.149E-05 0.181E-05
   -.247E+00 0.122E+02 -.429E+01   -.478E+00 -.101E+02 0.444E+01   0.101E+01 -.434E+01 0.110E+00   0.174E-05 -.551E-06 -.155E-05
   0.544E+01 0.447E+01 -.131E+02   -.514E+01 -.382E+01 0.119E+02   -.233E+01 -.125E+01 0.265E+01   -.305E-06 0.335E-06 -.198E-05
   -.367E+00 -.113E+01 0.157E+01   0.578E-01 0.118E+01 -.152E+01   -.110E+00 -.469E+00 -.123E+01   0.144E-07 -.320E-06 -.191E-06
   0.993E+01 0.153E+01 0.659E+01   -.929E+01 -.143E+01 -.656E+01   -.200E+01 -.637E+00 -.553E+00   -.353E-06 -.335E-06 0.140E-05
   0.213E+01 -.106E+02 -.123E+02   -.258E+01 0.957E+01 0.114E+02   0.101E+01 0.274E+01 0.295E+01   -.338E-06 -.108E-05 -.112E-05
   0.138E+01 -.387E+01 0.246E+00   -.156E+01 0.379E+01 -.432E+00   0.178E-01 0.782E+00 0.599E+00   -.955E-07 -.132E-05 0.830E-06
   -.538E+01 0.729E+01 0.286E+01   0.493E+01 -.653E+01 -.293E+01   0.282E+00 -.215E+01 0.148E+01   -.915E-08 -.686E-06 0.234E-05
   -.140E+01 -.239E+01 -.595E+01   0.165E+01 0.266E+01 0.612E+01   -.618E-01 0.103E+01 0.109E+01   -.149E-05 -.147E-05 -.229E-05
   0.656E+01 -.345E+00 -.569E-01   -.569E+01 0.508E+00 0.199E+00   -.547E+00 0.446E+00 0.128E+00   -.650E-07 0.836E-06 0.533E-06
   0.101E+01 -.127E+02 0.711E+00   -.641E+00 0.118E+02 -.105E+01   0.105E+01 0.341E+01 0.110E+01   0.559E-06 -.752E-06 -.230E-06
   0.146E+01 0.135E+02 0.484E+01   -.140E+01 -.124E+02 -.470E+01   -.359E+00 -.452E+01 0.775E+00   0.871E-07 0.319E-06 0.158E-05
   0.378E+00 0.724E+01 -.605E+01   0.348E+00 -.690E+01 0.537E+01   -.153E+01 -.106E+01 0.132E+01   0.395E-06 0.967E-06 0.557E-06
   0.398E+01 -.612E+01 0.512E+01   -.370E+01 0.526E+01 -.529E+01   -.115E+01 0.247E+01 -.454E+00   0.215E-05 0.797E-06 0.211E-05
   0.463E+01 -.147E+01 -.101E+02   -.422E+01 0.197E+01 0.872E+01   -.103E+01 -.410E+00 0.320E+01   0.158E-05 0.332E-06 -.109E-05
   -.210E+01 0.251E+01 -.192E+02   0.202E+01 -.247E+01 0.182E+02   -.238E+00 -.106E+00 0.349E+01   0.531E-07 0.928E-06 -.369E-05
   -.364E+01 -.175E+01 0.128E+02   0.429E+01 0.131E+01 -.126E+02   -.408E+00 0.847E+00 -.208E+01   -.187E-05 0.194E-05 0.307E-05
   -.503E+01 0.593E+01 -.130E+02   0.464E+01 -.487E+01 0.118E+02   0.663E+00 -.261E+01 0.265E+01   -.817E-06 -.644E-06 -.252E-05
   -.146E+01 0.244E+01 0.274E+01   0.166E+01 -.196E+01 -.190E+01   -.524E+00 -.116E+01 -.143E+01   -.907E-07 -.740E-07 -.199E-05
   -.942E+00 -.846E+01 0.574E+01   0.979E+00 0.759E+01 -.544E+01   -.335E+00 0.180E+01 -.264E+00   -.542E-06 -.851E-07 -.841E-07
   -.760E+01 0.128E+01 0.208E+01   0.732E+01 -.927E+00 -.249E+01   0.623E+00 -.147E+01 0.949E+00   -.278E-06 -.119E-05 0.224E-06
   -.423E+01 -.412E+01 0.198E+01   0.370E+01 0.387E+01 -.115E+01   0.166E+01 0.104E+01 -.185E+01   0.114E-05 -.130E-05 0.122E-06
   0.122E+01 -.204E+01 -.187E+01   -.481E+00 0.162E+01 0.176E+01   0.550E-01 0.539E-01 0.130E+01   0.710E-06 -.866E-06 0.587E-06
   -.118E+02 -.708E+01 0.483E+01   0.105E+02 0.633E+01 -.468E+01   0.250E+01 0.192E+01 0.201E+00   0.975E-07 0.112E-05 0.164E-05
   -.107E+02 0.635E+01 0.706E+01   0.961E+01 -.576E+01 -.584E+01   0.241E+01 -.227E+01 -.133E+01   0.147E-05 0.992E-06 0.692E-06
   0.311E+01 -.403E+01 0.552E+00   -.312E+01 0.433E+01 -.564E-01   0.224E+00 -.188E+00 0.779E+00   0.617E-06 -.178E-05 -.369E-07
   0.288E+01 -.338E+01 0.518E+01   -.260E+01 0.231E+01 -.520E+01   -.930E+00 0.783E-01 0.816E-01   0.139E-05 -.115E-05 0.133E-05
   -.361E+01 -.135E+02 0.102E+02   0.320E+01 0.128E+02 -.896E+01   -.153E+00 0.205E+01 -.274E+01   0.129E-05 -.239E-05 0.749E-06
   0.240E+01 0.105E+02 0.746E+01   -.167E+01 -.999E+01 -.694E+01   -.696E+00 -.149E+01 -.807E+00   -.200E-05 0.143E-05 0.489E-06
   -.471E+01 -.168E+02 0.417E+00   0.435E+01 0.152E+02 -.862E+00   0.119E+01 0.383E+01 0.893E+00   -.643E-06 -.156E-05 0.149E-05
   -.534E+01 -.148E-01 0.355E+01   0.504E+01 -.202E+00 -.335E+01   0.150E+01 -.414E+00 -.112E+01   -.227E-05 0.863E-06 0.517E-06
   -.351E+01 -.854E+01 -.127E+02   0.337E+01 0.746E+01 0.121E+02   0.642E+00 0.194E+01 0.330E+01   -.210E-05 -.753E-06 -.240E-05
   -.122E+02 -.518E+01 0.605E+01   0.109E+02 0.389E+01 -.622E+01   0.233E+01 0.130E+01 -.149E+01   -.241E-05 0.351E-06 0.206E-05
   0.331E+01 0.267E+01 0.464E+01   -.291E+01 -.170E+01 -.396E+01   -.117E+01 -.183E+01 -.121E+01   -.176E-05 -.936E-06 -.512E-06
   0.493E+01 -.112E+01 -.119E+02   -.481E+01 0.123E+01 0.110E+02   -.149E+01 -.333E+00 0.182E+01   -.122E-05 -.745E-07 -.106E-05
   0.781E+01 0.328E+01 -.237E+01   -.679E+01 -.243E+01 0.183E+01   -.210E+01 -.222E+00 0.164E+01   -.402E-06 0.848E-06 0.690E-06
 -----------------------------------------------------------------------------------------------
   -.102E+00 -.294E+00 0.699E+00   -.208E-12 -.107E-12 0.140E-12   0.102E+00 0.294E+00 -.699E+00   0.165E-06 0.863E-07 0.205E-06
 
 
 POSITION                                       TOTAL-FORCE (eV/Angst)
 -----------------------------------------------------------------------------------
      0.09042     10.94129     10.88352         0.636103      0.333337      0.818020
     10.94925      2.71769     13.60635        -0.596346      0.071150      2.321592
     11.03879     16.32814      5.53824         0.180383      1.083676     -0.938784
     10.94427      8.21905     18.95661        -0.140676     -0.043379      2.654657
     13.75458     10.97925      2.86593        -1.215482     -1.013764     -1.211440
     13.71485     13.78909      5.71394        -0.723007     -0.893254     -2.610549
     13.67062     16.31360      8.18924         0.629805      1.165142      0.452925
     13.62679     19.15189     10.94468         0.000084     -0.240428      0.670986
     16.41152     21.66939     16.50076        -1.134507      1.848408     -0.573742
     16.46479     13.55209      8.23469        -0.532458     -0.404224      0.836561
     16.31265     16.28080     10.93950        -0.652525      1.765055      0.391334
      5.55439      8.05478     13.53190        -1.672349      2.070058      1.203864
      8.34951     10.81107     19.00030        -1.521362      1.261317      3.172973
     19.20543     13.64166     11.04242        -0.582534      1.266653     -0.711046
      8.12958      5.45343     13.57817         1.290772      0.199212      0.166017
     19.18749     19.07467     16.42588         0.246133      0.326782     -1.327098
     13.76438     13.78652     21.81747        -0.939017     -1.281344      1.412789
      2.81445      5.43702      2.67433        -0.926573      1.699993     -0.408730
     13.57572      8.18440     16.47648         2.561651      1.049246     -1.556104
     13.62389     10.94718     19.16459         1.151424      0.456000      0.185884
      5.38809      2.65598      2.75396         0.472349      0.673974      0.513685
      5.49443      5.32028      5.42083        -0.320529      1.717568      0.551989
      5.57483      8.20981      8.21378        -0.637400     -1.494548     -0.822721
      5.45852     10.82266     10.98979         0.239231      0.804124     -1.468727
      8.24630     13.61639     16.42585        -0.815118     -0.021199     -0.030022
      8.10560      5.46788      8.19693         1.218589     -0.307088      1.474539
      8.13612      8.23536     10.96699         0.537024     -0.093267     -0.193538
      8.18557     10.86483     13.93511        -0.189096      0.356177     -2.578542
     10.80684      2.72797      8.08214         0.645677      0.295396      2.363670
     10.95743      5.37737     11.02899         0.055041      2.889750     -0.717257
     10.98089      8.27078     13.48725        -1.217131      0.145414      1.625664
     10.88402     11.02322     16.35696         2.161850     -0.780230      0.368454
      5.45832     16.26789     10.86894         0.728016      1.014176      1.040346
      5.52037      8.17457      2.74378        -1.701255     -0.826853     -1.129491
     16.36155     10.98223     16.44106         0.679825     -1.126416     -0.688572
     16.31250     13.68045     19.20427         1.566519     -0.286492     -0.683358
      8.14958     16.36408     13.58958        -0.670825      0.982298      0.961442
      8.18261      8.17199      5.42014         0.198586     -0.541573     -0.330034
      8.23636     11.10035      8.23407        -1.696088     -2.665528     -1.186917
      8.22320     13.64276     11.16307        -0.903224      0.050446     -1.633742
     10.90553      5.61579      5.54705         0.312326     -1.323355     -0.433360
     10.91180      8.30506      8.34709        -0.285316     -0.971668     -0.378563
     10.86222     11.02629     10.95621         0.653576     -1.181066     -0.691584
     10.87377     13.77842     13.73661         0.055040     -0.518434     -1.298184
     13.68883     16.27519     19.20546         0.008095      0.966452      0.308358
     13.65725      8.26582     10.97452         0.846337     -0.756425     -0.298989
     13.63598     10.89193     13.63285         0.840884      1.884148     -0.106873
     13.77486     13.56501     16.40455        -1.134946      0.769157     -0.347288
      8.22398      8.17381      0.08369         0.499390      0.283223     -0.612484
     19.15418     10.89517     13.61338        -0.316089     -0.038780      0.407819
      8.30253     13.58670      5.42461        -1.122529      0.414846      0.016328
      8.30173     16.42336      8.27914        -0.510569     -0.429407     -1.600900
     10.87254      8.20102      2.85044        -0.009858      0.517568     -0.912402
     11.02179     10.77310      5.49123        -1.467386      1.024830      0.709590
     10.90923     13.60242      8.21844        -0.356471      0.432784      0.159865
     10.89912     16.35597     11.16562         1.908156      1.865766     -2.712760
     13.55090      8.08596      5.61425         1.291988      1.045410     -2.078100
     13.69177     10.91113      8.17487        -1.697611     -0.264533     -0.381116
     13.60339     13.55416     11.03356         0.855692      0.650449     -1.594058
     13.57678     16.35506     13.66870         0.345245     -0.365462      0.089895
     16.48003      8.38234      8.23628        -0.238627     -2.217954      0.353366
     16.28647     10.80507     10.97654         1.733009      1.836055     -0.094975
     16.44405     13.68942     13.54891        -0.205788      0.477889      1.166292
     16.33532     16.46551     16.45867         0.773981     -0.690066     -1.116998
      1.39401      1.40475      1.53894         1.142377     -0.756234     -2.294026
      1.47689      4.17107      3.98860        -0.758133     -1.279859      1.614744
      1.48240      6.95978      6.91848        -1.129859     -2.876984     -0.208883
      1.42999      9.56352      9.51893        -1.214254     -0.538190      0.107758
      4.00479      1.35470      4.16947         1.561139      0.864334      2.074550
      4.25697      4.05733      6.90155        -0.228000      0.127596      0.681453
      4.05794      6.92639      9.53556         0.414716     -1.191180      0.228285
      4.09922      9.62654     12.29659        -0.625386     -1.339336      0.914876
      6.81937      1.20135      6.88269         0.744037      0.538362     -0.645458
      6.73211      4.15004      9.57691         1.233901     -1.505975      0.125371
      6.87013      6.87548     12.24383        -0.185019     -2.165815     -0.867002
      6.70840      9.54304     15.05464         0.976340     -1.948026      0.235395
      9.55167      1.33769      9.73152         0.255718     -0.150538     -2.451296
      9.69056      4.14415     12.32721        -1.868054     -0.929011      0.644747
      9.62297      6.69572     14.94899         0.274031      1.076446      0.396265
      9.64834      9.59483     17.71127        -0.055945     -0.956609     -1.485130
      4.08393      4.10248      1.40189         1.168531     -0.646160     -0.562664
      4.11695      6.73543      4.05990         0.053538      0.828048      0.968383
      4.17188      9.58228      6.97695        -0.804793      0.092636     -1.239923
      4.11586     12.33125      9.62673        -0.215972     -0.972443      0.027428
      6.93845      4.20057      4.14620        -0.344211     -2.656689     -0.797002
      6.93515      6.69814      6.79254        -1.768772      1.524531     -0.809912
      6.81571      9.44053      9.59011         0.559922      2.266680     -0.226146
      6.70915     12.19757     12.33836         1.326834      0.306499      1.117396
      9.47333      4.14158      6.83947         0.507013      0.184702     -0.355932
      9.47228      6.90520      9.66459         0.913416     -1.288960     -0.563616
      9.49594      9.62732     12.17191         0.086172      0.187952      2.006349
      9.61751     12.29983     15.02324        -0.734321      0.912179      0.119576
     12.28583      4.14594      9.73558        -0.222285     -1.114166     -2.458382
     12.31312      6.99005     12.24901         0.284826     -2.320148      0.263629
     12.41838      9.57883     14.93464        -2.027424     -0.603061      1.365789
     12.32266     12.35456     17.85371        -0.419735     -0.418398     -1.184714
      6.89312      6.83613      1.37118        -1.355331     -0.536837     -0.518467
      6.81953      9.46078      3.95984         0.553500      1.751123      1.956285
      6.82001     12.31896      6.81045        -0.159699      0.705207      0.412594
      6.88510     15.07982      9.45032        -0.166386     -1.384761      1.408508
      9.51478      6.68855      3.99264         0.188796      1.297864      1.264946
      9.51423      9.51674      6.86171         0.328718      0.608838      0.270808
      9.45016     12.21951      9.63532         1.414162      2.502937      0.765370
      9.51348     15.22271     12.32195        -0.302406     -3.471176      0.911409
     12.30441      6.85121      7.00868        -0.801372     -0.725041      0.643870
     12.36121      9.54012      9.65784        -0.864995      1.610699     -0.622148
     12.22356     12.30151     12.26526        -0.626773      0.086000      1.814215
     12.32196     15.02274     14.98677        -0.319028     -0.060030      2.460264
     15.03706      6.81964      9.74014         0.238324      0.408553     -1.906685
     14.97142      9.62120     12.27833         0.269506     -1.555807      1.481629
     15.12393     12.34201     14.99500        -0.321109     -0.677052     -0.594970
     15.05328     14.94049     17.76243        -0.297948      0.939118      0.043958
      9.61397      9.66489      1.28229         0.351266     -1.125725      0.540036
      9.53513     12.08952      4.20434         1.128176      0.795149     -1.019897
      9.53160     15.03393      6.75221         0.790507     -0.368944      1.185368
      9.57177     17.71096      9.61990         1.174075      1.175833      0.358038
     12.27572      9.61198      4.10812         1.310508     -1.680063     -0.104082
     12.27147     12.28107      6.75224         0.205250      0.112469      1.274862
     12.31593     15.06780      9.65017        -0.651288     -0.995402      0.061488
     12.28085     17.74149     12.49885        -0.570948      1.333692     -1.538310
     14.98052      9.54185      6.88921         0.030935     -0.965706     -0.290038
     14.95530     12.07373      9.58822         0.825454      2.271819      0.448542
     14.86803     15.01276     12.37582         1.201068     -0.631539     -0.920527
     14.99691     17.68257     14.79035         0.498004      0.851399      2.649259
     17.75902      9.56003      9.76316         1.064084      0.011141     -1.649031
     17.81124     12.31830     12.31775        -0.772330     -0.866411     -0.525131
     17.88847     15.01058     14.96137        -1.368265     -0.213955      0.952166
     17.89012     17.72726     17.74738        -1.084892      0.627231      1.103907
 -----------------------------------------------------------------------------------
    total drift:                               -0.000012      0.000006     -0.000008


--------------------------------------------------------------------------------------------------------



  FREE ENERGIE OF THE ION-ELECTRON SYSTEM (eV)
  ---------------------------------------------------
  free  energy   TOTEN  =      -680.38501638 eV

  energy  without entropy=     -680.38501638  energy(sigma->0) =     -680.38501638
 


--------------------------------------------------------------------------------------------------------


    POTLOK:  cpu time    0.9971: real time    0.9971


--------------------------------------------------------------------------------------------------------


     LOOP+:  cpu time 1709.7177: real time 1710.3720
    4ORBIT:  cpu time    0.0000: real time    0.0000

 total amount of memory used by VASP MPI-rank0   221701. kBytes
=======================================================================

   base      :      30000. kBytes
   nonl-proj :      10690. kBytes
   fftplans  :      66746. kBytes
   grid      :      26864. kBytes
   one-center:         24. kBytes
   wavefun   :      87377. kBytes
 
  
  
 General timing and accounting informations for this job:
 ========================================================
  
                  Total CPU time used (sec):     1733.702
                            User time (sec):     1732.463
                          System time (sec):        1.240
                         Elapsed time (sec):     1735.382
  
                   Maximum memory used (kb):      337952.
                   Average memory used (kb):           0.
  
                          Minor page faults:       166375
                          Major page faults:            0
                 Voluntary context switches:         1335
