<?xml version="1.0" encoding="ISO-8859-1"?>
<modeling>
 <generator>
  <i name="program" type="string">vasp </i>
  <i name="version" type="string">5.4.4.18Apr17-6-g9f103f2a35  </i>
  <i name="subversion" type="string">(build Nov 08 2017 09:05:29) complex            parallel </i>
  <i name="platform" type="string">Intel_17.33 </i>
  <i name="date" type="string">2020 07 18 </i>
  <i name="time" type="string">21:42:35 </i>
 </generator>
 <incar>
  <i type="string" name="SYSTEM">potpaw_PBE@./ARUN.APL1ZEROSTATE</i>
  <i type="string" name="PREC">accurate</i>
  <i type="string" name="ALGO">Normal</i>
  <i type="int" name="NSIM">     4</i>
  <i type="logical" name="ADDGRID"> T  </i>
  <i type="int" name="NELM">   120</i>
  <i type="int" name="NELMIN">     4</i>
  <i name="EDIFF">      0.00000001</i>
  <i type="int" name="NSW">     0</i>
  <i type="int" name="ISYM">     2</i>
  <i name="ENMAX">    500.00000000</i>
  <i type="logical" name="LREAL"> F  </i>
  <i type="logical" name="LPLANE"> T  </i>
  <i type="int" name="ISMEAR">     0</i>
  <i name="SIGMA">      0.01000000</i>
  <i type="logical" name="LWAVE"> F  </i>
  <i type="logical" name="LCHARG"> F  </i>
  <i type="logical" name="LELF"> F  </i>
  <i type="logical" name="LAECHG"> F  </i>
  <v type="int" name="KPOINT_BSE">    -1     0     0     0</v>
  <i type="int" name="NELM">   120</i>
 </incar>
 <structure name="primitive_cell" >
  <crystal>
   <varray name="basis" >
    <v>       0.00000000      10.93733369      10.93733369 </v>
    <v>      10.93733369       0.00000000      10.93733369 </v>
    <v>      10.93733369      10.93733369       0.00000000 </v>
   </varray>
   <i name="volume">   2616.76295363 </i>
   <varray name="rec_basis" >
    <v>      -0.04571498       0.04571498       0.04571498 </v>
    <v>       0.04571498      -0.04571498       0.04571498 </v>
    <v>       0.04571498       0.04571498      -0.04571498 </v>
   </varray>
  </crystal>
  <varray name="positions" >
   <v>      -0.00641236       0.00149258       0.00677418 </v>
   <v>       0.06937422      -0.17962194       0.05293090 </v>
   <v>       0.06094754       0.05629208      -0.17728686 </v>
   <v>      -0.19301788       0.06333342       0.06741009 </v>
   <v>       0.07084314       0.06986173       0.05759285 </v>
   <v>      -0.24625656      -0.00152543       0.24715711 </v>
   <v>      -0.24708435       0.24775608      -0.00185948 </v>
   <v>       0.24570842      -0.00168011       0.00276987 </v>
   <v>       0.25045596      -0.24084834      -0.00319988 </v>
   <v>      -0.01887169      -0.24393160       0.00732710 </v>
   <v>       0.00014961      -0.26119980       0.24926882 </v>
   <v>       0.24477489      -0.00010425      -0.24862987 </v>
   <v>       0.00153232       0.00611987      -0.25420125 </v>
   <v>      -0.00160280      -0.00362681       0.26210338 </v>
   <v>      -0.25798250      -0.00881551       0.00944958 </v>
   <v>       0.00414202       0.25789005      -0.00030939 </v>
   <v>       0.00817937       0.25243589      -0.25836000 </v>
   <v>      -0.18235963      -0.18527645       0.31193654 </v>
   <v>      -0.18434764       0.06451910       0.31179345 </v>
   <v>      -0.18518030       0.30945745       0.06533407 </v>
   <v>       0.07294686      -0.18282357       0.30611668 </v>
   <v>      -0.19277590      -0.18788298       0.07003057 </v>
   <v>       0.06602992       0.30957502      -0.18720665 </v>
   <v>       0.07150646      -0.17886072      -0.19743302 </v>
   <v>       0.30998410      -0.18290783       0.06891554 </v>
   <v>      -0.18814346       0.06769039      -0.19254424 </v>
   <v>       0.31199566      -0.18578469      -0.18573393 </v>
   <v>      -0.17898216       0.32175129      -0.19891397 </v>
   <v>       0.30897551       0.07542730      -0.20363089 </v>
   <v>      -0.25238046       0.25717657       0.24189592 </v>
   <v>       0.24909793      -0.24071770       0.24255503 </v>
   <v>      -0.24587832      -0.25860513       0.25373057 </v>
   <v>      -0.24010383       0.26097612      -0.26447043 </v>
   <v>       0.23966273       0.26240016      -0.25467872 </v>
   <v>       0.25121002      -0.24762582      -0.26330285 </v>
   <v>      -0.43332314       0.06587987       0.06965556 </v>
   <v>      -0.43295090       0.30478689       0.06623085 </v>
   <v>      -0.43371231       0.07161467       0.30981980 </v>
   <v>       0.06493531       0.06323941       0.31015435 </v>
   <v>       0.06945843       0.31175619       0.05440183 </v>
   <v>       0.05781432      -0.42853068       0.05202524 </v>
   <v>       0.30550308       0.05917479       0.07585749 </v>
   <v>       0.06892531      -0.44359316       0.30973894 </v>
   <v>       0.06007801       0.06528854      -0.43505046 </v>
   <v>       0.30176859       0.06027938      -0.43676965 </v>
   <v>       0.05332244       0.31172439      -0.44178847 </v>
   <v>       0.31976888      -0.44415247       0.05966884 </v>
   <v>      -0.24240105      -0.00175285       0.49320411 </v>
   <v>      -0.00378745      -0.24025798       0.49182708 </v>
   <v>      -0.49324219      -0.00031349       0.24154124 </v>
   <v>       0.00099867       0.25079546       0.24183756 </v>
   <v>       0.00633592      -0.25329275      -0.23993890 </v>
   <v>      -0.25965977      -0.24047319       0.49990849 </v>
   <v>      -0.25023911       0.00720042      -0.24817372 </v>
   <v>      -0.00359908      -0.49458596       0.24854527 </v>
   <v>       0.24329453      -0.49039714      -0.00422761 </v>
   <v>       0.24214779       0.00236626       0.25495881 </v>
   <v>       0.48955117       0.00642058      -0.24732016 </v>
   <v>       0.49595115       0.25503482       0.25467164 </v>
   <v>      -0.25424857      -0.24393387      -0.00175465 </v>
   <v>      -0.24812627       0.49785511      -0.25653100 </v>
   <v>       0.49346065      -0.25468402      -0.24183753 </v>
   <v>      -0.26708462      -0.49569465       0.00353271 </v>
   <v>       0.49519492       0.25354696      -0.00364300 </v>
   <v>       0.49838540      -0.25693422       0.00022136 </v>
   <v>       0.25413918       0.49530553       0.24578878 </v>
   <v>       0.24729618       0.24826720       0.49986822 </v>
   <v>       0.24676847       0.00409490      -0.49936752 </v>
   <v>      -0.00322678       0.24572131       0.49939421 </v>
   <v>       0.00682584      -0.49351488      -0.26752708 </v>
   <v>      -0.18504929       0.31314474       0.30027230 </v>
   <v>       0.26460652       0.25781898      -0.00387073 </v>
   <v>      -0.20108488      -0.44663438      -0.18219884 </v>
   <v>      -0.17570525       0.30230024      -0.43248287 </v>
   <v>      -0.19314732      -0.18283484      -0.44084442 </v>
   <v>      -0.44159465       0.31841800       0.30474212 </v>
   <v>      -0.43304089       0.31535568      -0.18931063 </v>
   <v>       0.30911767       0.30823956      -0.18625992 </v>
   <v>      -0.44760432      -0.18447846      -0.17997933 </v>
   <v>      -0.19059080      -0.43583531       0.31516424 </v>
   <v>      -0.19612440      -0.18123366      -0.18307294 </v>
   <v>      -0.44707288      -0.18745330       0.32286491 </v>
   <v>       0.32446282      -0.44082939       0.30687960 </v>
   <v>       0.30659431      -0.42994381      -0.20269368 </v>
   <v>       0.31379730       0.31356824      -0.44368252 </v>
   <v>       0.31661903      -0.19669265       0.32248097 </v>
   <v>       0.31671818      -0.19411114      -0.43705217 </v>
   <v>      -0.00896699       0.00271416       0.49633938 </v>
   <v>      -0.49431311      -0.00248136       0.49841753 </v>
   <v>      -0.00530481      -0.48603171      -0.01346365 </v>
   <v>       0.49864269      -0.49844495      -0.01009010 </v>
   <v>       0.49498321       0.01137813      -0.00210219 </v>
   <v>       0.01176279       0.49540333      -0.49831108 </v>
   <v>      -0.18219203      -0.44136277       0.05471158 </v>
   <v>      -0.45042652      -0.18278825       0.06261627 </v>
   <v>       0.07110860      -0.43030569      -0.44470277 </v>
   <v>      -0.43727600       0.05995491      -0.43640171 </v>
   <v>       0.06961103      -0.17907071      -0.44609124 </v>
   <v>      -0.42762284      -0.44085612      -0.19976064 </v>
   <v>      -0.44002901      -0.44051766       0.06865349 </v>
   <v>      -0.19141389      -0.43834619      -0.43505736 </v>
   <v>      -0.43978380       0.05713851      -0.18566450 </v>
   <v>      -0.44167914      -0.18732822      -0.42989170 </v>
   <v>      -0.19335683       0.05739948      -0.42789538 </v>
   <v>       0.06631124      -0.43643066      -0.19390069 </v>
   <v>      -0.24047441      -0.48543919       0.23384510 </v>
   <v>      -0.49410760       0.49681924       0.24706602 </v>
   <v>      -0.49265218       0.24549281      -0.49244279 </v>
   <v>      -0.23924501       0.49518250       0.49900566 </v>
   <v>      -0.24192529       0.26256441       0.48928236 </v>
   <v>       0.49778132      -0.25133054       0.49806735 </v>
   <v>       0.24659663      -0.49916894      -0.24899264 </v>
   <v>       0.49267680      -0.25953796       0.26351987 </v>
   <v>       0.25523114      -0.25183113      -0.49948721 </v>
   <v>       0.26241998      -0.49924619       0.49691171 </v>
   <v>       0.49882500       0.25258656      -0.25515593 </v>
   <v>      -0.49785186      -0.49335025      -0.26289192 </v>
   <v>       0.30637766       0.32463047       0.06458372 </v>
   <v>       0.29968611       0.32135580       0.31272486 </v>
   <v>       0.30530207       0.06589430       0.31051830 </v>
   <v>       0.06438180       0.31470550       0.31967645 </v>
   <v>       0.23985211       0.25577454       0.24658086 </v>
   <v>      -0.24164099      -0.25354386      -0.25291808 </v>
   <v>      -0.43292091       0.31387764      -0.44985015 </v>
   <v>      -0.43755564      -0.44956736       0.31778094 </v>
   <v>       0.31254170      -0.42952615      -0.44028880 </v>
   <v>      -0.43573049      -0.44285765      -0.43954248 </v>
   <v>      -0.49163644       0.49336267       0.49976985 </v>
  </varray>
 </structure>
 <varray name="primitive_index" >
  <v type="int" >        1 </v>
  <v type="int" >       77 </v>
  <v type="int" >      113 </v>
  <v type="int" >       68 </v>
  <v type="int" >       65 </v>
  <v type="int" >       20 </v>
  <v type="int" >        8 </v>
  <v type="int" >        2 </v>
  <v type="int" >       14 </v>
  <v type="int" >       13 </v>
  <v type="int" >       29 </v>
  <v type="int" >       50 </v>
  <v type="int" >       49 </v>
  <v type="int" >       17 </v>
  <v type="int" >        4 </v>
  <v type="int" >        5 </v>
  <v type="int" >       53 </v>
  <v type="int" >       96 </v>
  <v type="int" >       84 </v>
  <v type="int" >       72 </v>
  <v type="int" >       93 </v>
  <v type="int" >       80 </v>
  <v type="int" >      117 </v>
  <v type="int" >      125 </v>
  <v type="int" >       78 </v>
  <v type="int" >      116 </v>
  <v type="int" >      126 </v>
  <v type="int" >      120 </v>
  <v type="int" >      114 </v>
  <v type="int" >       24 </v>
  <v type="int" >       30 </v>
  <v type="int" >       32 </v>
  <v type="int" >       56 </v>
  <v type="int" >       54 </v>
  <v type="int" >       62 </v>
  <v type="int" >       67 </v>
  <v type="int" >       71 </v>
  <v type="int" >       83 </v>
  <v type="int" >       81 </v>
  <v type="int" >       69 </v>
  <v type="int" >       73 </v>
  <v type="int" >       66 </v>
  <v type="int" >       89 </v>
  <v type="int" >       97 </v>
  <v type="int" >       98 </v>
  <v type="int" >      101 </v>
  <v type="int" >       74 </v>
  <v type="int" >       36 </v>
  <v type="int" >       45 </v>
  <v type="int" >       19 </v>
  <v type="int" >       21 </v>
  <v type="int" >       61 </v>
  <v type="int" >       48 </v>
  <v type="int" >       52 </v>
  <v type="int" >       25 </v>
  <v type="int" >       10 </v>
  <v type="int" >       18 </v>
  <v type="int" >       51 </v>
  <v type="int" >       23 </v>
  <v type="int" >       16 </v>
  <v type="int" >       60 </v>
  <v type="int" >       63 </v>
  <v type="int" >       12 </v>
  <v type="int" >        7 </v>
  <v type="int" >       15 </v>
  <v type="int" >       26 </v>
  <v type="int" >       38 </v>
  <v type="int" >       34 </v>
  <v type="int" >       37 </v>
  <v type="int" >       57 </v>
  <v type="int" >       88 </v>
  <v type="int" >        6 </v>
  <v type="int" >      124 </v>
  <v type="int" >      104 </v>
  <v type="int" >      112 </v>
  <v type="int" >       87 </v>
  <v type="int" >      119 </v>
  <v type="int" >      118 </v>
  <v type="int" >      127 </v>
  <v type="int" >       92 </v>
  <v type="int" >      128 </v>
  <v type="int" >       95 </v>
  <v type="int" >       90 </v>
  <v type="int" >      122 </v>
  <v type="int" >      102 </v>
  <v type="int" >       94 </v>
  <v type="int" >      110 </v>
  <v type="int" >       33 </v>
  <v type="int" >       35 </v>
  <v type="int" >        9 </v>
  <v type="int" >       11 </v>
  <v type="int" >        3 </v>
  <v type="int" >       41 </v>
  <v type="int" >       76 </v>
  <v type="int" >       79 </v>
  <v type="int" >      105 </v>
  <v type="int" >       99 </v>
  <v type="int" >      109 </v>
  <v type="int" >      123 </v>
  <v type="int" >       75 </v>
  <v type="int" >      108 </v>
  <v type="int" >      115 </v>
  <v type="int" >      111 </v>
  <v type="int" >      100 </v>
  <v type="int" >      121 </v>
  <v type="int" >       28 </v>
  <v type="int" >       27 </v>
  <v type="int" >       39 </v>
  <v type="int" >       44 </v>
  <v type="int" >       40 </v>
  <v type="int" >       47 </v>
  <v type="int" >       58 </v>
  <v type="int" >       31 </v>
  <v type="int" >       46 </v>
  <v type="int" >       42 </v>
  <v type="int" >       55 </v>
  <v type="int" >       59 </v>
  <v type="int" >       70 </v>
  <v type="int" >       86 </v>
  <v type="int" >       82 </v>
  <v type="int" >       85 </v>
  <v type="int" >       22 </v>
  <v type="int" >       64 </v>
  <v type="int" >      103 </v>
  <v type="int" >       91 </v>
  <v type="int" >      106 </v>
  <v type="int" >      107 </v>
  <v type="int" >       43 </v>
 </varray>
 <kpoints>
  <generation param="Gamma">
   <v type="int" name="divisions">       2        2        2 </v>
   <v name="usershift">      0.00000000       0.00000000       0.00000000 </v>
   <v name="genvec1">      0.50000000       0.00000000       0.00000000 </v>
   <v name="genvec2">      0.00000000       0.50000000       0.00000000 </v>
   <v name="genvec3">      0.00000000       0.00000000       0.50000000 </v>
   <v name="shift">      0.00000000       0.00000000       0.00000000 </v>
  </generation>
  <varray name="kpointlist" >
   <v>       0.00000000       0.00000000       0.00000000 </v>
   <v>       0.50000000       0.00000000       0.00000000 </v>
   <v>       0.00000000       0.50000000       0.00000000 </v>
   <v>       0.50000000       0.50000000       0.00000000 </v>
   <v>       0.00000000       0.00000000       0.50000000 </v>
   <v>       0.50000000       0.00000000       0.50000000 </v>
   <v>       0.00000000       0.50000000       0.50000000 </v>
   <v>       0.50000000       0.50000000       0.50000000 </v>
  </varray>
  <varray name="weights" >
   <v>       0.12500000 </v>
   <v>       0.12500000 </v>
   <v>       0.12500000 </v>
   <v>       0.12500000 </v>
   <v>       0.12500000 </v>
   <v>       0.12500000 </v>
   <v>       0.12500000 </v>
   <v>       0.12500000 </v>
  </varray>
 </kpoints>
 <parameters>
  <separator name="general" >
   <i type="string" name="SYSTEM">potpaw_PBE@./ARUN.APL1ZEROSTATE</i>
   <i type="logical" name="LCOMPAT"> F  </i>
  </separator>
  <separator name="electronic" >
   <i type="string" name="PREC">accura</i>
   <i name="ENMAX">    500.00000000</i>
   <i name="ENAUG">    322.06900000</i>
   <i name="EDIFF">      0.00000001</i>
   <i type="int" name="IALGO">    38</i>
   <i type="int" name="IWAVPR">    10</i>
   <i type="int" name="NBANDS">   322</i>
   <i name="NELECT">    512.00000000</i>
   <i type="int" name="TURBO">     0</i>
   <i type="int" name="IRESTART">     0</i>
   <i type="int" name="NREBOOT">     0</i>
   <i type="int" name="NMIN">     0</i>
   <i name="EREF">      0.00000000</i>
   <separator name="electronic smearing" >
    <i type="int" name="ISMEAR">     0</i>
    <i name="SIGMA">      0.01000000</i>
    <i name="KSPACING">      0.50000000</i>
    <i type="logical" name="KGAMMA"> T  </i>
   </separator>
   <separator name="electronic projectors" >
    <i type="logical" name="LREAL"> F  </i>
    <v name="ROPT">      0.00000000</v>
    <i type="int" name="LMAXPAW">  -100</i>
    <i type="int" name="LMAXMIX">     2</i>
    <i type="logical" name="NLSPLINE"> F  </i>
   </separator>
   <separator name="electronic startup" >
    <i type="int" name="ISTART">     0</i>
    <i type="int" name="ICHARG">     2</i>
    <i type="int" name="INIWAV">     1</i>
   </separator>
   <separator name="electronic spin" >
    <i type="int" name="ISPIN">     1</i>
    <i type="logical" name="LNONCOLLINEAR"> F  </i>
    <v name="MAGMOM">      1.00000000      1.00000000      1.00000000      1.00000000      1.00000000      1.00000000      1.00000000      1.00000000      1.00000000      1.00000000      1.00000000      1.00000000      1.00000000      1.00000000      1.00000000      1.00000000      1.00000000      1.00000000      1.00000000      1.00000000
      1.00000000      1.00000000      1.00000000      1.00000000      1.00000000      1.00000000      1.00000000      1.00000000      1.00000000      1.00000000      1.00000000      1.00000000      1.00000000      1.00000000      1.00000000      1.00000000      1.00000000      1.00000000      1.00000000      1.00000000
      1.00000000      1.00000000      1.00000000      1.00000000      1.00000000      1.00000000      1.00000000      1.00000000      1.00000000      1.00000000      1.00000000      1.00000000      1.00000000      1.00000000      1.00000000      1.00000000      1.00000000      1.00000000      1.00000000      1.00000000
      1.00000000      1.00000000      1.00000000      1.00000000      1.00000000      1.00000000      1.00000000      1.00000000      1.00000000      1.00000000      1.00000000      1.00000000      1.00000000      1.00000000      1.00000000      1.00000000      1.00000000      1.00000000      1.00000000      1.00000000
      1.00000000      1.00000000      1.00000000      1.00000000      1.00000000      1.00000000      1.00000000      1.00000000      1.00000000      1.00000000      1.00000000      1.00000000      1.00000000      1.00000000      1.00000000      1.00000000      1.00000000      1.00000000      1.00000000      1.00000000
      1.00000000      1.00000000      1.00000000      1.00000000      1.00000000      1.00000000      1.00000000      1.00000000      1.00000000      1.00000000      1.00000000      1.00000000      1.00000000      1.00000000      1.00000000      1.00000000      1.00000000      1.00000000      1.00000000      1.00000000
      1.00000000      1.00000000      1.00000000      1.00000000      1.00000000      1.00000000      1.00000000      1.00000000</v>
    <i name="NUPDOWN">     -1.00000000</i>
    <i type="logical" name="LSORBIT"> F  </i>
    <v name="SAXIS">      0.00000000      0.00000000      1.00000000</v>
    <i type="logical" name="LSPIRAL"> F  </i>
    <v name="QSPIRAL">      0.00000000      0.00000000      0.00000000</v>
    <i type="logical" name="LZEROZ"> F  </i>
   </separator>
   <separator name="electronic exchange-correlation" >
    <i type="logical" name="LASPH"> F  </i>
    <i type="logical" name="LMETAGGA"> F  </i>
   </separator>
   <separator name="electronic convergence" >
    <i type="int" name="NELM">   120</i>
    <i type="int" name="NELMDL">    -5</i>
    <i type="int" name="NELMIN">     4</i>
    <i name="ENINI">    500.00000000</i>
    <separator name="electronic convergence detail" >
     <i type="logical" name="LDIAG"> T  </i>
     <i type="logical" name="LSUBROT"> F  </i>
     <i name="WEIMIN">      0.00000000</i>
     <i name="EBREAK">      0.00000000</i>
     <i name="DEPER">      0.30000000</i>
     <i type="int" name="NRMM">     4</i>
     <i name="TIME">      0.40000000</i>
    </separator>
   </separator>
   <separator name="electronic mixer" >
    <i name="AMIX">      0.40000000</i>
    <i name="BMIX">      1.00000000</i>
    <i name="AMIN">      0.10000000</i>
    <i name="AMIX_MAG">      1.60000000</i>
    <i name="BMIX_MAG">      1.00000000</i>
    <separator name="electronic mixer details" >
     <i type="int" name="IMIX">     4</i>
     <i type="logical" name="MIXFIRST"> F  </i>
     <i type="int" name="MAXMIX">   -45</i>
     <i name="WC">    100.00000000</i>
     <i type="int" name="INIMIX">     1</i>
     <i type="int" name="MIXPRE">     1</i>
     <i type="int" name="MREMOVE">     5</i>
    </separator>
   </separator>
   <separator name="electronic dipolcorrection" >
    <i type="logical" name="LDIPOL"> F  </i>
    <i type="logical" name="LMONO"> F  </i>
    <i type="int" name="IDIPOL">     0</i>
    <i name="EPSILON">      1.00000000</i>
    <v name="DIPOL">   -100.00000000   -100.00000000   -100.00000000</v>
    <i name="EFIELD">      0.00000000</i>
   </separator>
  </separator>
  <separator name="grids" >
   <i type="int" name="NGX">   120</i>
   <i type="int" name="NGY">   120</i>
   <i type="int" name="NGZ">   120</i>
   <i type="int" name="NGXF">   240</i>
   <i type="int" name="NGYF">   240</i>
   <i type="int" name="NGZF">   240</i>
   <i type="logical" name="ADDGRID"> T  </i>
  </separator>
  <separator name="ionic" >
   <i type="int" name="NSW">     0</i>
   <i type="int" name="IBRION">    -1</i>
   <i type="int" name="MDALGO">     0</i>
   <i type="int" name="ISIF">     2</i>
   <i name="PSTRESS">      0.00000000</i>
   <i name="EDIFFG">      0.00000010</i>
   <i type="int" name="NFREE">     0</i>
   <i name="POTIM">      0.50000000</i>
   <i name="SMASS">     -3.00000000</i>
   <i name="SCALEE">      1.00000000</i>
  </separator>
  <separator name="ionic md" >
   <i name="TEBEG">      0.00010000</i>
   <i name="TEEND">      0.00010000</i>
   <i type="int" name="NBLOCK">     1</i>
   <i type="int" name="KBLOCK">     1</i>
   <i type="int" name="NPACO">   256</i>
   <i name="APACO">     16.00000000</i>
  </separator>
  <separator name="symmetry" >
   <i type="int" name="ISYM">     2</i>
   <i name="SYMPREC">      0.00001000</i>
  </separator>
  <separator name="dos" >
   <i type="int" name="LORBIT">     0</i>
   <v name="RWIGS">     -1.00000000</v>
   <i type="int" name="NEDOS">   301</i>
   <i name="EMIN">     10.00000000</i>
   <i name="EMAX">    -10.00000000</i>
   <i name="EFERMI">      0.00000000</i>
  </separator>
  <separator name="writing" >
   <i type="int" name="NWRITE">     2</i>
   <i type="logical" name="LWAVE"> F  </i>
   <i type="logical" name="LDOWNSAMPLE"> F  </i>
   <i type="logical" name="LCHARG"> F  </i>
   <i type="logical" name="LPARD"> F  </i>
   <i type="logical" name="LVTOT"> F  </i>
   <i type="logical" name="LVHAR"> F  </i>
   <i type="logical" name="LELF"> F  </i>
   <i type="logical" name="LOPTICS"> F  </i>
   <v name="STM">      0.00000000      0.00000000      0.00000000      0.00000000      0.00000000      0.00000000      0.00000000</v>
  </separator>
  <separator name="performance" >
   <i type="int" name="NPAR">     2</i>
   <i type="int" name="NSIM">     4</i>
   <i type="int" name="NBLK">    -1</i>
   <i type="logical" name="LPLANE"> T  </i>
   <i type="logical" name="LSCALAPACK"> T  </i>
   <i type="logical" name="LSCAAWARE"> F  </i>
   <i type="logical" name="LSCALU"> F  </i>
   <i type="logical" name="LASYNC"> F  </i>
   <i type="logical" name="LORBITALREAL"> F  </i>
  </separator>
  <separator name="miscellaneous" >
   <i type="int" name="IDIOT">     3</i>
   <i type="int" name="ISPECIAL">     0</i>
   <i type="logical" name="LMUSIC"> F  </i>
   <v name="POMASS">     28.08500000</v>
   <v name="DARWINR">      0.00000000</v>
   <v name="DARWINV">      1.00000000</v>
   <i type="logical" name="LCORR"> T  </i>
  </separator>
  <i type="logical" name="GGA_COMPAT"> T  </i>
  <i type="logical" name="LBERRY"> F  </i>
  <i type="int" name="ICORELEVEL">     0</i>
  <i type="logical" name="LDAU"> F  </i>
  <i type="int" name="I_CONSTRAINED_M">     0</i>
  <separator name="electronic exchange-correlation" >
   <i type="string" name="GGA">--</i>
   <i type="int" name="VOSKOWN">     0</i>
   <i type="logical" name="LHFCALC"> F  </i>
   <i type="string" name="PRECFOCK"></i>
   <i type="logical" name="LSYMGRAD"> F  </i>
   <i type="logical" name="LHFONE"> F  </i>
   <i type="logical" name="LRHFCALC"> F  </i>
   <i type="logical" name="LTHOMAS"> F  </i>
   <i type="logical" name="LMODELHF"> F  </i>
   <i name="ENCUT4O">     -1.00000000</i>
   <i type="int" name="EXXOEP">     0</i>
   <i type="int" name="FOURORBIT">     0</i>
   <i name="AEXX">      0.00000000</i>
   <i name="HFALPHA">      0.00000000</i>
   <i name="MCALPHA">      0.00000000</i>
   <i name="ALDAX">      1.00000000</i>
   <i name="AGGAX">      1.00000000</i>
   <i name="ALDAC">      1.00000000</i>
   <i name="AGGAC">      1.00000000</i>
   <i type="int" name="NKREDX">     1</i>
   <i type="int" name="NKREDY">     1</i>
   <i type="int" name="NKREDZ">     1</i>
   <i type="logical" name="SHIFTRED"> F  </i>
   <i type="logical" name="ODDONLY"> F  </i>
   <i type="logical" name="EVENONLY"> F  </i>
   <i type="int" name="LMAXFOCK">     0</i>
   <i type="int" name="NMAXFOCKAE">     0</i>
   <i type="logical" name="LFOCKAEDFT"> F  </i>
   <i name="HFSCREEN">      0.00000000</i>
   <i name="HFSCREENC">      0.00000000</i>
   <i type="int" name="NBANDSGWLOW">     0</i>
  </separator>
  <separator name="vdW DFT" >
   <i type="logical" name="LUSE_VDW"> F  </i>
   <i name="Zab_VDW">     -0.84910000</i>
   <i name="PARAM1">      0.12340000</i>
   <i name="PARAM2">      1.00000000</i>
   <i name="PARAM3">      0.00000000</i>
  </separator>
  <separator name="model GW" >
   <i type="int" name="MODEL_GW">     0</i>
   <i name="MODEL_EPS0">     12.26607635</i>
   <i name="MODEL_ALPHA">      1.00000000</i>
  </separator>
  <separator name="linear response parameters" >
   <i type="logical" name="LEPSILON"> F  </i>
   <i type="logical" name="LRPA"> F  </i>
   <i type="logical" name="LNABLA"> F  </i>
   <i type="logical" name="LVEL"> F  </i>
   <i type="int" name="KINTER">     0</i>
   <i name="CSHIFT">      0.10000000</i>
   <i name="OMEGAMAX">     -1.00000000</i>
   <i name="DEG_THRESHOLD">      0.00200000</i>
   <i name="RTIME">     -0.10000000</i>
   <i name="WPLASMAI">      0.00000000</i>
   <v name="DFIELD">      0.00000000      0.00000000      0.00000000</v>
   <v name="WPLASMA">      0.00000000      0.00000000      0.00000000      0.00000000      0.00000000      0.00000000      0.00000000      0.00000000      0.00000000</v>
  </separator>
  <separator name="orbital magnetization" >
   <i type="logical" name="NUCIND"> F  </i>
   <v name="MAGPOS">      0.00000000      0.00000000      0.00000000</v>
   <i type="logical" name="LNICSALL"> T  </i>
   <i type="logical" name="ORBITALMAG"> F  </i>
   <i type="logical" name="LMAGBLOCH"> F  </i>
   <i type="logical" name="LCHIMAG"> F  </i>
   <i type="logical" name="LGAUGE"> T  </i>
   <i type="int" name="MAGATOM">     0</i>
   <v name="MAGDIPOL">      0.00000000      0.00000000      0.00000000</v>
   <v name="AVECCONST">      0.00000000      0.00000000      0.00000000</v>
  </separator>
  <separator name="response functions" >
   <i type="logical" name="LADDER"> F  </i>
   <i type="logical" name="LRPAFORCE"> F  </i>
   <i type="logical" name="LFXC"> F  </i>
   <i type="logical" name="LHARTREE"> T  </i>
   <i type="int" name="IBSE">     0</i>
   <v type="int" name="KPOINT">    -1     0     0     0</v>
   <i type="logical" name="LTCTE"> F  </i>
   <i type="logical" name="LTETE"> F  </i>
   <i type="logical" name="LTRIPLET"> F  </i>
   <i type="logical" name="LFXCEPS"> F  </i>
   <i type="logical" name="LFXHEG"> F  </i>
   <i type="int" name="NATURALO">     2</i>
   <i type="logical" name="L2ORDER"> F  </i>
   <i type="logical" name="LMP2LT"> F  </i>
   <i type="logical" name="LUSEW"> F  </i>
   <i name="ENCUTGW">     -2.00000000</i>
   <i name="ENCUTGWSOFT">     -2.00000000</i>
   <i name="ENCUTLF">     -1.00000000</i>
   <i type="int" name="LMAXMP2">    -1</i>
   <i name="SCISSOR">      0.00000000</i>
   <i type="int" name="NOMEGA">     0</i>
   <i type="int" name="NOMEGAR">     0</i>
   <i type="int" name="NBANDSGW">    -1</i>
   <i type="int" name="NBANDSO">    -1</i>
   <i type="int" name="NBANDSV">    -1</i>
   <i type="int" name="NELM">   120</i>
   <i type="int" name="NELMHF">     1</i>
   <i type="int" name="DIM">     3</i>
   <i type="int" name="ANTIRES">     0</i>
   <i name="OMEGAMAX">    -30.00000000</i>
   <i name="OMEGAMIN">    -30.00000000</i>
   <i name="OMEGATL">   -200.00000000</i>
   <i type="int" name="OMEGAGRID">   140</i>
   <i name="CSHIFT">     -0.10000000</i>
   <i type="logical" name="SELFENERGY"> F  </i>
   <i type="logical" name="LSPECTRAL"> F  </i>
   <i type="logical" name="LSPECTRALGW"> F  </i>
   <i type="logical" name="LSINGLES"> F  </i>
   <i type="logical" name="LFERMIGW"> F  </i>
   <i type="logical" name="ODDONLYGW"> F  </i>
   <i type="logical" name="EVENONLYGW"> F  </i>
   <i type="int" name="NKREDLFX">     1</i>
   <i type="int" name="NKREDLFY">     1</i>
   <i type="int" name="NKREDLFZ">     1</i>
   <i type="int" name="MAXMEM">  2800</i>
   <i type="int" name="TELESCOPE">     0</i>
   <i type="int" name="TAUPAR">     1</i>
   <i type="int" name="OMEGAPAR">    -1</i>
   <i name="LAMBDA">      1.00000000</i>
  </separator>
  <separator name="External order field" >
   <i name="OFIELD_KAPPA">      0.00000000</i>
   <v name="OFIELD_K">      0.00000000      0.00000000      0.00000000</v>
   <i name="OFIELD_Q6_NEAR">      0.00000000</i>
   <i name="OFIELD_Q6_FAR">      0.00000000</i>
   <i name="OFIELD_A">      0.00000000</i>
  </separator>
 </parameters>
 <atominfo>
  <atoms>     128 </atoms>
  <types>       1 </types>
  <array name="atoms" >
   <dimension dim="1">ion</dimension>
   <field type="string">element</field>
   <field type="int">atomtype</field>
   <set>
    <rc><c>Si</c><c>   1</c></rc>
    <rc><c>Si</c><c>   1</c></rc>
    <rc><c>Si</c><c>   1</c></rc>
    <rc><c>Si</c><c>   1</c></rc>
    <rc><c>Si</c><c>   1</c></rc>
    <rc><c>Si</c><c>   1</c></rc>
    <rc><c>Si</c><c>   1</c></rc>
    <rc><c>Si</c><c>   1</c></rc>
    <rc><c>Si</c><c>   1</c></rc>
    <rc><c>Si</c><c>   1</c></rc>
    <rc><c>Si</c><c>   1</c></rc>
    <rc><c>Si</c><c>   1</c></rc>
    <rc><c>Si</c><c>   1</c></rc>
    <rc><c>Si</c><c>   1</c></rc>
    <rc><c>Si</c><c>   1</c></rc>
    <rc><c>Si</c><c>   1</c></rc>
    <rc><c>Si</c><c>   1</c></rc>
    <rc><c>Si</c><c>   1</c></rc>
    <rc><c>Si</c><c>   1</c></rc>
    <rc><c>Si</c><c>   1</c></rc>
    <rc><c>Si</c><c>   1</c></rc>
    <rc><c>Si</c><c>   1</c></rc>
    <rc><c>Si</c><c>   1</c></rc>
    <rc><c>Si</c><c>   1</c></rc>
    <rc><c>Si</c><c>   1</c></rc>
    <rc><c>Si</c><c>   1</c></rc>
    <rc><c>Si</c><c>   1</c></rc>
    <rc><c>Si</c><c>   1</c></rc>
    <rc><c>Si</c><c>   1</c></rc>
    <rc><c>Si</c><c>   1</c></rc>
    <rc><c>Si</c><c>   1</c></rc>
    <rc><c>Si</c><c>   1</c></rc>
    <rc><c>Si</c><c>   1</c></rc>
    <rc><c>Si</c><c>   1</c></rc>
    <rc><c>Si</c><c>   1</c></rc>
    <rc><c>Si</c><c>   1</c></rc>
    <rc><c>Si</c><c>   1</c></rc>
    <rc><c>Si</c><c>   1</c></rc>
    <rc><c>Si</c><c>   1</c></rc>
    <rc><c>Si</c><c>   1</c></rc>
    <rc><c>Si</c><c>   1</c></rc>
    <rc><c>Si</c><c>   1</c></rc>
    <rc><c>Si</c><c>   1</c></rc>
    <rc><c>Si</c><c>   1</c></rc>
    <rc><c>Si</c><c>   1</c></rc>
    <rc><c>Si</c><c>   1</c></rc>
    <rc><c>Si</c><c>   1</c></rc>
    <rc><c>Si</c><c>   1</c></rc>
    <rc><c>Si</c><c>   1</c></rc>
    <rc><c>Si</c><c>   1</c></rc>
    <rc><c>Si</c><c>   1</c></rc>
    <rc><c>Si</c><c>   1</c></rc>
    <rc><c>Si</c><c>   1</c></rc>
    <rc><c>Si</c><c>   1</c></rc>
    <rc><c>Si</c><c>   1</c></rc>
    <rc><c>Si</c><c>   1</c></rc>
    <rc><c>Si</c><c>   1</c></rc>
    <rc><c>Si</c><c>   1</c></rc>
    <rc><c>Si</c><c>   1</c></rc>
    <rc><c>Si</c><c>   1</c></rc>
    <rc><c>Si</c><c>   1</c></rc>
    <rc><c>Si</c><c>   1</c></rc>
    <rc><c>Si</c><c>   1</c></rc>
    <rc><c>Si</c><c>   1</c></rc>
    <rc><c>Si</c><c>   1</c></rc>
    <rc><c>Si</c><c>   1</c></rc>
    <rc><c>Si</c><c>   1</c></rc>
    <rc><c>Si</c><c>   1</c></rc>
    <rc><c>Si</c><c>   1</c></rc>
    <rc><c>Si</c><c>   1</c></rc>
    <rc><c>Si</c><c>   1</c></rc>
    <rc><c>Si</c><c>   1</c></rc>
    <rc><c>Si</c><c>   1</c></rc>
    <rc><c>Si</c><c>   1</c></rc>
    <rc><c>Si</c><c>   1</c></rc>
    <rc><c>Si</c><c>   1</c></rc>
    <rc><c>Si</c><c>   1</c></rc>
    <rc><c>Si</c><c>   1</c></rc>
    <rc><c>Si</c><c>   1</c></rc>
    <rc><c>Si</c><c>   1</c></rc>
    <rc><c>Si</c><c>   1</c></rc>
    <rc><c>Si</c><c>   1</c></rc>
    <rc><c>Si</c><c>   1</c></rc>
    <rc><c>Si</c><c>   1</c></rc>
    <rc><c>Si</c><c>   1</c></rc>
    <rc><c>Si</c><c>   1</c></rc>
    <rc><c>Si</c><c>   1</c></rc>
    <rc><c>Si</c><c>   1</c></rc>
    <rc><c>Si</c><c>   1</c></rc>
    <rc><c>Si</c><c>   1</c></rc>
    <rc><c>Si</c><c>   1</c></rc>
    <rc><c>Si</c><c>   1</c></rc>
    <rc><c>Si</c><c>   1</c></rc>
    <rc><c>Si</c><c>   1</c></rc>
    <rc><c>Si</c><c>   1</c></rc>
    <rc><c>Si</c><c>   1</c></rc>
    <rc><c>Si</c><c>   1</c></rc>
    <rc><c>Si</c><c>   1</c></rc>
    <rc><c>Si</c><c>   1</c></rc>
    <rc><c>Si</c><c>   1</c></rc>
    <rc><c>Si</c><c>   1</c></rc>
    <rc><c>Si</c><c>   1</c></rc>
    <rc><c>Si</c><c>   1</c></rc>
    <rc><c>Si</c><c>   1</c></rc>
    <rc><c>Si</c><c>   1</c></rc>
    <rc><c>Si</c><c>   1</c></rc>
    <rc><c>Si</c><c>   1</c></rc>
    <rc><c>Si</c><c>   1</c></rc>
    <rc><c>Si</c><c>   1</c></rc>
    <rc><c>Si</c><c>   1</c></rc>
    <rc><c>Si</c><c>   1</c></rc>
    <rc><c>Si</c><c>   1</c></rc>
    <rc><c>Si</c><c>   1</c></rc>
    <rc><c>Si</c><c>   1</c></rc>
    <rc><c>Si</c><c>   1</c></rc>
    <rc><c>Si</c><c>   1</c></rc>
    <rc><c>Si</c><c>   1</c></rc>
    <rc><c>Si</c><c>   1</c></rc>
    <rc><c>Si</c><c>   1</c></rc>
    <rc><c>Si</c><c>   1</c></rc>
    <rc><c>Si</c><c>   1</c></rc>
    <rc><c>Si</c><c>   1</c></rc>
    <rc><c>Si</c><c>   1</c></rc>
    <rc><c>Si</c><c>   1</c></rc>
    <rc><c>Si</c><c>   1</c></rc>
    <rc><c>Si</c><c>   1</c></rc>
    <rc><c>Si</c><c>   1</c></rc>
    <rc><c>Si</c><c>   1</c></rc>
   </set>
  </array>
  <array name="atomtypes" >
   <dimension dim="1">type</dimension>
   <field type="int">atomspertype</field>
   <field type="string">element</field>
   <field>mass</field>
   <field>valence</field>
   <field type="string">pseudopotential</field>
   <set>
    <rc><c> 128</c><c>Si</c><c>     28.08500000</c><c>      4.00000000</c><c> PAW_PBE Si 05Jan2001                   </c></rc>
   </set>
  </array>
 </atominfo>
 <structure name="initialpos" >
  <crystal>
   <varray name="basis" >
    <v>       0.00000000      10.93733369      10.93733369 </v>
    <v>      10.93733369       0.00000000      10.93733369 </v>
    <v>      10.93733369      10.93733369       0.00000000 </v>
   </varray>
   <i name="volume">   2616.76295363 </i>
   <varray name="rec_basis" >
    <v>      -0.04571498       0.04571498       0.04571498 </v>
    <v>       0.04571498      -0.04571498       0.04571498 </v>
    <v>       0.04571498       0.04571498      -0.04571498 </v>
   </varray>
  </crystal>
  <varray name="positions" >
   <v>       0.99358764       0.00149258       0.00677418 </v>
   <v>       0.24570842       0.99831989       0.00276987 </v>
   <v>       0.49498321       0.01137813       0.99789781 </v>
   <v>       0.74201750       0.99118449       0.00944958 </v>
   <v>       0.00414202       0.25789005       0.99969061 </v>
   <v>       0.26460652       0.25781898       0.99612927 </v>
   <v>       0.49519492       0.25354696       0.99635700 </v>
   <v>       0.75291565       0.24775608       0.99814052 </v>
   <v>       0.99469519       0.51396829       0.98653635 </v>
   <v>       0.24329453       0.50960286       0.99577239 </v>
   <v>       0.49864269       0.50155505       0.98990990 </v>
   <v>       0.73291538       0.50430535       0.00353271 </v>
   <v>       0.98112831       0.75606840       0.00732710 </v>
   <v>       0.25045596       0.75915166       0.99680012 </v>
   <v>       0.49838540       0.74306578       0.00022136 </v>
   <v>       0.74575143       0.75606613       0.99824535 </v>
   <v>       0.99839720       0.99637319       0.26210338 </v>
   <v>       0.24214779       0.00236626       0.25495881 </v>
   <v>       0.50675781       0.99968651       0.24154124 </v>
   <v>       0.75374344       0.99847457       0.24715711 </v>
   <v>       0.00099867       0.25079546       0.24183756 </v>
   <v>       0.23985211       0.25577454       0.24658086 </v>
   <v>       0.49595115       0.25503482       0.25467164 </v>
   <v>       0.74761954       0.25717657       0.24189592 </v>
   <v>       0.99640092       0.50541404       0.24854527 </v>
   <v>       0.25413918       0.49530553       0.24578878 </v>
   <v>       0.50589240       0.49681924       0.24706602 </v>
   <v>       0.75952559       0.51456081       0.23384510 </v>
   <v>       0.00014961       0.73880020       0.24926882 </v>
   <v>       0.24909793       0.75928230       0.24255503 </v>
   <v>       0.49267680       0.74046204       0.26351987 </v>
   <v>       0.75412168       0.74139487       0.25373057 </v>
   <v>       0.99103301       0.00271416       0.49633938 </v>
   <v>       0.24676847       0.00409490       0.50063248 </v>
   <v>       0.50568689       0.99751864       0.49841753 </v>
   <v>       0.75759895       0.99824715       0.49320411 </v>
   <v>       0.99677322       0.24572131       0.49939421 </v>
   <v>       0.24729618       0.24826720       0.49986822 </v>
   <v>       0.50734782       0.24549281       0.50755721 </v>
   <v>       0.75807471       0.26256441       0.48928236 </v>
   <v>       0.01176279       0.49540333       0.50168892 </v>
   <v>       0.26241998       0.50075381       0.49691171 </v>
   <v>       0.50836356       0.49336267       0.49976985 </v>
   <v>       0.76075499       0.49518250       0.49900566 </v>
   <v>       0.99621255       0.75974202       0.49182708 </v>
   <v>       0.25523114       0.74816887       0.50051279 </v>
   <v>       0.49778132       0.74866946       0.49806735 </v>
   <v>       0.74034023       0.75952681       0.49990849 </v>
   <v>       0.00153232       0.00611987       0.74579875 </v>
   <v>       0.24477489       0.99989575       0.75137013 </v>
   <v>       0.48955117       0.00642058       0.75267984 </v>
   <v>       0.74976089       0.00720042       0.75182628 </v>
   <v>       0.00817937       0.25243589       0.74164000 </v>
   <v>       0.23966273       0.26240016       0.74532128 </v>
   <v>       0.49882500       0.25258656       0.74484407 </v>
   <v>       0.75989617       0.26097612       0.73552957 </v>
   <v>       0.00682584       0.50648512       0.73247292 </v>
   <v>       0.24659663       0.50083106       0.75100736 </v>
   <v>       0.50214814       0.50664975       0.73710808 </v>
   <v>       0.75187373       0.49785511       0.74346900 </v>
   <v>       0.00633592       0.74670725       0.76006110 </v>
   <v>       0.25121002       0.75237418       0.73669715 </v>
   <v>       0.49346065       0.74531598       0.75816247 </v>
   <v>       0.75835901       0.74645614       0.74708192 </v>
   <v>       0.07084314       0.06986173       0.05759285 </v>
   <v>       0.30550308       0.05917479       0.07585749 </v>
   <v>       0.56667686       0.06587987       0.06965556 </v>
   <v>       0.80698212       0.06333342       0.06741009 </v>
   <v>       0.06945843       0.31175619       0.05440183 </v>
   <v>       0.30637766       0.32463047       0.06458372 </v>
   <v>       0.56704910       0.30478689       0.06623085 </v>
   <v>       0.81481970       0.30945745       0.06533407 </v>
   <v>       0.05781432       0.57146932       0.05202524 </v>
   <v>       0.31976888       0.55584753       0.05966884 </v>
   <v>       0.55997099       0.55948234       0.06865349 </v>
   <v>       0.81780797       0.55863723       0.05471158 </v>
   <v>       0.06937422       0.82037806       0.05293090 </v>
   <v>       0.30998410       0.81709217       0.06891554 </v>
   <v>       0.54957348       0.81721175       0.06261627 </v>
   <v>       0.80722410       0.81211702       0.07003057 </v>
   <v>       0.06493531       0.06323941       0.31015435 </v>
   <v>       0.30530207       0.06589430       0.31051830 </v>
   <v>       0.56628769       0.07161467       0.30981980 </v>
   <v>       0.81565236       0.06451910       0.31179345 </v>
   <v>       0.06438180       0.31470550       0.31967645 </v>
   <v>       0.29968611       0.32135580       0.31272486 </v>
   <v>       0.55840535       0.31841800       0.30474212 </v>
   <v>       0.81495071       0.31314474       0.30027230 </v>
   <v>       0.06892531       0.55640684       0.30973894 </v>
   <v>       0.32446282       0.55917061       0.30687960 </v>
   <v>       0.56244436       0.55043264       0.31778094 </v>
   <v>       0.80940920       0.56416469       0.31516424 </v>
   <v>       0.07294686       0.81717643       0.30611668 </v>
   <v>       0.31661903       0.80330735       0.32248097 </v>
   <v>       0.55292712       0.81254670       0.32286491 </v>
   <v>       0.81764037       0.81472355       0.31193654 </v>
   <v>       0.06007801       0.06528854       0.56494954 </v>
   <v>       0.30176859       0.06027938       0.56323035 </v>
   <v>       0.56272400       0.05995491       0.56359829 </v>
   <v>       0.80664317       0.05739948       0.57210462 </v>
   <v>       0.05332244       0.31172439       0.55821153 </v>
   <v>       0.31379730       0.31356824       0.55631748 </v>
   <v>       0.56707909       0.31387764       0.55014985 </v>
   <v>       0.82429475       0.30230024       0.56751713 </v>
   <v>       0.07110860       0.56969431       0.55529723 </v>
   <v>       0.31254170       0.57047385       0.55971120 </v>
   <v>       0.56426951       0.55714235       0.56045752 </v>
   <v>       0.80858611       0.56165381       0.56494264 </v>
   <v>       0.06961103       0.82092929       0.55390876 </v>
   <v>       0.31671818       0.80588886       0.56294783 </v>
   <v>       0.55832086       0.81267178       0.57010830 </v>
   <v>       0.80685268       0.81716516       0.55915558 </v>
   <v>       0.06094754       0.05629208       0.82271314 </v>
   <v>       0.30897551       0.07542730       0.79636911 </v>
   <v>       0.56021620       0.05713851       0.81433550 </v>
   <v>       0.81185654       0.06769039       0.80745576 </v>
   <v>       0.06602992       0.30957502       0.81279335 </v>
   <v>       0.30911767       0.30823956       0.81374008 </v>
   <v>       0.56695911       0.31535568       0.81068937 </v>
   <v>       0.82101784       0.32175129       0.80108603 </v>
   <v>       0.06631124       0.56356934       0.80609931 </v>
   <v>       0.30659431       0.57005619       0.79730632 </v>
   <v>       0.57237716       0.55914388       0.80023936 </v>
   <v>       0.79891512       0.55336562       0.81780116 </v>
   <v>       0.07150646       0.82113928       0.80256698 </v>
   <v>       0.31199566       0.81421531       0.81426607 </v>
   <v>       0.55239568       0.81552154       0.82002067 </v>
   <v>       0.80387560       0.81876634       0.81692706 </v>
  </varray>
 </structure>
 <calculation>
  <scstep>
   <time name="dav">   69.96   69.99</time>
   <time name="total">   70.96   71.00</time>
   <energy>
    <i name="alphaZ">    210.77028614 </i>
    <i name="ewald"> -14473.68152379 </i>
    <i name="hartreedc">   -755.38547805 </i>
    <i name="XCdc">  -1195.33821676 </i>
    <i name="pawpsdc">   4221.13331941 </i>
    <i name="pawaedc">  -1969.18571412 </i>
    <i name="eentropy">     -0.00224428 </i>
    <i name="bandstr">   2151.70682500 </i>
    <i name="atom">  13192.48085998 </i>
    <i name="e_fr_energy">   1382.49811355 </i>
    <i name="e_wo_entrp">   1382.50035782 </i>
    <i name="e_0_energy">   1382.49923569 </i>
   </energy>
  </scstep>
  <scstep>
   <time name="dav">   80.13   80.16</time>
   <time name="total">   80.13   80.16</time>
   <energy>
    <i name="e_fr_energy">   -538.43376551 </i>
    <i name="e_wo_entrp">   -538.43269306 </i>
    <i name="e_0_energy">   -538.43322928 </i>
   </energy>
  </scstep>
  <scstep>
   <time name="dav">   81.78   81.80</time>
   <time name="total">   81.78   81.81</time>
   <energy>
    <i name="e_fr_energy">   -687.96778807 </i>
    <i name="e_wo_entrp">   -687.96778807 </i>
    <i name="e_0_energy">   -687.96778807 </i>
   </energy>
  </scstep>
  <scstep>
   <time name="dav">   80.36   80.39</time>
   <time name="total">   80.36   80.39</time>
   <energy>
    <i name="e_fr_energy">   -692.11040800 </i>
    <i name="e_wo_entrp">   -692.11040800 </i>
    <i name="e_0_energy">   -692.11040800 </i>
   </energy>
  </scstep>
  <scstep>
   <time name="dav">   82.03   82.05</time>
   <time name="total">   85.34   85.36</time>
   <energy>
    <i name="e_fr_energy">   -692.25227718 </i>
    <i name="e_wo_entrp">   -692.25227718 </i>
    <i name="e_0_energy">   -692.25227718 </i>
   </energy>
  </scstep>
  <scstep>
   <time name="dav">   78.04   78.07</time>
   <time name="total">   82.35   82.38</time>
   <energy>
    <i name="e_fr_energy">   -683.82577414 </i>
    <i name="e_wo_entrp">   -683.82577414 </i>
    <i name="e_0_energy">   -683.82577414 </i>
   </energy>
  </scstep>
  <scstep>
   <time name="dav">   77.59   77.62</time>
   <time name="total">   81.90   81.94</time>
   <energy>
    <i name="e_fr_energy">   -680.30233136 </i>
    <i name="e_wo_entrp">   -680.30233136 </i>
    <i name="e_0_energy">   -680.30233136 </i>
   </energy>
  </scstep>
  <scstep>
   <time name="dav">   76.47   76.50</time>
   <time name="total">   80.81   80.85</time>
   <energy>
    <i name="e_fr_energy">   -680.35839903 </i>
    <i name="e_wo_entrp">   -680.35839903 </i>
    <i name="e_0_energy">   -680.35839903 </i>
   </energy>
  </scstep>
  <scstep>
   <time name="dav">   79.09   79.13</time>
   <time name="total">   83.44   83.47</time>
   <energy>
    <i name="e_fr_energy">   -680.38077698 </i>
    <i name="e_wo_entrp">   -680.38077698 </i>
    <i name="e_0_energy">   -680.38077698 </i>
   </energy>
  </scstep>
  <scstep>
   <time name="dav">   78.79   78.83</time>
   <time name="total">   83.11   83.15</time>
   <energy>
    <i name="e_fr_energy">   -680.38330261 </i>
    <i name="e_wo_entrp">   -680.38330261 </i>
    <i name="e_0_energy">   -680.38330261 </i>
   </energy>
  </scstep>
  <scstep>
   <time name="dav">   76.05   76.08</time>
   <time name="total">   80.42   80.46</time>
   <energy>
    <i name="e_fr_energy">   -680.38491521 </i>
    <i name="e_wo_entrp">   -680.38491521 </i>
    <i name="e_0_energy">   -680.38491521 </i>
   </energy>
  </scstep>
  <scstep>
   <time name="dav">   79.86   79.88</time>
   <time name="total">   84.23   84.26</time>
   <energy>
    <i name="e_fr_energy">   -680.38497740 </i>
    <i name="e_wo_entrp">   -680.38497740 </i>
    <i name="e_0_energy">   -680.38497740 </i>
   </energy>
  </scstep>
  <scstep>
   <time name="dav">   75.91   75.94</time>
   <time name="total">   80.28   80.31</time>
   <energy>
    <i name="e_fr_energy">   -680.38500818 </i>
    <i name="e_wo_entrp">   -680.38500818 </i>
    <i name="e_0_energy">   -680.38500818 </i>
   </energy>
  </scstep>
  <scstep>
   <time name="dav">   79.72   79.74</time>
   <time name="total">   84.09   84.12</time>
   <energy>
    <i name="e_fr_energy">   -680.38501324 </i>
    <i name="e_wo_entrp">   -680.38501324 </i>
    <i name="e_0_energy">   -680.38501324 </i>
   </energy>
  </scstep>
  <scstep>
   <time name="dav">   79.71   79.73</time>
   <time name="total">   84.08   84.11</time>
   <energy>
    <i name="e_fr_energy">   -680.38501677 </i>
    <i name="e_wo_entrp">   -680.38501677 </i>
    <i name="e_0_energy">   -680.38501677 </i>
   </energy>
  </scstep>
  <scstep>
   <time name="dav">   78.81   78.83</time>
   <time name="total">   82.97   83.00</time>
   <energy>
    <i name="e_fr_energy">   -680.38501641 </i>
    <i name="e_wo_entrp">   -680.38501641 </i>
    <i name="e_0_energy">   -680.38501641 </i>
   </energy>
  </scstep>
  <scstep>
   <time name="dav">   65.36   65.37</time>
   <time name="total">   69.52   69.54</time>
   <energy>
    <i name="e_fr_energy">   -680.38501629 </i>
    <i name="e_wo_entrp">   -680.38501629 </i>
    <i name="e_0_energy">   -680.38501629 </i>
   </energy>
  </scstep>
  <scstep>
   <time name="dav">   52.41   52.42</time>
   <time name="total">   56.58   56.60</time>
   <energy>
    <i name="e_fr_energy">   -680.38501643 </i>
    <i name="e_wo_entrp">   -680.38501643 </i>
    <i name="e_0_energy">   -680.38501643 </i>
   </energy>
  </scstep>
  <scstep>
   <time name="dav">   50.64   50.66</time>
   <time name="total">   54.80   54.82</time>
   <energy>
    <i name="e_fr_energy">   -680.38501636 </i>
    <i name="e_wo_entrp">   -680.38501636 </i>
    <i name="e_0_energy">   -680.38501636 </i>
   </energy>
  </scstep>
  <scstep>
   <time name="dav">   50.18   50.20</time>
   <time name="total">   54.34   54.37</time>
   <energy>
    <i name="e_fr_energy">   -680.38501638 </i>
    <i name="e_wo_entrp">   -680.38501638 </i>
    <i name="e_0_energy">   -680.38501638 </i>
   </energy>
  </scstep>
  <scstep>
   <time name="dav">   49.97   49.99</time>
   <time name="total">   50.97   50.99</time>
   <energy>
    <i name="alphaZ">    210.77028614 </i>
    <i name="ewald"> -14473.68152379 </i>
    <i name="hartreedc">  -1001.15565020 </i>
    <i name="XCdc">  -1155.75993552 </i>
    <i name="pawpsdc">   4729.72802556 </i>
    <i name="pawaedc">  -2491.42579350 </i>
    <i name="eentropy">     -0.00000000 </i>
    <i name="bandstr">    308.65871494 </i>
    <i name="atom">  13192.48085998 </i>
    <i name="e_fr_energy">   -680.38501638 </i>
    <i name="e_wo_entrp">   -680.38501638 </i>
    <i name="e_0_energy">   -680.38501638 </i>
   </energy>
  </scstep>
  <structure>
   <crystal>
    <varray name="basis" >
     <v>       0.00000000      10.93733369      10.93733369 </v>
     <v>      10.93733369       0.00000000      10.93733369 </v>
     <v>      10.93733369      10.93733369       0.00000000 </v>
    </varray>
    <i name="volume">   2616.76295363 </i>
    <varray name="rec_basis" >
     <v>      -0.04571498       0.04571498       0.04571498 </v>
     <v>       0.04571498      -0.04571498       0.04571498 </v>
     <v>       0.04571498       0.04571498      -0.04571498 </v>
    </varray>
   </crystal>
   <varray name="positions" >
    <v>       0.99358764       0.00149258       0.00677418 </v>
    <v>       0.24570842       0.99831989       0.00276987 </v>
    <v>       0.49498321       0.01137813       0.99789781 </v>
    <v>       0.74201750       0.99118449       0.00944958 </v>
    <v>       0.00414202       0.25789005       0.99969061 </v>
    <v>       0.26460652       0.25781898       0.99612927 </v>
    <v>       0.49519492       0.25354696       0.99635700 </v>
    <v>       0.75291565       0.24775608       0.99814052 </v>
    <v>       0.99469519       0.51396829       0.98653635 </v>
    <v>       0.24329453       0.50960286       0.99577239 </v>
    <v>       0.49864269       0.50155505       0.98990990 </v>
    <v>       0.73291538       0.50430535       0.00353271 </v>
    <v>       0.98112831       0.75606840       0.00732710 </v>
    <v>       0.25045596       0.75915166       0.99680012 </v>
    <v>       0.49838540       0.74306578       0.00022136 </v>
    <v>       0.74575143       0.75606613       0.99824535 </v>
    <v>       0.99839720       0.99637319       0.26210338 </v>
    <v>       0.24214779       0.00236626       0.25495881 </v>
    <v>       0.50675781       0.99968651       0.24154124 </v>
    <v>       0.75374344       0.99847457       0.24715711 </v>
    <v>       0.00099867       0.25079546       0.24183756 </v>
    <v>       0.23985211       0.25577454       0.24658086 </v>
    <v>       0.49595115       0.25503482       0.25467164 </v>
    <v>       0.74761954       0.25717657       0.24189592 </v>
    <v>       0.99640092       0.50541404       0.24854527 </v>
    <v>       0.25413918       0.49530553       0.24578878 </v>
    <v>       0.50589240       0.49681924       0.24706602 </v>
    <v>       0.75952559       0.51456081       0.23384510 </v>
    <v>       0.00014961       0.73880020       0.24926882 </v>
    <v>       0.24909793       0.75928230       0.24255503 </v>
    <v>       0.49267680       0.74046204       0.26351987 </v>
    <v>       0.75412168       0.74139487       0.25373057 </v>
    <v>       0.99103301       0.00271416       0.49633938 </v>
    <v>       0.24676847       0.00409490       0.50063248 </v>
    <v>       0.50568689       0.99751864       0.49841753 </v>
    <v>       0.75759895       0.99824715       0.49320411 </v>
    <v>       0.99677322       0.24572131       0.49939421 </v>
    <v>       0.24729618       0.24826720       0.49986822 </v>
    <v>       0.50734782       0.24549281       0.50755721 </v>
    <v>       0.75807471       0.26256441       0.48928236 </v>
    <v>       0.01176279       0.49540333       0.50168892 </v>
    <v>       0.26241998       0.50075381       0.49691171 </v>
    <v>       0.50836356       0.49336267       0.49976985 </v>
    <v>       0.76075499       0.49518250       0.49900566 </v>
    <v>       0.99621255       0.75974202       0.49182708 </v>
    <v>       0.25523114       0.74816887       0.50051279 </v>
    <v>       0.49778132       0.74866946       0.49806735 </v>
    <v>       0.74034023       0.75952681       0.49990849 </v>
    <v>       0.00153232       0.00611987       0.74579875 </v>
    <v>       0.24477489       0.99989575       0.75137013 </v>
    <v>       0.48955117       0.00642058       0.75267984 </v>
    <v>       0.74976089       0.00720042       0.75182628 </v>
    <v>       0.00817937       0.25243589       0.74164000 </v>
    <v>       0.23966273       0.26240016       0.74532128 </v>
    <v>       0.49882500       0.25258656       0.74484407 </v>
    <v>       0.75989617       0.26097612       0.73552957 </v>
    <v>       0.00682584       0.50648512       0.73247292 </v>
    <v>       0.24659663       0.50083106       0.75100736 </v>
    <v>       0.50214814       0.50664975       0.73710808 </v>
    <v>       0.75187373       0.49785511       0.74346900 </v>
    <v>       0.00633592       0.74670725       0.76006110 </v>
    <v>       0.25121002       0.75237418       0.73669715 </v>
    <v>       0.49346065       0.74531598       0.75816247 </v>
    <v>       0.75835901       0.74645614       0.74708192 </v>
    <v>       0.07084314       0.06986173       0.05759285 </v>
    <v>       0.30550308       0.05917479       0.07585749 </v>
    <v>       0.56667686       0.06587987       0.06965556 </v>
    <v>       0.80698212       0.06333342       0.06741009 </v>
    <v>       0.06945843       0.31175619       0.05440183 </v>
    <v>       0.30637766       0.32463047       0.06458372 </v>
    <v>       0.56704910       0.30478689       0.06623085 </v>
    <v>       0.81481970       0.30945745       0.06533407 </v>
    <v>       0.05781432       0.57146932       0.05202524 </v>
    <v>       0.31976888       0.55584753       0.05966884 </v>
    <v>       0.55997099       0.55948234       0.06865349 </v>
    <v>       0.81780797       0.55863723       0.05471158 </v>
    <v>       0.06937422       0.82037806       0.05293090 </v>
    <v>       0.30998410       0.81709217       0.06891554 </v>
    <v>       0.54957348       0.81721175       0.06261627 </v>
    <v>       0.80722410       0.81211702       0.07003057 </v>
    <v>       0.06493531       0.06323941       0.31015435 </v>
    <v>       0.30530207       0.06589430       0.31051830 </v>
    <v>       0.56628769       0.07161467       0.30981980 </v>
    <v>       0.81565236       0.06451910       0.31179345 </v>
    <v>       0.06438180       0.31470550       0.31967645 </v>
    <v>       0.29968611       0.32135580       0.31272486 </v>
    <v>       0.55840535       0.31841800       0.30474212 </v>
    <v>       0.81495071       0.31314474       0.30027230 </v>
    <v>       0.06892531       0.55640684       0.30973894 </v>
    <v>       0.32446282       0.55917061       0.30687960 </v>
    <v>       0.56244436       0.55043264       0.31778094 </v>
    <v>       0.80940920       0.56416469       0.31516424 </v>
    <v>       0.07294686       0.81717643       0.30611668 </v>
    <v>       0.31661903       0.80330735       0.32248097 </v>
    <v>       0.55292712       0.81254670       0.32286491 </v>
    <v>       0.81764037       0.81472355       0.31193654 </v>
    <v>       0.06007801       0.06528854       0.56494954 </v>
    <v>       0.30176859       0.06027938       0.56323035 </v>
    <v>       0.56272400       0.05995491       0.56359829 </v>
    <v>       0.80664317       0.05739948       0.57210462 </v>
    <v>       0.05332244       0.31172439       0.55821153 </v>
    <v>       0.31379730       0.31356824       0.55631748 </v>
    <v>       0.56707909       0.31387764       0.55014985 </v>
    <v>       0.82429475       0.30230024       0.56751713 </v>
    <v>       0.07110860       0.56969431       0.55529723 </v>
    <v>       0.31254170       0.57047385       0.55971120 </v>
    <v>       0.56426951       0.55714235       0.56045752 </v>
    <v>       0.80858611       0.56165381       0.56494264 </v>
    <v>       0.06961103       0.82092929       0.55390876 </v>
    <v>       0.31671818       0.80588886       0.56294783 </v>
    <v>       0.55832086       0.81267178       0.57010830 </v>
    <v>       0.80685268       0.81716516       0.55915558 </v>
    <v>       0.06094754       0.05629208       0.82271314 </v>
    <v>       0.30897551       0.07542730       0.79636911 </v>
    <v>       0.56021620       0.05713851       0.81433550 </v>
    <v>       0.81185654       0.06769039       0.80745576 </v>
    <v>       0.06602992       0.30957502       0.81279335 </v>
    <v>       0.30911767       0.30823956       0.81374008 </v>
    <v>       0.56695911       0.31535568       0.81068937 </v>
    <v>       0.82101784       0.32175129       0.80108603 </v>
    <v>       0.06631124       0.56356934       0.80609931 </v>
    <v>       0.30659431       0.57005619       0.79730632 </v>
    <v>       0.57237716       0.55914388       0.80023936 </v>
    <v>       0.79891512       0.55336562       0.81780116 </v>
    <v>       0.07150646       0.82113928       0.80256698 </v>
    <v>       0.31199566       0.81421531       0.81426607 </v>
    <v>       0.55239568       0.81552154       0.82002067 </v>
    <v>       0.80387560       0.81876634       0.81692706 </v>
   </varray>
  </structure>
  <varray name="forces" >
   <v>       0.63610322       0.33333742       0.81802007 </v>
   <v>      -0.59634641       0.07115038       2.32159182 </v>
   <v>       0.18038292       1.08367568      -0.93878405 </v>
   <v>      -0.14067647      -0.04337905       2.65465728 </v>
   <v>      -1.21548231      -1.01376394      -1.21144005 </v>
   <v>      -0.72300747      -0.89325416      -2.61054931 </v>
   <v>       0.62980453       1.16514165       0.45292525 </v>
   <v>       0.00008430      -0.24042809       0.67098553 </v>
   <v>      -1.13450698       1.84840829      -0.57374221 </v>
   <v>      -0.53245777      -0.40422380       0.83656060 </v>
   <v>      -0.65252526       1.76505483       0.39133374 </v>
   <v>      -1.67234868       2.07005810       1.20386373 </v>
   <v>      -1.52136205       1.26131658       3.17297300 </v>
   <v>      -0.58253438       1.26665277      -0.71104630 </v>
   <v>       1.29077221       0.19921184       0.16601722 </v>
   <v>       0.24613253       0.32678211      -1.32709799 </v>
   <v>      -0.93901688      -1.28134351       1.41278905 </v>
   <v>      -0.92657282       1.69999250      -0.40872952 </v>
   <v>       2.56165127       1.04924622      -1.55610356 </v>
   <v>       1.15142392       0.45600045       0.18588393 </v>
   <v>       0.47234939       0.67397442       0.51368494 </v>
   <v>      -0.32052927       1.71756833       0.55198885 </v>
   <v>      -0.63739962      -1.49454820      -0.82272147 </v>
   <v>       0.23923070       0.80412435      -1.46872733 </v>
   <v>      -0.81511793      -0.02119909      -0.03002217 </v>
   <v>       1.21858868      -0.30708770       1.47453928 </v>
   <v>       0.53702425      -0.09326655      -0.19353838 </v>
   <v>      -0.18909558       0.35617651      -2.57854206 </v>
   <v>       0.64567723       0.29539566       2.36367014 </v>
   <v>       0.05504100       2.88975026      -0.71725719 </v>
   <v>      -1.21713125       0.14541396       1.62566409 </v>
   <v>       2.16184977      -0.78023037       0.36845435 </v>
   <v>       0.72801626       1.01417618       1.04034646 </v>
   <v>      -1.70125493      -0.82685265      -1.12949125 </v>
   <v>       0.67982458      -1.12641568      -0.68857231 </v>
   <v>       1.56651910      -0.28649212      -0.68335822 </v>
   <v>      -0.67082484       0.98229767       0.96144201 </v>
   <v>       0.19858562      -0.54157251      -0.33003368 </v>
   <v>      -1.69608800      -2.66552765      -1.18691687 </v>
   <v>      -0.90322398       0.05044615      -1.63374238 </v>
   <v>       0.31232595      -1.32335463      -0.43335994 </v>
   <v>      -0.28531642      -0.97166828      -0.37856275 </v>
   <v>       0.65357600      -1.18106637      -0.69158446 </v>
   <v>       0.05504050      -0.51843392      -1.29818397 </v>
   <v>       0.00809533       0.96645210       0.30835753 </v>
   <v>       0.84633711      -0.75642485      -0.29898937 </v>
   <v>       0.84088395       1.88414775      -0.10687269 </v>
   <v>      -1.13494595       0.76915723      -0.34728811 </v>
   <v>       0.49939037       0.28322337      -0.61248415 </v>
   <v>      -0.31608885      -0.03878006       0.40781883 </v>
   <v>      -1.12252895       0.41484576       0.01632842 </v>
   <v>      -0.51056944      -0.42940681      -1.60089950 </v>
   <v>      -0.00985830       0.51756754      -0.91240238 </v>
   <v>      -1.46738576       1.02482969       0.70958987 </v>
   <v>      -0.35647082       0.43278382       0.15986493 </v>
   <v>       1.90815629       1.86576574      -2.71276043 </v>
   <v>       1.29198768       1.04541022      -2.07809982 </v>
   <v>      -1.69761138      -0.26453299      -0.38111564 </v>
   <v>       0.85569160       0.65044928      -1.59405819 </v>
   <v>       0.34524482      -0.36546247       0.08989513 </v>
   <v>      -0.23862717      -2.21795413       0.35336618 </v>
   <v>       1.73300931       1.83605456      -0.09497521 </v>
   <v>      -0.20578843       0.47788866       1.16629215 </v>
   <v>       0.77398084      -0.69006597      -1.11699788 </v>
   <v>       1.14237727      -0.75623434      -2.29402562 </v>
   <v>      -0.75813339      -1.27985879       1.61474414 </v>
   <v>      -1.12985862      -2.87698399      -0.20888313 </v>
   <v>      -1.21425358      -0.53819036       0.10775751 </v>
   <v>       1.56113890       0.86433387       2.07455004 </v>
   <v>      -0.22799994       0.12759590       0.68145317 </v>
   <v>       0.41471628      -1.19118031       0.22828460 </v>
   <v>      -0.62538609      -1.33933564       0.91487621 </v>
   <v>       0.74403714       0.53836200      -0.64545797 </v>
   <v>       1.23390102      -1.50597544       0.12537135 </v>
   <v>      -0.18501939      -2.16581544      -0.86700226 </v>
   <v>       0.97633955      -1.94802611       0.23539495 </v>
   <v>       0.25571827      -0.15053774      -2.45129574 </v>
   <v>      -1.86805377      -0.92901057       0.64474654 </v>
   <v>       0.27403094       1.07644618       0.39626513 </v>
   <v>      -0.05594508      -0.95660912      -1.48512967 </v>
   <v>       1.16853103      -0.64615954      -0.56266439 </v>
   <v>       0.05353836       0.82804815       0.96838303 </v>
   <v>      -0.80479269       0.09263566      -1.23992288 </v>
   <v>      -0.21597233      -0.97244280       0.02742812 </v>
   <v>      -0.34421071      -2.65668911      -0.79700184 </v>
   <v>      -1.76877246       1.52453143      -0.80991190 </v>
   <v>       0.55992188       2.26667953      -0.22614563 </v>
   <v>       1.32683429       0.30649929       1.11739609 </v>
   <v>       0.50701289       0.18470175      -0.35593206 </v>
   <v>       0.91341589      -1.28895999      -0.56361610 </v>
   <v>       0.08617215       0.18795218       2.00634928 </v>
   <v>      -0.73432054       0.91217936       0.11957558 </v>
   <v>      -0.22228474      -1.11416583      -2.45838207 </v>
   <v>       0.28482600      -2.32014837       0.26362929 </v>
   <v>      -2.02742359      -0.60306061       1.36578903 </v>
   <v>      -0.41973512      -0.41839769      -1.18471409 </v>
   <v>      -1.35533079      -0.53683687      -0.51846663 </v>
   <v>       0.55350048       1.75112259       1.95628470 </v>
   <v>      -0.15969882       0.70520696       0.41259394 </v>
   <v>      -0.16638628      -1.38476103       1.40850812 </v>
   <v>       0.18879555       1.29786418       1.26494574 </v>
   <v>       0.32871753       0.60883809       0.27080765 </v>
   <v>       1.41416223       2.50293671       0.76536997 </v>
   <v>      -0.30240615      -3.47117614       0.91140925 </v>
   <v>      -0.80137231      -0.72504053       0.64387016 </v>
   <v>      -0.86499484       1.61069871      -0.62214751 </v>
   <v>      -0.62677307       0.08599963       1.81421533 </v>
   <v>      -0.31902786      -0.06003040       2.46026402 </v>
   <v>       0.23832381       0.40855342      -1.90668477 </v>
   <v>       0.26950562      -1.55580669       1.48162924 </v>
   <v>      -0.32110927      -0.67705172      -0.59496987 </v>
   <v>      -0.29794811       0.93911803       0.04395764 </v>
   <v>       0.35126588      -1.12572481       0.54003593 </v>
   <v>       1.12817610       0.79514853      -1.01989672 </v>
   <v>       0.79050731      -0.36894376       1.18536792 </v>
   <v>       1.17407475       1.17583290       0.35803795 </v>
   <v>       1.31050831      -1.68006296      -0.10408198 </v>
   <v>       0.20524957       0.11246892       1.27486166 </v>
   <v>      -0.65128755      -0.99540160       0.06148847 </v>
   <v>      -0.57094800       1.33369233      -1.53831042 </v>
   <v>       0.03093521      -0.96570618      -0.29003758 </v>
   <v>       0.82545436       2.27181938       0.44854217 </v>
   <v>       1.20106800      -0.63153858      -0.92052725 </v>
   <v>       0.49800407       0.85139872       2.64925930 </v>
   <v>       1.06408389       0.01114132      -1.64903055 </v>
   <v>      -0.77233008      -0.86641114      -0.52513130 </v>
   <v>      -1.36826468      -0.21395532       0.95216607 </v>
   <v>      -1.08489154       0.62723138       1.10390703 </v>
  </varray>
  <varray name="stress" >
   <v>      14.47626175       3.39504862      -7.98599230 </v>
   <v>       3.39504862      10.09947280       0.06057441 </v>
   <v>      -7.98599230       0.06057441      10.79964835 </v>
  </varray>
  <energy>
   <i name="e_fr_energy">   -680.38501638 </i>
   <i name="e_wo_entrp">   -680.38501638 </i>
   <i name="e_0_energy">     -0.00000000 </i>
  </energy>
  <time name="totalsc"> 1709.72 1710.37</time>
  <eigenvalues>
   <array>
    <dimension dim="1">band</dimension>
    <dimension dim="2">kpoint</dimension>
    <dimension dim="3">spin</dimension>
    <field>eigene</field>
    <field>occ</field>
    <set>
     <set comment="spin 1">
      <set comment="kpoint 1">
       <r>   -6.3007    1.0000 </r>
       <r>   -5.7432    1.0000 </r>
       <r>   -5.6472    1.0000 </r>
       <r>   -5.5923    1.0000 </r>
       <r>   -5.5259    1.0000 </r>
       <r>   -5.5030    1.0000 </r>
       <r>   -5.4811    1.0000 </r>
       <r>   -5.4150    1.0000 </r>
       <r>   -5.3738    1.0000 </r>
       <r>   -5.3057    1.0000 </r>
       <r>   -5.2819    1.0000 </r>
       <r>   -5.2175    1.0000 </r>
       <r>   -5.1666    1.0000 </r>
       <r>   -5.1275    1.0000 </r>
       <r>   -5.0758    1.0000 </r>
       <r>   -4.5882    1.0000 </r>
       <r>   -4.4591    1.0000 </r>
       <r>   -4.4221    1.0000 </r>
       <r>   -4.3512    1.0000 </r>
       <r>   -4.3502    1.0000 </r>
       <r>   -4.3135    1.0000 </r>
       <r>   -4.2775    1.0000 </r>
       <r>   -4.2548    1.0000 </r>
       <r>   -4.2323    1.0000 </r>
       <r>   -4.1681    1.0000 </r>
       <r>   -4.1383    1.0000 </r>
       <r>   -4.1073    1.0000 </r>
       <r>   -4.0744    1.0000 </r>
       <r>   -3.9998    1.0000 </r>
       <r>   -3.9360    1.0000 </r>
       <r>   -3.9017    1.0000 </r>
       <r>   -3.8939    1.0000 </r>
       <r>   -3.8277    1.0000 </r>
       <r>   -3.8137    1.0000 </r>
       <r>   -3.7601    1.0000 </r>
       <r>   -3.7435    1.0000 </r>
       <r>   -3.7076    1.0000 </r>
       <r>   -3.6910    1.0000 </r>
       <r>   -3.6745    1.0000 </r>
       <r>   -3.6445    1.0000 </r>
       <r>   -3.6169    1.0000 </r>
       <r>   -3.5585    1.0000 </r>
       <r>   -3.5496    1.0000 </r>
       <r>   -3.5329    1.0000 </r>
       <r>   -3.5153    1.0000 </r>
       <r>   -3.4966    1.0000 </r>
       <r>   -3.4890    1.0000 </r>
       <r>   -3.4346    1.0000 </r>
       <r>   -3.4234    1.0000 </r>
       <r>   -3.4119    1.0000 </r>
       <r>   -3.3670    1.0000 </r>
       <r>   -3.3184    1.0000 </r>
       <r>   -3.2947    1.0000 </r>
       <r>   -3.2679    1.0000 </r>
       <r>   -3.2366    1.0000 </r>
       <r>   -2.3921    1.0000 </r>
       <r>   -2.3478    1.0000 </r>
       <r>   -2.2599    1.0000 </r>
       <r>   -2.2359    1.0000 </r>
       <r>   -2.1694    1.0000 </r>
       <r>   -2.1470    1.0000 </r>
       <r>   -2.1461    1.0000 </r>
       <r>   -2.1004    1.0000 </r>
       <r>   -2.0710    1.0000 </r>
       <r>   -2.0391    1.0000 </r>
       <r>   -1.9993    1.0000 </r>
       <r>   -1.9768    1.0000 </r>
       <r>   -1.9358    1.0000 </r>
       <r>   -1.9281    1.0000 </r>
       <r>   -1.9150    1.0000 </r>
       <r>   -1.8518    1.0000 </r>
       <r>   -1.8144    1.0000 </r>
       <r>   -1.7651    1.0000 </r>
       <r>   -1.3881    1.0000 </r>
       <r>   -1.3455    1.0000 </r>
       <r>   -1.2608    1.0000 </r>
       <r>   -1.2102    1.0000 </r>
       <r>   -1.0409    1.0000 </r>
       <r>   -0.9715    1.0000 </r>
       <r>   -0.9421    1.0000 </r>
       <r>   -0.9006    1.0000 </r>
       <r>   -0.8642    1.0000 </r>
       <r>   -0.8393    1.0000 </r>
       <r>   -0.8160    1.0000 </r>
       <r>   -0.7986    1.0000 </r>
       <r>   -0.7945    1.0000 </r>
       <r>   -0.7868    1.0000 </r>
       <r>   -0.7502    1.0000 </r>
       <r>   -0.7254    1.0000 </r>
       <r>   -0.7164    1.0000 </r>
       <r>   -0.6724    1.0000 </r>
       <r>   -0.6644    1.0000 </r>
       <r>   -0.6520    1.0000 </r>
       <r>   -0.6193    1.0000 </r>
       <r>   -0.6065    1.0000 </r>
       <r>   -0.5803    1.0000 </r>
       <r>   -0.5177    1.0000 </r>
       <r>   -0.5091    1.0000 </r>
       <r>   -0.4900    1.0000 </r>
       <r>   -0.4696    1.0000 </r>
       <r>   -0.4021    1.0000 </r>
       <r>   -0.0247    1.0000 </r>
       <r>    0.0535    1.0000 </r>
       <r>    0.0834    1.0000 </r>
       <r>    0.1039    1.0000 </r>
       <r>    0.1591    1.0000 </r>
       <r>    0.1747    1.0000 </r>
       <r>    0.1957    1.0000 </r>
       <r>    0.2229    1.0000 </r>
       <r>    0.2681    1.0000 </r>
       <r>    0.3106    1.0000 </r>
       <r>    0.3259    1.0000 </r>
       <r>    0.3503    1.0000 </r>
       <r>    1.3734    1.0000 </r>
       <r>    1.4365    1.0000 </r>
       <r>    1.4996    1.0000 </r>
       <r>    1.5240    1.0000 </r>
       <r>    1.5368    1.0000 </r>
       <r>    1.5737    1.0000 </r>
       <r>    1.6207    1.0000 </r>
       <r>    1.6448    1.0000 </r>
       <r>    1.6507    1.0000 </r>
       <r>    1.6789    1.0000 </r>
       <r>    1.7049    1.0000 </r>
       <r>    1.7105    1.0000 </r>
       <r>    1.7184    1.0000 </r>
       <r>    1.7337    1.0000 </r>
       <r>    1.7610    1.0000 </r>
       <r>    1.7694    1.0000 </r>
       <r>    1.7808    1.0000 </r>
       <r>    1.7859    1.0000 </r>
       <r>    1.8038    1.0000 </r>
       <r>    1.8180    1.0000 </r>
       <r>    1.8281    1.0000 </r>
       <r>    1.8305    1.0000 </r>
       <r>    1.8559    1.0000 </r>
       <r>    1.8584    1.0000 </r>
       <r>    1.8776    1.0000 </r>
       <r>    1.8913    1.0000 </r>
       <r>    1.9053    1.0000 </r>
       <r>    1.9268    1.0000 </r>
       <r>    1.9405    1.0000 </r>
       <r>    1.9597    1.0000 </r>
       <r>    1.9667    1.0000 </r>
       <r>    1.9810    1.0000 </r>
       <r>    1.9936    1.0000 </r>
       <r>    2.0080    1.0000 </r>
       <r>    2.0147    1.0000 </r>
       <r>    2.0182    1.0000 </r>
       <r>    2.0544    1.0000 </r>
       <r>    2.0766    1.0000 </r>
       <r>    2.0851    1.0000 </r>
       <r>    2.0929    1.0000 </r>
       <r>    2.1111    1.0000 </r>
       <r>    2.1212    1.0000 </r>
       <r>    2.1327    1.0000 </r>
       <r>    2.1445    1.0000 </r>
       <r>    2.1563    1.0000 </r>
       <r>    2.1709    1.0000 </r>
       <r>    2.1893    1.0000 </r>
       <r>    2.2093    1.0000 </r>
       <r>    2.2213    1.0000 </r>
       <r>    2.2341    1.0000 </r>
       <r>    2.2490    1.0000 </r>
       <r>    2.2704    1.0000 </r>
       <r>    2.2872    1.0000 </r>
       <r>    2.2981    1.0000 </r>
       <r>    2.3097    1.0000 </r>
       <r>    2.3472    1.0000 </r>
       <r>    2.3572    1.0000 </r>
       <r>    2.3848    1.0000 </r>
       <r>    2.4080    1.0000 </r>
       <r>    2.4744    1.0000 </r>
       <r>    2.5109    1.0000 </r>
       <r>    2.6402    1.0000 </r>
       <r>    2.7355    1.0000 </r>
       <r>    2.7698    1.0000 </r>
       <r>    2.8200    1.0000 </r>
       <r>    2.8325    1.0000 </r>
       <r>    2.8571    1.0000 </r>
       <r>    2.8788    1.0000 </r>
       <r>    3.1913    1.0000 </r>
       <r>    3.2496    1.0000 </r>
       <r>    3.2566    1.0000 </r>
       <r>    3.2638    1.0000 </r>
       <r>    3.2930    1.0000 </r>
       <r>    3.3058    1.0000 </r>
       <r>    3.3360    1.0000 </r>
       <r>    3.3561    1.0000 </r>
       <r>    3.3643    1.0000 </r>
       <r>    3.3798    1.0000 </r>
       <r>    3.3856    1.0000 </r>
       <r>    3.4035    1.0000 </r>
       <r>    3.4276    1.0000 </r>
       <r>    3.4337    1.0000 </r>
       <r>    3.4657    1.0000 </r>
       <r>    3.4985    1.0000 </r>
       <r>    3.5073    1.0000 </r>
       <r>    3.5228    1.0000 </r>
       <r>    3.5435    1.0000 </r>
       <r>    3.5546    1.0000 </r>
       <r>    3.5930    1.0000 </r>
       <r>    3.6126    1.0000 </r>
       <r>    3.6210    1.0000 </r>
       <r>    3.6310    1.0000 </r>
       <r>    3.6531    1.0000 </r>
       <r>    3.6898    1.0000 </r>
       <r>    3.7104    1.0000 </r>
       <r>    3.7195    1.0000 </r>
       <r>    3.7645    1.0000 </r>
       <r>    3.7960    1.0000 </r>
       <r>    3.8097    1.0000 </r>
       <r>    3.8377    1.0000 </r>
       <r>    3.8799    1.0000 </r>
       <r>    3.9020    1.0000 </r>
       <r>    3.9181    1.0000 </r>
       <r>    3.9534    1.0000 </r>
       <r>    4.0845    1.0000 </r>
       <r>    4.1337    1.0000 </r>
       <r>    4.1918    1.0000 </r>
       <r>    4.2162    1.0000 </r>
       <r>    4.2446    1.0000 </r>
       <r>    4.2552    1.0000 </r>
       <r>    4.2962    1.0000 </r>
       <r>    4.3121    1.0000 </r>
       <r>    4.3294    1.0000 </r>
       <r>    4.3779    1.0000 </r>
       <r>    4.4066    1.0000 </r>
       <r>    4.4174    1.0000 </r>
       <r>    4.4421    1.0000 </r>
       <r>    4.4700    1.0000 </r>
       <r>    4.4928    1.0000 </r>
       <r>    4.5568    1.0000 </r>
       <r>    4.5747    1.0000 </r>
       <r>    4.6011    1.0000 </r>
       <r>    4.6282    1.0000 </r>
       <r>    4.7201    1.0000 </r>
       <r>    4.7591    1.0000 </r>
       <r>    4.7750    1.0000 </r>
       <r>    4.8243    1.0000 </r>
       <r>    4.8552    1.0000 </r>
       <r>    4.8623    1.0000 </r>
       <r>    4.8909    1.0000 </r>
       <r>    4.9451    1.0000 </r>
       <r>    4.9601    1.0000 </r>
       <r>    4.9839    1.0000 </r>
       <r>    5.0047    1.0000 </r>
       <r>    5.0594    1.0000 </r>
       <r>    5.0795    1.0000 </r>
       <r>    5.1324    1.0000 </r>
       <r>    5.1474    1.0000 </r>
       <r>    5.2003    1.0000 </r>
       <r>    5.2523    1.0000 </r>
       <r>    5.6663    1.0000 </r>
       <r>    5.7893    1.0000 </r>
       <r>    5.8262    1.0000 </r>
       <r>    6.0944    0.0000 </r>
       <r>    6.1794    0.0000 </r>
       <r>    6.2276    0.0000 </r>
       <r>    6.2509    0.0000 </r>
       <r>    6.3638    0.0000 </r>
       <r>    6.4051    0.0000 </r>
       <r>    6.5288    0.0000 </r>
       <r>    6.5898    0.0000 </r>
       <r>    6.6129    0.0000 </r>
       <r>    6.6356    0.0000 </r>
       <r>    6.6942    0.0000 </r>
       <r>    6.7139    0.0000 </r>
       <r>    6.7730    0.0000 </r>
       <r>    6.8261    0.0000 </r>
       <r>    6.8658    0.0000 </r>
       <r>    6.8782    0.0000 </r>
       <r>    6.8982    0.0000 </r>
       <r>    6.9224    0.0000 </r>
       <r>    6.9405    0.0000 </r>
       <r>    6.9662    0.0000 </r>
       <r>    6.9979    0.0000 </r>
       <r>    7.0050    0.0000 </r>
       <r>    7.0122    0.0000 </r>
       <r>    7.0351    0.0000 </r>
       <r>    7.0597    0.0000 </r>
       <r>    7.0718    0.0000 </r>
       <r>    7.0884    0.0000 </r>
       <r>    7.0928    0.0000 </r>
       <r>    7.1173    0.0000 </r>
       <r>    7.1234    0.0000 </r>
       <r>    7.1540    0.0000 </r>
       <r>    7.1813    0.0000 </r>
       <r>    7.1943    0.0000 </r>
       <r>    7.2098    0.0000 </r>
       <r>    7.2183    0.0000 </r>
       <r>    7.2409    0.0000 </r>
       <r>    7.2712    0.0000 </r>
       <r>    7.3028    0.0000 </r>
       <r>    7.3266    0.0000 </r>
       <r>    7.3594    0.0000 </r>
       <r>    7.4317    0.0000 </r>
       <r>    7.4735    0.0000 </r>
       <r>    7.4839    0.0000 </r>
       <r>    7.5174    0.0000 </r>
       <r>    7.5598    0.0000 </r>
       <r>    7.5774    0.0000 </r>
       <r>    7.6139    0.0000 </r>
       <r>    7.6469    0.0000 </r>
       <r>    7.8049    0.0000 </r>
       <r>    7.8531    0.0000 </r>
       <r>    7.8927    0.0000 </r>
       <r>    7.9323    0.0000 </r>
       <r>    7.9619    0.0000 </r>
       <r>    7.9776    0.0000 </r>
       <r>    7.9885    0.0000 </r>
       <r>    8.0108    0.0000 </r>
       <r>    8.0298    0.0000 </r>
       <r>    8.0901    0.0000 </r>
       <r>    8.1070    0.0000 </r>
       <r>    8.1299    0.0000 </r>
       <r>    8.1451    0.0000 </r>
       <r>    8.1635    0.0000 </r>
       <r>    8.2350    0.0000 </r>
       <r>    8.5383    0.0000 </r>
       <r>    8.6000    0.0000 </r>
       <r>    8.6101    0.0000 </r>
      </set>
      <set comment="kpoint 2">
       <r>   -6.1250    1.0000 </r>
       <r>   -6.1025    1.0000 </r>
       <r>   -5.7241    1.0000 </r>
       <r>   -5.5957    1.0000 </r>
       <r>   -5.5829    1.0000 </r>
       <r>   -5.5651    1.0000 </r>
       <r>   -5.5326    1.0000 </r>
[...]
       <r>    -3.1098    52.9160   101.3464 </r>
       <r>    -3.0551    30.6253   103.0208 </r>
       <r>    -3.0004    45.2058   105.4924 </r>
       <r>    -2.9457    43.2461   107.8567 </r>
       <r>    -2.8911    37.2431   109.8929 </r>
       <r>    -2.8364    34.7678   111.7938 </r>
       <r>    -2.7817    29.6081   113.4125 </r>
       <r>    -2.7271    30.2420   115.0660 </r>
       <r>    -2.6724    44.0007   117.4716 </r>
       <r>    -2.6177    32.1432   119.2290 </r>
       <r>    -2.5630    27.4026   120.7271 </r>
       <r>    -2.5084    26.9860   122.2025 </r>
       <r>    -2.4537     9.6181   122.7284 </r>
       <r>    -2.3990     1.1480   122.7912 </r>
       <r>    -2.3444     9.9128   123.3331 </r>
       <r>    -2.2897     3.0524   123.5000 </r>
       <r>    -2.2350    11.2080   124.1128 </r>
       <r>    -2.1803    12.7027   124.8073 </r>
       <r>    -2.1257    31.3304   126.5202 </r>
       <r>    -2.0710    28.3563   128.0705 </r>
       <r>    -2.0163    29.0423   129.6583 </r>
       <r>    -1.9616    22.3622   130.8809 </r>
       <r>    -1.9070    29.0179   132.4674 </r>
       <r>    -1.8523     2.7470   132.6176 </r>
       <r>    -1.7976     6.9543   132.9978 </r>
       <r>    -1.7430     4.6089   133.2498 </r>
       <r>    -1.6883     0.2142   133.2615 </r>
       <r>    -1.6336    15.2659   134.0961 </r>
       <r>    -1.5789    24.1286   135.4153 </r>
       <r>    -1.5243    30.4980   137.0827 </r>
       <r>    -1.4696    39.8767   139.2629 </r>
       <r>    -1.4149    34.8670   141.1691 </r>
       <r>    -1.3602    40.9385   143.4074 </r>
       <r>    -1.3056    47.2367   145.9900 </r>
       <r>    -1.2509    67.6920   149.6909 </r>
       <r>    -1.1962    61.9137   153.0759 </r>
       <r>    -1.1416    57.3114   156.2093 </r>
       <r>    -1.0869    71.3598   160.1107 </r>
       <r>    -1.0322    73.8383   164.1477 </r>
       <r>    -0.9775    67.2518   167.8246 </r>
       <r>    -0.9229    68.0695   171.5461 </r>
       <r>    -0.8682    63.2091   175.0019 </r>
       <r>    -0.8135    60.6038   178.3153 </r>
       <r>    -0.7588    61.5277   181.6793 </r>
       <r>    -0.7042    38.8968   183.8059 </r>
       <r>    -0.6495    44.2444   186.2249 </r>
       <r>    -0.5948    33.7175   188.0683 </r>
       <r>    -0.5402    21.5821   189.2483 </r>
       <r>    -0.4855    24.8445   190.6066 </r>
       <r>    -0.4308    16.8967   191.5304 </r>
       <r>    -0.3761    25.4837   192.9236 </r>
       <r>    -0.3215    57.8906   196.0887 </r>
       <r>    -0.2668    58.4962   199.2868 </r>
       <r>    -0.2121    43.0896   201.6427 </r>
       <r>    -0.1574    52.8703   204.5332 </r>
       <r>    -0.1028    43.0610   206.8875 </r>
       <r>    -0.0481    49.5249   209.5951 </r>
       <r>     0.0066    33.6580   211.4353 </r>
       <r>     0.0612    24.0796   212.7518 </r>
       <r>     0.1159    18.0559   213.7390 </r>
       <r>     0.1706     5.8305   214.0577 </r>
       <r>     0.2253    14.4887   214.8499 </r>
       <r>     0.2799    22.3610   216.0724 </r>
       <r>     0.3346    28.9527   217.6553 </r>
       <r>     0.3893    21.8068   218.8476 </r>
       <r>     0.4440    19.3337   219.9047 </r>
       <r>     0.4986    20.9075   221.0477 </r>
       <r>     0.5533    22.2410   222.2637 </r>
       <r>     0.6080    23.9386   223.5725 </r>
       <r>     0.6626    19.7820   224.6540 </r>
       <r>     0.7173    29.2590   226.2537 </r>
       <r>     0.7720    19.5148   227.3206 </r>
       <r>     0.8267     7.8531   227.7500 </r>
       <r>     0.8813     0.0000   227.7500 </r>
       <r>     0.9360    13.5247   228.4894 </r>
       <r>     0.9907    35.4303   230.4265 </r>
       <r>     1.0454    23.8157   231.7286 </r>
       <r>     1.1000    28.3441   233.2783 </r>
       <r>     1.1547    22.0480   234.4837 </r>
       <r>     1.2094    29.6462   236.1046 </r>
       <r>     1.2640    25.1511   237.4797 </r>
       <r>     1.3187    23.8092   238.7814 </r>
       <r>     1.3734    29.9565   240.4192 </r>
       <r>     1.4281    48.9962   243.0979 </r>
       <r>     1.4827    58.1681   246.2781 </r>
       <r>     1.5374    90.6888   251.2363 </r>
       <r>     1.5921    83.3135   255.7913 </r>
       <r>     1.6468    70.1864   259.6286 </r>
       <r>     1.7014    73.1676   263.6290 </r>
       <r>     1.7561    70.6588   267.4921 </r>
       <r>     1.8108    47.4867   270.0883 </r>
       <r>     1.8654    38.5919   272.1982 </r>
       <r>     1.9201    20.5058   273.3193 </r>
       <r>     1.9748    21.8365   274.5132 </r>
       <r>     2.0295    32.6208   276.2967 </r>
       <r>     2.0841    69.4965   280.0962 </r>
       <r>     2.1388    85.9867   284.7974 </r>
       <r>     2.1935   119.0075   291.3039 </r>
       <r>     2.2482   114.2993   297.5529 </r>
       <r>     2.3028   116.5161   303.9232 </r>
       <r>     2.3575   119.0782   310.4336 </r>
       <r>     2.4122   107.6515   316.3192 </r>
       <r>     2.4668    69.6626   320.1279 </r>
       <r>     2.5215    43.2109   322.4904 </r>
       <r>     2.5762    16.7467   323.4059 </r>
       <r>     2.6309    49.2124   326.0965 </r>
       <r>     2.6855    67.6353   329.7944 </r>
       <r>     2.7402    98.0037   335.1526 </r>
       <r>     2.7949   104.9493   340.8904 </r>
       <r>     2.8496    69.7734   344.7051 </r>
       <r>     2.9042    87.3707   349.4819 </r>
       <r>     2.9589   102.8499   355.1051 </r>
       <r>     3.0136    96.4078   360.3760 </r>
       <r>     3.0682    96.7226   365.6641 </r>
       <r>     3.1229    93.6987   370.7868 </r>
       <r>     3.1776    69.9206   374.6096 </r>
       <r>     3.2323    77.5260   378.8482 </r>
       <r>     3.2869    94.4038   384.0095 </r>
       <r>     3.3416    98.5489   389.3975 </r>
       <r>     3.3963   102.6696   395.0108 </r>
       <r>     3.4509   101.2653   400.5472 </r>
       <r>     3.5056    85.1332   405.2017 </r>
       <r>     3.5603    75.1612   409.3109 </r>
       <r>     3.6150    75.8205   413.4563 </r>
       <r>     3.6696    67.9939   417.1737 </r>
       <r>     3.7243    74.6656   421.2559 </r>
       <r>     3.7790    73.1193   425.2536 </r>
       <r>     3.8337    89.9587   430.1719 </r>
       <r>     3.8883    83.5985   434.7424 </r>
       <r>     3.9430    78.4355   439.0307 </r>
       <r>     3.9977    63.1069   442.4810 </r>
       <r>     4.0523    53.2913   445.3946 </r>
       <r>     4.1070    82.4632   449.9031 </r>
       <r>     4.1617    62.1178   453.2993 </r>
       <r>     4.2164    74.7060   457.3836 </r>
       <r>     4.2710    78.1109   461.6542 </r>
       <r>     4.3257    75.4362   465.7786 </r>
       <r>     4.3804    79.0754   470.1019 </r>
       <r>     4.4351    77.9806   474.3653 </r>
       <r>     4.4897    61.0860   477.7050 </r>
       <r>     4.5444    54.8023   480.7012 </r>
       <r>     4.5991    58.7930   483.9156 </r>
       <r>     4.6537    49.2518   486.6083 </r>
       <r>     4.7084    47.8761   489.2259 </r>
       <r>     4.7631    26.8557   490.6941 </r>
       <r>     4.8178    30.0223   492.3355 </r>
       <r>     4.8724    31.2903   494.0463 </r>
       <r>     4.9271    36.5383   496.0439 </r>
       <r>     4.9818    43.0023   498.3950 </r>
       <r>     5.0365    35.1501   500.3167 </r>
       <r>     5.0911    43.8376   502.7135 </r>
       <r>     5.1458    16.1441   503.5961 </r>
       <r>     5.2005     5.1532   503.8778 </r>
       <r>     5.2551     5.6270   504.1855 </r>
       <r>     5.3098     8.8191   504.6677 </r>
       <r>     5.3645    14.9742   505.4863 </r>
       <r>     5.4192    17.9776   506.4692 </r>
       <r>     5.4738    31.5638   508.1949 </r>
       <r>     5.5285    20.3423   509.3071 </r>
       <r>     5.5832    12.6741   510.0000 </r>
       <r>     5.6379    13.6461   510.7461 </r>
       <r>     5.6925    13.4810   511.4831 </r>
       <r>     5.7472     0.3078   511.5000 </r>
       <r>     5.8019     4.3990   511.7405 </r>
       <r>     5.8565     4.7463   512.0000 </r>
       <r>     5.9112     0.0000   512.0000 </r>
       <r>     5.9659     0.0000   512.0000 </r>
       <r>     6.0206     0.0000   512.0000 </r>
       <r>     6.0752     0.0151   512.0008 </r>
       <r>     6.1299     7.5921   512.4159 </r>
       <r>     6.1846    14.1944   513.1919 </r>
       <r>     6.2393    19.3563   514.2502 </r>
       <r>     6.2939    10.5793   514.8286 </r>
       <r>     6.3486    16.9157   515.7535 </r>
       <r>     6.4033    30.8074   517.4378 </r>
       <r>     6.4579    16.8253   518.3577 </r>
       <r>     6.5126    21.5349   519.5350 </r>
       <r>     6.5673    22.8088   520.7821 </r>
       <r>     6.6220    17.3822   521.7324 </r>
       <r>     6.6766    17.4242   522.6850 </r>
       <r>     6.7313    33.1822   524.4992 </r>
       <r>     6.7860    36.8196   526.5122 </r>
       <r>     6.8407    27.6250   528.0226 </r>
       <r>     6.8953    31.7864   529.7604 </r>
       <r>     6.9500    30.2953   531.4167 </r>
       <r>     7.0047    51.5761   534.2365 </r>
       <r>     7.0593    41.2320   536.4908 </r>
       <r>     7.1140    30.8000   538.1748 </r>
       <r>     7.1687    28.9067   539.7552 </r>
       <r>     7.2234    40.1360   541.9495 </r>
       <r>     7.2780    49.1891   544.6389 </r>
       <r>     7.3327    56.8866   547.7490 </r>
       <r>     7.3874    78.8650   552.0608 </r>
       <r>     7.4421    81.0870   556.4940 </r>
       <r>     7.4967    84.4228   561.1097 </r>
       <r>     7.5514    85.3937   565.7784 </r>
       <r>     7.6061   100.7990   571.2894 </r>
       <r>     7.6607    88.0667   576.1042 </r>
       <r>     7.7154    75.0193   580.2058 </r>
       <r>     7.7701    90.2973   585.1426 </r>
       <r>     7.8248   100.7528   590.6511 </r>
       <r>     7.8794    92.6709   595.7177 </r>
       <r>     7.9341    97.2190   601.0329 </r>
       <r>     7.9888    98.2930   606.4069 </r>
       <r>     8.0435    86.5905   611.1411 </r>
       <r>     8.0981    82.4388   615.6483 </r>
       <r>     8.1528    77.2480   619.8717 </r>
       <r>     8.2075    81.4788   624.3263 </r>
       <r>     8.2621    78.7732   628.6331 </r>
       <r>     8.3168    72.8379   632.6153 </r>
       <r>     8.3715    81.3351   637.0621 </r>
       <r>     8.4262    83.8545   641.6467 </r>
       <r>     8.4808    29.3164   643.2496 </r>
       <r>     8.5355     1.5825   643.3361 </r>
       <r>     8.5902     3.3842   643.5212 </r>
       <r>     8.6449     8.7584   644.0000 </r>
       <r>     8.6995     0.0000   644.0000 </r>
       <r>     8.7542     0.0000   644.0000 </r>
       <r>     8.8089     0.0000   644.0000 </r>
       <r>     8.8635     0.0000   644.0000 </r>
       <r>     8.9182     0.0000   644.0000 </r>
       <r>     8.9729     0.0000   644.0000 </r>
       <r>     9.0276     0.0000   644.0000 </r>
       <r>     9.0822     0.0000   644.0000 </r>
       <r>     9.1369     0.0000   644.0000 </r>
       <r>     9.1916     0.0000   644.0000 </r>
       <r>     9.2462     0.0000   644.0000 </r>
       <r>     9.3009     0.0000   644.0000 </r>
       <r>     9.3556     0.0000   644.0000 </r>
      </set>
     </set>
    </array>
   </total>
  </dos>
 </calculation>
 <structure name="finalpos" >
  <crystal>
   <varray name="basis" >
    <v>       0.00000000      10.93733369      10.93733369 </v>
    <v>      10.93733369       0.00000000      10.93733369 </v>
    <v>      10.93733369      10.93733369       0.00000000 </v>
   </varray>
   <i name="volume">   2616.76295363 </i>
   <varray name="rec_basis" >
    <v>      -0.04571498       0.04571498       0.04571498 </v>
    <v>       0.04571498      -0.04571498       0.04571498 </v>
    <v>       0.04571498       0.04571498      -0.04571498 </v>
   </varray>
  </crystal>
  <varray name="positions" >
   <v>       0.99358764       0.00149258       0.00677418 </v>
   <v>       0.24570842       0.99831989       0.00276987 </v>
   <v>       0.49498321       0.01137813       0.99789781 </v>
   <v>       0.74201750       0.99118449       0.00944958 </v>
   <v>       0.00414202       0.25789005       0.99969061 </v>
   <v>       0.26460652       0.25781898       0.99612927 </v>
   <v>       0.49519492       0.25354696       0.99635700 </v>
   <v>       0.75291565       0.24775608       0.99814052 </v>
   <v>       0.99469519       0.51396829       0.98653635 </v>
   <v>       0.24329453       0.50960286       0.99577239 </v>
   <v>       0.49864269       0.50155505       0.98990990 </v>
   <v>       0.73291538       0.50430535       0.00353271 </v>
   <v>       0.98112831       0.75606840       0.00732710 </v>
   <v>       0.25045596       0.75915166       0.99680012 </v>
   <v>       0.49838540       0.74306578       0.00022136 </v>
   <v>       0.74575143       0.75606613       0.99824535 </v>
   <v>       0.99839720       0.99637319       0.26210338 </v>
   <v>       0.24214779       0.00236626       0.25495881 </v>
   <v>       0.50675781       0.99968651       0.24154124 </v>
   <v>       0.75374344       0.99847457       0.24715711 </v>
   <v>       0.00099867       0.25079546       0.24183756 </v>
   <v>       0.23985211       0.25577454       0.24658086 </v>
   <v>       0.49595115       0.25503482       0.25467164 </v>
   <v>       0.74761954       0.25717657       0.24189592 </v>
   <v>       0.99640092       0.50541404       0.24854527 </v>
   <v>       0.25413918       0.49530553       0.24578878 </v>
   <v>       0.50589240       0.49681924       0.24706602 </v>
   <v>       0.75952559       0.51456081       0.23384510 </v>
   <v>       0.00014961       0.73880020       0.24926882 </v>
   <v>       0.24909793       0.75928230       0.24255503 </v>
   <v>       0.49267680       0.74046204       0.26351987 </v>
   <v>       0.75412168       0.74139487       0.25373057 </v>
   <v>       0.99103301       0.00271416       0.49633938 </v>
   <v>       0.24676847       0.00409490       0.50063248 </v>
   <v>       0.50568689       0.99751864       0.49841753 </v>
   <v>       0.75759895       0.99824715       0.49320411 </v>
   <v>       0.99677322       0.24572131       0.49939421 </v>
   <v>       0.24729618       0.24826720       0.49986822 </v>
   <v>       0.50734782       0.24549281       0.50755721 </v>
   <v>       0.75807471       0.26256441       0.48928236 </v>
   <v>       0.01176279       0.49540333       0.50168892 </v>
   <v>       0.26241998       0.50075381       0.49691171 </v>
   <v>       0.50836356       0.49336267       0.49976985 </v>
   <v>       0.76075499       0.49518250       0.49900566 </v>
   <v>       0.99621255       0.75974202       0.49182708 </v>
   <v>       0.25523114       0.74816887       0.50051279 </v>
   <v>       0.49778132       0.74866946       0.49806735 </v>
   <v>       0.74034023       0.75952681       0.49990849 </v>
   <v>       0.00153232       0.00611987       0.74579875 </v>
   <v>       0.24477489       0.99989575       0.75137013 </v>
   <v>       0.48955117       0.00642058       0.75267984 </v>
   <v>       0.74976089       0.00720042       0.75182628 </v>
   <v>       0.00817937       0.25243589       0.74164000 </v>
   <v>       0.23966273       0.26240016       0.74532128 </v>
   <v>       0.49882500       0.25258656       0.74484407 </v>
   <v>       0.75989617       0.26097612       0.73552957 </v>
   <v>       0.00682584       0.50648512       0.73247292 </v>
   <v>       0.24659663       0.50083106       0.75100736 </v>
   <v>       0.50214814       0.50664975       0.73710808 </v>
   <v>       0.75187373       0.49785511       0.74346900 </v>
   <v>       0.00633592       0.74670725       0.76006110 </v>
   <v>       0.25121002       0.75237418       0.73669715 </v>
   <v>       0.49346065       0.74531598       0.75816247 </v>
   <v>       0.75835901       0.74645614       0.74708192 </v>
   <v>       0.07084314       0.06986173       0.05759285 </v>
   <v>       0.30550308       0.05917479       0.07585749 </v>
   <v>       0.56667686       0.06587987       0.06965556 </v>
   <v>       0.80698212       0.06333342       0.06741009 </v>
   <v>       0.06945843       0.31175619       0.05440183 </v>
   <v>       0.30637766       0.32463047       0.06458372 </v>
   <v>       0.56704910       0.30478689       0.06623085 </v>
   <v>       0.81481970       0.30945745       0.06533407 </v>
   <v>       0.05781432       0.57146932       0.05202524 </v>
   <v>       0.31976888       0.55584753       0.05966884 </v>
   <v>       0.55997099       0.55948234       0.06865349 </v>
   <v>       0.81780797       0.55863723       0.05471158 </v>
   <v>       0.06937422       0.82037806       0.05293090 </v>
   <v>       0.30998410       0.81709217       0.06891554 </v>
   <v>       0.54957348       0.81721175       0.06261627 </v>
   <v>       0.80722410       0.81211702       0.07003057 </v>
   <v>       0.06493531       0.06323941       0.31015435 </v>
   <v>       0.30530207       0.06589430       0.31051830 </v>
   <v>       0.56628769       0.07161467       0.30981980 </v>
   <v>       0.81565236       0.06451910       0.31179345 </v>
   <v>       0.06438180       0.31470550       0.31967645 </v>
   <v>       0.29968611       0.32135580       0.31272486 </v>
   <v>       0.55840535       0.31841800       0.30474212 </v>
   <v>       0.81495071       0.31314474       0.30027230 </v>
   <v>       0.06892531       0.55640684       0.30973894 </v>
   <v>       0.32446282       0.55917061       0.30687960 </v>
   <v>       0.56244436       0.55043264       0.31778094 </v>
   <v>       0.80940920       0.56416469       0.31516424 </v>
   <v>       0.07294686       0.81717643       0.30611668 </v>
   <v>       0.31661903       0.80330735       0.32248097 </v>
   <v>       0.55292712       0.81254670       0.32286491 </v>
   <v>       0.81764037       0.81472355       0.31193654 </v>
   <v>       0.06007801       0.06528854       0.56494954 </v>
   <v>       0.30176859       0.06027938       0.56323035 </v>
   <v>       0.56272400       0.05995491       0.56359829 </v>
   <v>       0.80664317       0.05739948       0.57210462 </v>
   <v>       0.05332244       0.31172439       0.55821153 </v>
   <v>       0.31379730       0.31356824       0.55631748 </v>
   <v>       0.56707909       0.31387764       0.55014985 </v>
   <v>       0.82429475       0.30230024       0.56751713 </v>
   <v>       0.07110860       0.56969431       0.55529723 </v>
   <v>       0.31254170       0.57047385       0.55971120 </v>
   <v>       0.56426951       0.55714235       0.56045752 </v>
   <v>       0.80858611       0.56165381       0.56494264 </v>
   <v>       0.06961103       0.82092929       0.55390876 </v>
   <v>       0.31671818       0.80588886       0.56294783 </v>
   <v>       0.55832086       0.81267178       0.57010830 </v>
   <v>       0.80685268       0.81716516       0.55915558 </v>
   <v>       0.06094754       0.05629208       0.82271314 </v>
   <v>       0.30897551       0.07542730       0.79636911 </v>
   <v>       0.56021620       0.05713851       0.81433550 </v>
   <v>       0.81185654       0.06769039       0.80745576 </v>
   <v>       0.06602992       0.30957502       0.81279335 </v>
   <v>       0.30911767       0.30823956       0.81374008 </v>
   <v>       0.56695911       0.31535568       0.81068937 </v>
   <v>       0.82101784       0.32175129       0.80108603 </v>
   <v>       0.06631124       0.56356934       0.80609931 </v>
   <v>       0.30659431       0.57005619       0.79730632 </v>
   <v>       0.57237716       0.55914388       0.80023936 </v>
   <v>       0.79891512       0.55336562       0.81780116 </v>
   <v>       0.07150646       0.82113928       0.80256698 </v>
   <v>       0.31199566       0.81421531       0.81426607 </v>
   <v>       0.55239568       0.81552154       0.82002067 </v>
   <v>       0.80387560       0.81876634       0.81692706 </v>
  </varray>
 </structure>
</modeling>
