potpaw_PBE@./ARUN.APL1ZEROSTATE         
           1
     0.000000   10.937334   10.937334
    10.937334    0.000000   10.937334
    10.937334   10.937334    0.000000
   Si
 128
Direct configuration=     1
   0.99358764  0.00149258  0.00677418
   0.24570842  0.99831989  0.00276987
   0.49498321  0.01137813  0.99789781
   0.74201750  0.99118449  0.00944958
   0.00414202  0.25789005  0.99969061
   0.26460652  0.25781898  0.99612927
   0.49519492  0.25354696  0.99635700
   0.75291565  0.24775608  0.99814052
   0.99469519  0.51396829  0.98653635
   0.24329453  0.50960286  0.99577239
   0.49864269  0.50155505  0.98990990
   0.73291538  0.50430535  0.00353271
   0.98112831  0.75606840  0.00732710
   0.25045596  0.75915166  0.99680012
   0.49838540  0.74306578  0.00022136
   0.74575143  0.75606613  0.99824535
   0.99839720  0.99637319  0.26210338
   0.24214779  0.00236626  0.25495881
   0.50675781  0.99968651  0.24154124
   0.75374344  0.99847457  0.24715711
   0.00099867  0.25079546  0.24183756
   0.23985211  0.25577454  0.24658086
   0.49595115  0.25503482  0.25467164
   0.74761954  0.25717657  0.24189592
   0.99640092  0.50541404  0.24854527
   0.25413918  0.49530553  0.24578878
   0.50589240  0.49681924  0.24706602
   0.75952559  0.51456081  0.23384510
   0.00014961  0.73880020  0.24926882
   0.24909793  0.75928230  0.24255503
   0.49267680  0.74046204  0.26351987
   0.75412168  0.74139487  0.25373057
   0.99103301  0.00271416  0.49633938
   0.24676847  0.00409490  0.50063248
   0.50568689  0.99751864  0.49841753
   0.75759895  0.99824715  0.49320411
   0.99677322  0.24572131  0.49939421
   0.24729618  0.24826720  0.49986822
   0.50734782  0.24549281  0.50755721
   0.75807471  0.26256441  0.48928236
   0.01176279  0.49540333  0.50168892
   0.26241998  0.50075381  0.49691171
   0.50836356  0.49336267  0.49976985
   0.76075499  0.49518250  0.49900566
   0.99621255  0.75974202  0.49182708
   0.25523114  0.74816887  0.50051279
   0.49778132  0.74866946  0.49806735
   0.74034023  0.75952681  0.49990849
   0.00153232  0.00611987  0.74579875
   0.24477489  0.99989575  0.75137013
   0.48955117  0.00642058  0.75267984
   0.74976089  0.00720042  0.75182628
   0.00817937  0.25243589  0.74164000
   0.23966273  0.26240016  0.74532128
   0.49882500  0.25258656  0.74484407
   0.75989617  0.26097612  0.73552957
   0.00682584  0.50648512  0.73247292
   0.24659663  0.50083106  0.75100736
   0.50214814  0.50664975  0.73710808
   0.75187373  0.49785511  0.74346900
   0.00633592  0.74670725  0.76006110
   0.25121002  0.75237418  0.73669715
   0.49346065  0.74531598  0.75816247
   0.75835901  0.74645614  0.74708192
   0.07084314  0.06986173  0.05759285
   0.30550308  0.05917479  0.07585749
   0.56667686  0.06587987  0.06965556
   0.80698212  0.06333342  0.06741009
   0.06945843  0.31175619  0.05440183
   0.30637766  0.32463047  0.06458372
   0.56704910  0.30478689  0.06623085
   0.81481970  0.30945745  0.06533407
   0.05781432  0.57146932  0.05202524
   0.31976888  0.55584753  0.05966884
   0.55997099  0.55948234  0.06865349
   0.81780797  0.55863723  0.05471158
   0.06937422  0.82037806  0.05293090
   0.30998410  0.81709217  0.06891554
   0.54957348  0.81721175  0.06261627
   0.80722410  0.81211702  0.07003057
   0.06493531  0.06323941  0.31015435
   0.30530207  0.06589430  0.31051830
   0.56628769  0.07161467  0.30981980
   0.81565236  0.06451910  0.31179345
   0.06438180  0.31470550  0.31967645
   0.29968611  0.32135580  0.31272486
   0.55840535  0.31841800  0.30474212
   0.81495071  0.31314474  0.30027230
   0.06892531  0.55640684  0.30973894
   0.32446282  0.55917061  0.30687960
   0.56244436  0.55043264  0.31778094
   0.80940920  0.56416469  0.31516424
   0.07294686  0.81717643  0.30611668
   0.31661903  0.80330735  0.32248097
   0.55292712  0.81254670  0.32286491
   0.81764037  0.81472355  0.31193654
   0.06007801  0.06528854  0.56494954
   0.30176859  0.06027938  0.56323035
   0.56272400  0.05995491  0.56359829
   0.80664317  0.05739948  0.57210462
   0.05332244  0.31172439  0.55821153
   0.31379730  0.31356824  0.55631748
   0.56707909  0.31387764  0.55014985
   0.82429475  0.30230024  0.56751713
   0.07110860  0.56969431  0.55529723
   0.31254170  0.57047385  0.55971120
   0.56426951  0.55714235  0.56045752
   0.80858611  0.56165381  0.56494264
   0.06961103  0.82092929  0.55390876
   0.31671818  0.80588886  0.56294783
   0.55832086  0.81267178  0.57010830
   0.80685268  0.81716516  0.55915558
   0.06094754  0.05629208  0.82271314
   0.30897551  0.07542730  0.79636911
   0.56021620  0.05713851  0.81433550
   0.81185654  0.06769039  0.80745576
   0.06602992  0.30957502  0.81279335
   0.30911767  0.30823956  0.81374008
   0.56695911  0.31535568  0.81068937
   0.82101784  0.32175129  0.80108603
   0.06631124  0.56356934  0.80609931
   0.30659431  0.57005619  0.79730632
   0.57237716  0.55914388  0.80023936
   0.79891512  0.55336562  0.81780116
   0.07150646  0.82113928  0.80256698
   0.31199566  0.81421531  0.81426607
   0.55239568  0.81552154  0.82002067
   0.80387560  0.81876634  0.81692706
