 128 128   0   0
  0.2044346E+02  0.1546773E-08  0.1546773E-08  0.1546773E-08  0.5000000E-15
  1.000000000000000E-004
  CAR 
 potpaw_PBE@./ARUN.APL1ZEROSTATE         
      9.34609896     -7.05031170  301      5.85502986      1.00000000
     -7.050  0.0000E+00  0.0000E+00
     -6.996  0.0000E+00  0.0000E+00
     -6.941  0.0000E+00  0.0000E+00
     -6.886  0.0000E+00  0.0000E+00
     -6.832  0.0000E+00  0.0000E+00
     -6.777  0.0000E+00  0.0000E+00
     -6.722  0.0000E+00  0.0000E+00
     -6.668  0.0000E+00  0.0000E+00
     -6.613  0.0000E+00  0.0000E+00
     -6.558  0.0000E+00  0.0000E+00
     -6.504  0.0000E+00  0.0000E+00
     -6.449  0.0000E+00  0.0000E+00
     -6.394  0.0000E+00  0.0000E+00
     -6.340  0.1993E-05  0.1089E-06
     -6.285  0.4563E+01  0.2494E+00
     -6.230  0.1131E-01  0.2500E+00
     -6.176  0.3937E+01  0.4652E+00
     -6.121  0.1431E+02  0.1247E+01
     -6.067  0.2343E+02  0.2528E+01
     -6.012  0.1978E+02  0.3609E+01
     -5.957  0.2576E+01  0.3750E+01
     -5.903  0.0000E+00  0.3750E+01
     -5.848  0.2836E-01  0.3752E+01
     -5.793  0.1604E+02  0.4628E+01
     -5.739  0.1706E+02  0.5561E+01
     -5.684  0.3786E+02  0.7630E+01
     -5.629  0.2745E+02  0.9130E+01
     -5.575  0.2637E+02  0.1057E+02
     -5.520  0.3209E+02  0.1232E+02
     -5.465  0.2652E+02  0.1377E+02
     -5.411  0.1163E+02  0.1441E+02
     -5.356  0.6219E+01  0.1475E+02
     -5.301  0.1609E+01  0.1484E+02
     -5.247  0.1321E+02  0.1556E+02
     -5.192  0.2492E+02  0.1692E+02
     -5.137  0.3064E+02  0.1860E+02
     -5.083  0.4631E+02  0.2113E+02
     -5.028  0.4918E+02  0.2382E+02
     -4.973  0.3959E+02  0.2598E+02
     -4.919  0.2712E+02  0.2746E+02
     -4.864  0.2199E+02  0.2866E+02
     -4.809  0.1582E+02  0.2953E+02
     -4.755  0.2554E+02  0.3092E+02
     -4.700  0.3730E+02  0.3296E+02
     -4.646  0.3752E+02  0.3501E+02
     -4.591  0.2432E+02  0.3634E+02
     -4.536  0.4492E+02  0.3880E+02
     -4.482  0.3125E+02  0.4050E+02
     -4.427  0.3401E+02  0.4236E+02
     -4.372  0.1650E+02  0.4326E+02
     -4.318  0.3841E+02  0.4536E+02
     -4.263  0.3045E+02  0.4703E+02
     -4.208  0.4660E+02  0.4957E+02
     -4.154  0.5563E+02  0.5262E+02
     -4.099  0.5962E+02  0.5587E+02
     -4.044  0.5831E+02  0.5906E+02
     -3.990  0.4450E+02  0.6149E+02
     -3.935  0.5511E+02  0.6450E+02
     -3.880  0.5289E+02  0.6740E+02
     -3.826  0.5162E+02  0.7022E+02
     -3.771  0.4989E+02  0.7294E+02
     -3.716  0.5401E+02  0.7590E+02
     -3.662  0.3574E+02  0.7785E+02
     -3.607  0.3079E+02  0.7953E+02
     -3.552  0.2727E+02  0.8102E+02
     -3.498  0.4698E+02  0.8359E+02
     -3.443  0.4370E+02  0.8598E+02
     -3.388  0.6409E+02  0.8948E+02
     -3.334  0.5552E+02  0.9252E+02
     -3.279  0.4120E+02  0.9477E+02
     -3.224  0.4838E+02  0.9741E+02
     -3.170  0.2112E+02  0.9857E+02
     -3.115  0.2878E+02  0.1001E+03
     -3.061  0.3651E+02  0.1021E+03
     -3.006  0.5230E+02  0.1050E+03
     -2.951  0.5606E+02  0.1081E+03
     -2.897  0.2469E+02  0.1094E+03
     -2.842  0.3638E+02  0.1114E+03
     -2.787  0.3804E+02  0.1135E+03
     -2.733  0.2786E+02  0.1150E+03
     -2.678  0.3831E+02  0.1171E+03
     -2.623  0.3534E+02  0.1190E+03
     -2.569  0.4042E+02  0.1212E+03
     -2.514  0.9547E+01  0.1218E+03
     -2.459  0.1787E+02  0.1227E+03
     -2.405  0.3819E+00  0.1228E+03
     -2.350  0.1583E+00  0.1228E+03
     -2.295  0.8478E+01  0.1232E+03
     -2.241  0.9828E+01  0.1238E+03
     -2.186  0.2215E+02  0.1250E+03
     -2.131  0.3731E+02  0.1270E+03
     -2.077  0.2244E+02  0.1282E+03
     -2.022  0.2846E+02  0.1298E+03
     -1.967  0.2288E+02  0.1310E+03
     -1.913  0.1994E+02  0.1321E+03
     -1.858  0.9139E+01  0.1326E+03
     -1.803  0.8442E+01  0.1331E+03
     -1.749  0.2888E+01  0.1332E+03
     -1.694  0.1785E+00  0.1333E+03
     -1.639  0.1593E+02  0.1341E+03
     -1.585  0.3019E+02  0.1358E+03
     -1.530  0.3827E+02  0.1379E+03
     -1.476  0.3678E+02  0.1399E+03
     -1.421  0.2855E+02  0.1414E+03
     -1.366  0.4431E+02  0.1439E+03
     -1.312  0.4462E+02  0.1463E+03
     -1.257  0.6704E+02  0.1500E+03
     -1.202  0.6429E+02  0.1535E+03
     -1.148  0.6841E+02  0.1572E+03
     -1.093  0.5932E+02  0.1605E+03
     -1.038  0.5627E+02  0.1635E+03
     -0.984  0.6263E+02  0.1670E+03
     -0.929  0.7016E+02  0.1708E+03
     -0.874  0.5344E+02  0.1737E+03
     -0.820  0.6763E+02  0.1774E+03
     -0.765  0.6138E+02  0.1808E+03
     -0.710  0.4676E+02  0.1833E+03
     -0.656  0.4072E+02  0.1855E+03
     -0.601  0.3443E+02  0.1874E+03
     -0.546  0.3514E+02  0.1894E+03
     -0.492  0.2068E+02  0.1905E+03
     -0.437  0.1733E+02  0.1914E+03
     -0.382  0.3255E+02  0.1932E+03
     -0.328  0.4577E+02  0.1957E+03
     -0.273  0.4500E+02  0.1982E+03
     -0.218  0.5611E+02  0.2012E+03
     -0.164  0.6271E+02  0.2047E+03
     -0.109  0.3339E+02  0.2065E+03
     -0.055  0.5582E+02  0.2095E+03
      0.000  0.3168E+02  0.2113E+03
      0.055  0.2240E+02  0.2125E+03
      0.109  0.2543E+02  0.2139E+03
      0.164  0.6699E+01  0.2143E+03
      0.219  0.7295E+01  0.2146E+03
      0.273  0.1366E+02  0.2154E+03
      0.328  0.2751E+02  0.2169E+03
      0.383  0.2643E+02  0.2183E+03
      0.437  0.3105E+02  0.2200E+03
      0.492  0.2119E+02  0.2212E+03
      0.547  0.1925E+02  0.2223E+03
      0.601  0.2073E+02  0.2234E+03
      0.656  0.2168E+02  0.2246E+03
      0.711  0.2047E+02  0.2257E+03
      0.765  0.2336E+02  0.2270E+03
      0.820  0.1413E+02  0.2277E+03
      0.875  0.2832E+00  0.2278E+03
      0.929  0.1494E+02  0.2286E+03
      0.984  0.2463E+02  0.2299E+03
      1.039  0.3047E+02  0.2316E+03
      1.093  0.2183E+02  0.2328E+03
      1.148  0.3163E+02  0.2345E+03
      1.203  0.1631E+02  0.2354E+03
      1.257  0.2644E+02  0.2368E+03
      1.312  0.3667E+02  0.2388E+03
      1.367  0.3161E+02  0.2406E+03
      1.421  0.2776E+02  0.2421E+03
      1.476  0.7503E+02  0.2462E+03
      1.530  0.8782E+02  0.2510E+03
      1.585  0.7808E+02  0.2553E+03
      1.640  0.8806E+02  0.2601E+03
      1.694  0.6245E+02  0.2635E+03
      1.749  0.5925E+02  0.2667E+03
      1.804  0.6733E+02  0.2704E+03
      1.858  0.3879E+02  0.2725E+03
      1.913  0.1810E+02  0.2735E+03
      1.968  0.1835E+02  0.2745E+03
      2.022  0.1714E+02  0.2754E+03
      2.077  0.7185E+02  0.2794E+03
      2.132  0.1028E+03  0.2850E+03
      2.186  0.1122E+03  0.2911E+03
      2.241  0.1034E+03  0.2968E+03
      2.296  0.1265E+03  0.3037E+03
      2.350  0.1145E+03  0.3099E+03
      2.405  0.1010E+03  0.3155E+03
      2.460  0.8037E+02  0.3199E+03
      2.514  0.5785E+02  0.3230E+03
      2.569  0.2212E+02  0.3242E+03
      2.624  0.3700E+02  0.3263E+03
      2.678  0.4927E+02  0.3289E+03
      2.733  0.9408E+02  0.3341E+03
      2.788  0.9913E+02  0.3395E+03
      2.842  0.9286E+02  0.3446E+03
      2.897  0.8810E+02  0.3494E+03
      2.951  0.8511E+02  0.3540E+03
      3.006  0.1051E+03  0.3598E+03
      3.061  0.1013E+03  0.3653E+03
      3.115  0.8438E+02  0.3699E+03
      3.170  0.7732E+02  0.3742E+03
      3.225  0.7037E+02  0.3780E+03
      3.279  0.9113E+02  0.3830E+03
      3.334  0.9613E+02  0.3882E+03
      3.389  0.9394E+02  0.3934E+03
      3.443  0.9383E+02  0.3985E+03
      3.498  0.9093E+02  0.4035E+03
      3.553  0.8931E+02  0.4084E+03
      3.607  0.8226E+02  0.4129E+03
      3.662  0.5320E+02  0.4158E+03
      3.717  0.7843E+02  0.4200E+03
      3.771  0.9520E+02  0.4253E+03
      3.826  0.8184E+02  0.4297E+03
      3.881  0.1020E+03  0.4353E+03
      3.935  0.6494E+02  0.4388E+03
      3.990  0.6247E+02  0.4423E+03
      4.045  0.7215E+02  0.4462E+03
      4.099  0.5361E+02  0.4491E+03
      4.154  0.8219E+02  0.4536E+03
      4.209  0.7536E+02  0.4577E+03
      4.263  0.6282E+02  0.4612E+03
      4.318  0.5638E+02  0.4643E+03
      4.373  0.7686E+02  0.4685E+03
      4.427  0.9594E+02  0.4737E+03
      4.482  0.7759E+02  0.4779E+03
      4.536  0.5440E+02  0.4809E+03
      4.591  0.6263E+02  0.4843E+03
      4.646  0.4797E+02  0.4870E+03
      4.700  0.4551E+02  0.4895E+03
      4.755  0.3679E+02  0.4915E+03
      4.810  0.1268E+02  0.4922E+03
      4.864  0.2171E+02  0.4933E+03
      4.919  0.5623E+02  0.4964E+03
      4.974  0.3477E+02  0.4983E+03
      5.028  0.4382E+02  0.5007E+03
      5.083  0.2840E+02  0.5023E+03
      5.138  0.1921E+02  0.5033E+03
      5.192  0.8356E+01  0.5038E+03
      5.247  0.4327E+01  0.5040E+03
      5.302  0.8931E+01  0.5045E+03
      5.356  0.1365E+02  0.5052E+03
      5.411  0.2253E+02  0.5065E+03
      5.466  0.2342E+02  0.5077E+03
      5.520  0.1660E+02  0.5087E+03
      5.575  0.4327E+02  0.5110E+03
      5.630  0.4167E+01  0.5112E+03
      5.684  0.1577E-06  0.5113E+03
      5.739  0.4532E+01  0.5115E+03
      5.794  0.9165E+01  0.5120E+03
      5.848  0.2584E-01  0.5120E+03
      5.903  0.0000E+00  0.5120E+03
      5.958  0.0000E+00  0.5120E+03
      6.012  0.0000E+00  0.5120E+03
      6.067  0.0000E+00  0.5120E+03
      6.121  0.1117E+01  0.5121E+03
      6.176  0.1862E+02  0.5131E+03
      6.231  0.2143E+02  0.5143E+03
      6.285  0.9259E+01  0.5148E+03
      6.340  0.1231E+02  0.5154E+03
      6.395  0.3352E+02  0.5173E+03
      6.449  0.1968E+02  0.5183E+03
      6.504  0.2618E+02  0.5198E+03
      6.559  0.2077E+02  0.5209E+03
      6.613  0.1369E+02  0.5217E+03
      6.668  0.1436E+02  0.5224E+03
      6.723  0.3457E+02  0.5243E+03
      6.777  0.2718E+02  0.5258E+03
      6.832  0.3565E+02  0.5278E+03
      6.887  0.3548E+02  0.5297E+03
      6.941  0.3574E+02  0.5317E+03
      6.996  0.4202E+02  0.5339E+03
      7.051  0.4255E+02  0.5363E+03
      7.105  0.3135E+02  0.5380E+03
      7.160  0.3047E+02  0.5397E+03
      7.215  0.3450E+02  0.5415E+03
      7.269  0.5750E+02  0.5447E+03
      7.324  0.7112E+02  0.5486E+03
      7.379  0.6680E+02  0.5522E+03
      7.433  0.7536E+02  0.5563E+03
      7.488  0.8067E+02  0.5607E+03
      7.542  0.9838E+02  0.5661E+03
      7.597  0.8577E+02  0.5708E+03
      7.652  0.8354E+02  0.5754E+03
      7.706  0.8584E+02  0.5801E+03
      7.761  0.7787E+02  0.5843E+03
      7.816  0.9455E+02  0.5895E+03
      7.870  0.9471E+02  0.5947E+03
      7.925  0.1063E+03  0.6005E+03
      7.980  0.8899E+02  0.6053E+03
      8.034  0.8629E+02  0.6101E+03
      8.089  0.8564E+02  0.6147E+03
      8.144  0.8300E+02  0.6193E+03
      8.198  0.8975E+02  0.6242E+03
      8.253  0.7162E+02  0.6281E+03
      8.308  0.8721E+02  0.6329E+03
      8.362  0.8690E+02  0.6376E+03
      8.417  0.5741E+02  0.6407E+03
      8.472  0.4101E+02  0.6430E+03
      8.526  0.1032E+02  0.6436E+03
      8.581  0.3581E+01  0.6438E+03
      8.636  0.4563E+01  0.6440E+03
      8.690  0.0000E+00  0.6440E+03
      8.745  0.0000E+00  0.6440E+03
      8.800  0.0000E+00  0.6440E+03
      8.854  0.0000E+00  0.6440E+03
      8.909  0.0000E+00  0.6440E+03
      8.964  0.0000E+00  0.6440E+03
      9.018  0.0000E+00  0.6440E+03
      9.073  0.0000E+00  0.6440E+03
      9.127  0.0000E+00  0.6440E+03
      9.182  0.0000E+00  0.6440E+03
      9.237  0.0000E+00  0.6440E+03
      9.291  0.0000E+00  0.6440E+03
      9.346  0.0000E+00  0.6440E+03
