 vasp.5.4.4.18Apr17-6-g9f103f2a35 (build Nov 08 2017 09:05:29) complex          
  
 executed on          Intel_17.33 date 2020.07.18  18:52:58
 running on   32 total cores
 distrk:  each k-point on   32 cores,    1 groups
 distr:  one band on NCORES_PER_BAND=  16 cores,    2 groups


--------------------------------------------------------------------------------------------------------


 INCAR:
 POTCAR:   PAW_PBE Si 05Jan2001                   

 ----------------------------------------------------------------------------- 
|                                                                             |
|           W    W    AA    RRRRR   N    N  II  N    N   GGGG   !!!           |
|           W    W   A  A   R    R  NN   N  II  NN   N  G    G  !!!           |
|           W    W  A    A  R    R  N N  N  II  N N  N  G       !!!           |
|           W WW W  AAAAAA  RRRRR   N  N N  II  N  N N  G  GGG   !            |
|           WW  WW  A    A  R   R   N   NN  II  N   NN  G    G                |
|           W    W  A    A  R    R  N    N  II  N    N   GGGG   !!!           |
|                                                                             |
|      For optimal performance we recommend to set                            |
|        NCORE= 4 - approx SQRT( number of cores)                             |
|      NCORE specifies how many cores store one orbital (NPAR=cpu/NCORE).     |
|      This setting can  greatly improve the performance of VASP for DFT.     |
|      The default,   NCORE=1            might be grossly inefficient         |
|      on modern multi-core architectures or massively parallel machines.     |
|      Do your own testing !!!!                                               |
|      Unfortunately you need to use the default for GW and RPA calculations. |
|      (for HF NCORE is supported but not extensively tested yet)             |
|                                                                             |
 ----------------------------------------------------------------------------- 

 POTCAR:   PAW_PBE Si 05Jan2001                   
   VRHFIN =Si: s2p2                                                             
   LEXCH  = PE                                                                  
   EATOM  =   103.0669 eV,    7.5752 Ry                                         
                                                                                
   TITEL  = PAW_PBE Si 05Jan2001                                                
   LULTRA =        F    use ultrasoft PP ?                                      
   IUNSCR =        1    unscreen: 0-lin 1-nonlin 2-no                           
   RPACOR =    1.500    partial core radius                                     
   POMASS =   28.085; ZVAL   =    4.000    mass and valenz                      
   RCORE  =    1.900    outmost cutoff radius                                   
   RWIGS  =    2.480; RWIGS  =    1.312    wigner-seitz radius (au A)           
   ENMAX  =  245.345; ENMIN  =  184.009 eV                                      
   ICORE  =        2    local potential                                         
   LCOR   =        T    correct aug charges                                     
   LPAW   =        T    paw PP                                                  
   EAUG   =  322.069                                                            
   DEXC   =    -.007                                                            
   RMAX   =    2.944    core radius for proj-oper                               
   RAUG   =    1.300    factor for augmentation sphere                          
   RDEP   =    1.993    radius for radial grids                                 
   QCUT   =   -4.246; QGAM   =    8.493    optimization parameters              
                                                                                
   Description                                                                  
     l     E      TYP  RCUT    TYP  RCUT                                        
     0   .000     23  1.900                                                     
     0   .000     23  1.900                                                     
     1   .000     23  1.900                                                     
     1   .000     23  1.900                                                     
     2   .000      7  1.900                                                     
  local pseudopotential read in
  partial core-charges read in
  atomic valenz-charges read in
  non local Contribution for L=           0  read in
    real space projection operators read in
  non local Contribution for L=           0  read in
    real space projection operators read in
  non local Contribution for L=           1  read in
    real space projection operators read in
  non local Contribution for L=           1  read in
    real space projection operators read in
    PAW grid and wavefunctions read in
 
   number of l-projection  operators is LMAX  =           4
   number of lm-projection operators is LMMAX =           8
 

 ----------------------------------------------------------------------------- 
|                                                                             |
|  ADVICE TO THIS USER RUNNING 'VASP/VAMP'   (HEAR YOUR MASTER'S VOICE ...):  |
|                                                                             |
|      You have a (more or less) 'large supercell' and for larger cells       |
|      it might be more efficient to use real space projection operators      |
|      So try LREAL= Auto  in the INCAR   file.                               |
|      Mind: If you want to do a very accurate calculations keep the          |
|      reciprocal projection scheme          (i.e. LREAL=.FALSE.)             |
|                                                                             |
 ----------------------------------------------------------------------------- 

 PAW_PBE Si 05Jan2001                   :
 energy of atom  1       EATOM= -103.0669
 kinetic energy error for atom=    0.0006 (will be added to EATOM!!)
 
 
 POSCAR: kk                                      
  positions in direct lattice
  No initial velocities read in
 exchange correlation table for  LEXCH =        8
   RHO(1)=    0.500       N(1)  =     2000
   RHO(2)=  100.500       N(2)  =     4000
 


--------------------------------------------------------------------------------------------------------


 ion  position               nearest neighbor table
   1  0.991  0.995  0.013-  68 2.10  77 2.19  65 2.36 113 2.52
   2  0.252  0.001  0.999-  66 2.31  78 2.32  65 2.35 114 2.39
   3  0.508  0.996  0.995- 115 2.18  79 2.29  66 2.41  67 2.54
   4  0.747  0.990  0.007-  80 2.24  68 2.37  67 2.42 116 2.44
   5  0.994  0.251  0.999- 117 2.29  72 2.32  65 2.40  69 2.52
   6  0.254  0.248  0.007-  70 2.39  69 2.46 118 2.48  66 2.53
   7  0.488  0.260  0.004-  67 2.25  70 2.28  71 2.44 119 2.48
   8  0.756  0.251  0.004-  72 2.27 120 2.45  71 2.48  68 2.53
   9  0.993  0.492  0.011-  69 2.20  76 2.26  73 2.41 121 2.41
  10  0.255  0.506  0.993- 122 2.22  74 2.30  70 2.40  73 2.49
  11  0.499  0.499  0.993-  71 2.15 123 2.19  74 2.26  75 2.40
  12  0.755  0.501  0.005- 124 2.35  72 2.37  76 2.41  75 2.54
  13  0.008  0.754  1.000- 125 2.26  77 2.28  80 2.34  73 2.43
  14  0.243  0.765  0.003-  78 2.22  77 2.40 126 2.44  74 2.59
  15  0.508  0.753  0.995- 127 2.33  79 2.38  75 2.40  78 2.43
  16  0.751  0.743  0.019-  76 2.20  80 2.27  79 2.46 128 2.69
  17  0.998  0.995  0.259-  84 2.27  93 2.41  81 2.41  65 2.54
  18  0.241  0.995  0.251-  81 2.14  66 2.30  94 2.32  82 2.41
  19  0.496  0.003  0.248-  83 2.28  95 2.29  67 2.39  82 2.47
  20  0.758  0.997  0.249-  84 2.33  96 2.38  68 2.47  83 2.55
  21  0.009  0.241  0.250-  81 2.30  69 2.33  85 2.36  88 2.55
  22  0.245  0.248  0.262-  82 2.28  86 2.28  85 2.36  70 2.38
  23  0.495  0.245  0.249-  83 2.27  86 2.36  71 2.47  87 2.70
  24  0.747  0.263  0.247-  88 2.24  72 2.27  87 2.30  84 2.61
  25  0.004  0.496  0.246-  89 2.26  73 2.28  85 2.31  92 2.45
  26  0.250  0.496  0.254-  89 2.29  86 2.29  90 2.47  74 2.53
  27  0.495  0.503  0.240-  75 2.25  87 2.25  90 2.31  91 2.56
  28  0.746  0.502  0.252-  91 2.27  88 2.31  76 2.33  92 2.40
  29  0.003  0.738  0.250-  77 2.34  89 2.34  96 2.36  93 2.37
  30  0.248  0.749  0.248-  94 2.30  90 2.34  93 2.34  78 2.44
  31  0.505  0.757  0.243-  79 2.18  95 2.33  94 2.47  91 2.57
  32  0.752  0.743  0.257-  92 2.14  96 2.29  95 2.44  80 2.59
  33  0.015  0.990  0.494- 109 2.29  81 2.31 100 2.39  97 2.49
  34  0.265  0.999  0.493-  98 2.25  82 2.35 110 2.47  97 2.68
  35  0.499  0.000  0.484-  83 2.25  98 2.30 111 2.42  99 2.52
  36  0.743  0.999  0.504-  99 2.29  84 2.41 112 2.43 100 2.46
  37  0.993  0.255  0.499-  97 2.23  85 2.33 104 2.36 101 2.48
  38  0.244  0.248  0.505-  98 2.30 101 2.32 102 2.41  86 2.42
  39  0.516  0.250  0.490-  87 2.27  99 2.37 103 2.42 102 2.46
  40  0.749  0.260  0.494- 103 2.31  88 2.34 104 2.44 100 2.56
  41  0.996  0.504  0.498- 108 2.29 105 2.30 101 2.46  89 2.47
  42  0.251  0.504  0.491-  90 2.20 102 2.38 105 2.40 106 2.42
  43  0.500  0.489  0.502- 103 2.23  91 2.30 107 2.41 106 2.59
  44  0.752  0.501  0.495- 104 2.33 107 2.38  92 2.40 108 2.42
  45  0.991  0.758  0.498- 112 2.24  93 2.36 109 2.40 105 2.43
  46  0.252  0.744  0.510- 106 2.17 110 2.23 109 2.36  94 2.59
  47  0.511  0.759  0.489-  95 2.30 111 2.33 110 2.43 107 2.65
  48  0.762  0.753  0.489- 112 2.25  96 2.29 108 2.33 111 2.50
  49  0.012  0.991  0.741-  97 2.27 125 2.32 113 2.41 116 2.44
  50  0.257  1.000  0.754- 114 2.24 126 2.39 113 2.44  98 2.57
  51  0.494  0.000  0.740- 114 2.21  99 2.30 127 2.40 115 2.61
  52  0.753  0.002  0.748- 115 2.37 100 2.43 116 2.47 128 2.47
  53  0.002  0.248  0.744- 101 2.17 120 2.28 113 2.43 117 2.43
  54  0.253  0.252  0.753- 118 2.26 114 2.44 117 2.48 102 2.56
  55  0.507  0.251  0.745- 103 2.25 119 2.37 118 2.41 115 2.53
  56  0.754  0.256  0.752- 120 2.22 104 2.28 116 2.42 119 2.47
  57  0.989  0.504  0.755- 124 2.27 117 2.43 121 2.53 105 2.55
  58  0.252  0.502  0.751- 106 2.33 122 2.34 121 2.36 118 2.43
  59  0.490  0.508  0.753- 122 2.35 119 2.35 123 2.36 107 2.38
  60  0.750  0.493  0.743- 108 2.38 120 2.38 123 2.44 124 2.56
  61  0.001  0.742  0.754- 121 2.29 125 2.37 128 2.39 109 2.43
  62  0.247  0.757  0.754- 126 2.20 122 2.37 125 2.44 110 2.48
  63  0.499  0.751  0.752- 127 2.24 111 2.32 123 2.39 126 2.40
  64  0.748  0.750  0.752- 128 2.21 127 2.40 124 2.40 112 2.43
  65  0.067  0.061  0.058-   2 2.35   1 2.36   5 2.40  17 2.54
  66  0.317  0.047  0.070-  18 2.30   2 2.31   3 2.41   6 2.53
  67  0.558  0.081  0.060-   7 2.25  19 2.39   4 2.42   3 2.54
  68  0.826  0.052  0.053-   1 2.10   4 2.37  20 2.47   8 2.53
  69  0.060  0.317  0.067-   9 2.20  21 2.33   6 2.46   5 2.52
  70  0.308  0.317  0.074-   7 2.28  22 2.38   6 2.39  10 2.40
  71  0.560  0.329  0.055-  11 2.15   7 2.44  23 2.47   8 2.48
  72  0.810  0.314  0.068-  24 2.27   8 2.27   5 2.32  12 2.37
  73  0.058  0.563  0.066-  25 2.28   9 2.41  13 2.43  10 2.49
  74  0.320  0.561  0.054-  11 2.26  10 2.30  26 2.53  14 2.59
  75  0.555  0.564  0.062-  27 2.25  15 2.40  11 2.40  12 2.54
  76  0.815  0.569  0.068-  16 2.20   9 2.26  28 2.33  12 2.41
  77  0.053  0.822  0.066-   1 2.19  13 2.28  29 2.34  14 2.40
  78  0.315  0.817  0.055-  14 2.22   2 2.32  15 2.43  30 2.44
  79  0.556  0.816  0.071-  31 2.18   3 2.29  15 2.38  16 2.46
  80  0.824  0.814  0.052-   4 2.24  16 2.27  13 2.34  32 2.59
  81  0.072  0.059  0.311-  18 2.14  21 2.30  33 2.31  17 2.41
  82  0.301  0.068  0.309-  22 2.28  34 2.35  18 2.41  19 2.47
  83  0.556  0.066  0.306-  35 2.25  23 2.27  19 2.28  20 2.55
  84  0.818  0.056  0.313-  17 2.27  20 2.33  36 2.41  24 2.61
  85  0.058  0.313  0.315-  25 2.31  37 2.33  21 2.36  22 2.36
  86  0.308  0.314  0.313-  22 2.28  26 2.29  23 2.36  38 2.42
  87  0.566  0.326  0.311-  27 2.25  39 2.27  24 2.30  23 2.70
  88  0.807  0.319  0.308-  24 2.24  28 2.31  40 2.34  21 2.55
  89  0.069  0.553  0.302-  25 2.26  26 2.29  29 2.34  41 2.47
  90  0.313  0.565  0.317-  42 2.20  27 2.31  30 2.34  26 2.47
  91  0.567  0.553  0.319-  28 2.27  43 2.30  27 2.56  31 2.57
  92  0.811  0.574  0.305-  32 2.14  44 2.40  28 2.40  25 2.45
  93  0.063  0.805  0.311-  30 2.34  45 2.36  29 2.37  17 2.41
  94  0.311  0.812  0.305-  30 2.30  18 2.32  31 2.47  46 2.59
  95  0.559  0.822  0.308-  19 2.29  47 2.30  31 2.33  32 2.44
  96  0.817  0.808  0.308-  48 2.29  32 2.29  29 2.36  20 2.38
  97  0.053  0.078  0.563-  37 2.23  49 2.27  33 2.49  34 2.68
  98  0.317  0.067  0.551-  34 2.25  38 2.30  35 2.30  50 2.57
  99  0.561  0.063  0.558-  36 2.29  51 2.30  39 2.37  35 2.52
 100  0.826  0.057  0.556-  33 2.39  52 2.43  36 2.46  40 2.56
 101  0.061  0.310  0.572-  53 2.17  38 2.32  41 2.46  37 2.48
 102  0.321  0.315  0.551-  42 2.38  38 2.41  39 2.46  54 2.56
 103  0.567  0.313  0.566-  43 2.23  55 2.25  40 2.31  39 2.42
 104  0.806  0.317  0.572-  56 2.28  44 2.33  37 2.36  40 2.44
 105  0.061  0.566  0.553-  41 2.30  42 2.40  45 2.43  57 2.55
 106  0.295  0.573  0.568-  46 2.17  58 2.33  42 2.42  43 2.59
 107  0.565  0.551  0.566-  59 2.38  44 2.38  43 2.41  47 2.65
 108  0.815  0.569  0.555-  41 2.29  48 2.33  60 2.38  44 2.42
 109  0.066  0.809  0.562-  33 2.29  46 2.36  45 2.40  61 2.43
 110  0.320  0.804  0.559-  46 2.23  47 2.43  34 2.47  62 2.48
 111  0.564  0.811  0.568-  63 2.32  47 2.33  35 2.42  48 2.50
 112  0.814  0.807  0.560-  45 2.24  48 2.25  36 2.43  64 2.43
 113  0.065  0.055  0.814-  49 2.41  53 2.43  50 2.44   1 2.52
 114  0.320  0.059  0.810-  51 2.21  50 2.24   2 2.39  54 2.44
 115  0.566  0.051  0.823-   3 2.18  52 2.37  55 2.53  51 2.61
 116  0.819  0.064  0.815-  56 2.42   4 2.44  49 2.44  52 2.47
 117  0.057  0.312  0.818-   5 2.29  57 2.43  53 2.43  54 2.48
 118  0.316  0.310  0.811-  54 2.26  55 2.41  58 2.43   6 2.48
 119  0.559  0.322  0.808-  59 2.35  55 2.37  56 2.47   7 2.48
 120  0.822  0.305  0.811-  56 2.22  53 2.28  60 2.38   8 2.45
 121  0.065  0.561  0.821-  61 2.29  58 2.36   9 2.41  57 2.53
 122  0.304  0.569  0.817-  10 2.22  58 2.34  59 2.35  62 2.37
 123  0.557  0.562  0.819-  11 2.19  59 2.36  63 2.39  60 2.44
 124  0.809  0.560  0.819-  57 2.27  12 2.35  64 2.40  60 2.56
 125  0.054  0.809  0.822-  13 2.26  49 2.32  61 2.37  62 2.44
 126  0.309  0.812  0.811-  62 2.20  50 2.39  63 2.40  14 2.44
 127  0.558  0.811  0.811-  63 2.24  15 2.33  51 2.40  64 2.40
 128  0.812  0.807  0.806-  64 2.21  61 2.39  52 2.47  16 2.69
 
  LATTYP: Found a face centered cubic cell.
 ALAT       =    21.8746673814
  
  Lattice vectors:
  
 A1 = (   0.0000000000,  10.9373336907,  10.9373336907)
 A2 = (  10.9373336907,   0.0000000000,  10.9373336907)
 A3 = (  10.9373336907,  10.9373336907,   0.0000000000)


Analysis of symmetry for initial positions (statically):
=====================================================================
 Subroutine PRICEL returns:
 Original cell was already a primitive cell.
 

 Routine SETGRP: Setting up the symmetry group for a 
 face centered cubic supercell.


 Subroutine GETGRP returns: Found  1 space group operations
 (whereof  1 operations were pure point group operations)
 out of a pool of 48 trial point group operations.


The static configuration has the point symmetry C_1 .


Analysis of symmetry for dynamics (positions and initial velocities):
=====================================================================
 Subroutine PRICEL returns:
 Original cell was already a primitive cell.
 

 Routine SETGRP: Setting up the symmetry group for a 
 face centered cubic supercell.


 Subroutine GETGRP returns: Found  1 space group operations
 (whereof  1 operations were pure point group operations)
 out of a pool of 48 trial point group operations.


The dynamic configuration has the point symmetry C_1 .


 Subroutine INISYM returns: Found  1 space group operations
 (whereof  1 operations are pure point group operations),
 and found     1 'primitive' translations

 
 
 KPOINTS: KPOINTS File, automatically generated by

Automatic generation of k-mesh.
Space group operators:
 irot       det(A)        alpha          n_x          n_y          n_z        tau_x        tau_y        tau_z
    1     1.000000     0.000001     1.000000     0.000000     0.000000     0.000000     0.000000     0.000000
 
 Subroutine IBZKPT returns following result:
 ===========================================
 
 Found      8 irreducible k-points:
 
 Following reciprocal coordinates:
            Coordinates               Weight
  0.000000  0.000000  0.000000      1.000000
  0.500000  0.000000  0.000000      1.000000
  0.000000  0.500000  0.000000      1.000000
  0.500000  0.500000  0.000000      1.000000
  0.000000  0.000000  0.500000      1.000000
  0.500000  0.000000  0.500000      1.000000
  0.000000  0.500000  0.500000      1.000000
  0.500000  0.500000  0.500000      1.000000
 
 Following cartesian coordinates:
            Coordinates               Weight
  0.000000  0.000000  0.000000      1.000000
 -0.022857  0.022857  0.022857      1.000000
  0.022857 -0.022857  0.022857      1.000000
  0.000000  0.000000  0.045715      1.000000
  0.022857  0.022857 -0.022857      1.000000
  0.000000  0.045715  0.000000      1.000000
  0.045715  0.000000  0.000000      1.000000
  0.022857  0.022857  0.022857      1.000000
 


--------------------------------------------------------------------------------------------------------




 Dimension of arrays:
   k-points           NKPTS =      8   k-points in BZ     NKDIM =      8   number of bands    NBANDS=    322
   number of dos      NEDOS =    301   number of ions     NIONS =    128
   non local maximal  LDIM  =      4   non local SUM 2l+1 LMDIM =      8
   total plane-waves  NPLWV = ******
   max r-space proj   IRMAX =      1   max aug-charges    IRDMAX= 176811
   dimension x,y,z NGX =   120 NGY =  120 NGZ =  120
   dimension x,y,z NGXF=   240 NGYF=  240 NGZF=  240
   support grid    NGXF=   480 NGYF=  480 NGZF=  480
   ions per type =             128
   NGX,Y,Z   is equivalent  to a cutoff of  12.90, 12.90, 12.90 a.u.
   NGXF,Y,Z  is equivalent  to a cutoff of  25.80, 25.80, 25.80 a.u.

 SYSTEM =  potpaw_PBE@./ARUN.APL1ZEROSTATE         
 POSCAR =  kk                                      

 Startparameter for this run:
   NWRITE =      2    write-flag & timer
   PREC   = accura    normal or accurate (medium, high low for compatibility)
   ISTART =      0    job   : 0-new  1-cont  2-samecut
   ICHARG =      2    charge: 1-file 2-atom 10-const
   ISPIN  =      1    spin polarized calculation?
   LNONCOLLINEAR =      F non collinear calculations
   LSORBIT =      F    spin-orbit coupling
   INIWAV =      1    electr: 0-lowe 1-rand  2-diag
   LASPH  =      F    aspherical Exc in radial PAW
   METAGGA=      F    non-selfconsistent MetaGGA calc.

 Electronic Relaxation 1
   ENCUT  =  500.0 eV  36.75 Ry    6.06 a.u.  28.20 28.20 28.20*2*pi/ulx,y,z
   ENINI  =  500.0     initial cutoff
   ENAUG  =  322.1 eV  augmentation charge cutoff
   NELM   =    120;   NELMIN=  4; NELMDL= -5     # of ELM steps 
   EDIFF  = 0.1E-07   stopping-criterion for ELM
   LREAL  =      F    real-space projection
   NLSPLINE    = F    spline interpolate recip. space projectors
   LCOMPAT=      F    compatible to vasp.4.4
   GGA_COMPAT  = T    GGA compatible to vasp.4.4-vasp.4.6
   LMAXPAW     = -100 max onsite density
   LMAXMIX     =    2 max onsite mixed and CHGCAR
   VOSKOWN=      0    Vosko Wilk Nusair interpolation
   ROPT   =    0.00000
 Ionic relaxation
   EDIFFG = 0.1E-06   stopping-criterion for IOM
   NSW    =      0    number of steps for IOM
   NBLOCK =      1;   KBLOCK =      1    inner block; outer block 
   IBRION =     -1    ionic relax: 0-MD 1-quasi-New 2-CG
   NFREE  =      0    steps in history (QN), initial steepest desc. (CG)
   ISIF   =      2    stress and relaxation
   IWAVPR =     10    prediction:  0-non 1-charg 2-wave 3-comb
   ISYM   =      2    0-nonsym 1-usesym 2-fastsym
   LCORR  =      T    Harris-Foulkes like correction to forces

   POTIM  = 0.5000    time-step for ionic-motion
   TEIN   =    0.0    initial temperature
   TEBEG  =    0.0;   TEEND  =   0.0 temperature during run
   SMASS  =  -3.00    Nose mass-parameter (am)
   estimated Nose-frequenzy (Omega)   =  0.10E-29 period in steps =****** mass=  -0.547E-26a.u.
   SCALEE = 1.0000    scale energy and forces
   NPACO  =    256;   APACO  = 16.0  distance and # of slots for P.C.
   PSTRESS=    0.0 pullay stress

  Mass of Ions in am
   POMASS =  28.09
  Ionic Valenz
   ZVAL   =   4.00
  Atomic Wigner-Seitz radii
   RWIGS  =  -1.00
  virtual crystal weights 
   VCA    =   1.00
   NELECT =     512.0000    total number of electrons
   NUPDOWN=      -1.0000    fix difference up-down

 DOS related values:
   EMIN   =  10.00;   EMAX   =-10.00  energy-range for DOS
   EFERMI =   0.00
   ISMEAR =     0;   SIGMA  =   0.01  broadening in eV -4-tet -1-fermi 0-gaus

 Electronic relaxation 2 (details)
   IALGO  =     38    algorithm
   LDIAG  =      T    sub-space diagonalisation (order eigenvalues)
   LSUBROT=      F    optimize rotation matrix (better conditioning)
   TURBO    =      0    0=normal 1=particle mesh
   IRESTART =      0    0=no restart 2=restart with 2 vectors
   NREBOOT  =      0    no. of reboots
   NMIN     =      0    reboot dimension
   EREF     =   0.00    reference energy to select bands
   IMIX   =      4    mixing-type and parameters
     AMIX     =   0.40;   BMIX     =  1.00
     AMIX_MAG =   1.60;   BMIX_MAG =  1.00
     AMIN     =   0.10
     WC   =   100.;   INIMIX=   1;  MIXPRE=   1;  MAXMIX= -45

 Intra band minimization:
   WEIMIN = 0.0000     energy-eigenvalue tresh-hold
   EBREAK =  0.78E-11  absolut break condition
   DEPER  =   0.30     relativ break condition  

   TIME   =   0.40     timestep for ELM

  volume/ion in A,a.u.               =      20.44       137.96
  Fermi-wavevector in a.u.,A,eV,Ry     =   0.950408  1.796010 12.289804  0.903275
  Thomas-Fermi vector in A             =   2.078782
 
 Write flags
   LWAVE        =      F    write WAVECAR
   LDOWNSAMPLE  =      F    k-point downsampling of WAVECAR
   LCHARG       =      F    write CHGCAR
   LVTOT        =      F    write LOCPOT, total local potential
   LVHAR        =      F    write LOCPOT, Hartree potential only
   LELF         =      F    write electronic localiz. function (ELF)
   LORBIT       =      0    0 simple, 1 ext, 2 COOP (PROOUT), +10 PAW based schemes


 Dipole corrections
   LMONO  =      F    monopole corrections only (constant potential shift)
   LDIPOL =      F    correct potential (dipole corrections)
   IDIPOL =      0    1-x, 2-y, 3-z, 4-all directions 
   EPSILON=  1.0000000 bulk dielectric constant

 Exchange correlation treatment:
   GGA     =    --    GGA type
   LEXCH   =     8    internal setting for exchange type
   VOSKOWN=      0    Vosko Wilk Nusair interpolation
   LHFCALC =     F    Hartree Fock is set to
   LHFONE  =     F    Hartree Fock one center treatment
   AEXX    =    0.0000 exact exchange contribution

 Linear response parameters
   LEPSILON=     F    determine dielectric tensor
   LRPA    =     F    only Hartree local field effects (RPA)
   LNABLA  =     F    use nabla operator in PAW spheres
   LVEL    =     F    velocity operator in full k-point grid
   LINTERFAST=   F  fast interpolation
   KINTER  =     0    interpolate to denser k-point grid
   CSHIFT  =0.1000    complex shift for real part using Kramers Kronig
   OMEGAMAX=  -1.0    maximum frequency
   DEG_THRESHOLD= 0.2000000E-02 threshold for treating states as degnerate
   RTIME   =   -0.100 relaxation time in fs
  (WPLASMAI=    0.000 imaginary part of plasma frequency in eV, 0.658/RTIME)
   DFIELD  = 0.0000000 0.0000000 0.0000000 field for delta impulse in time
 
 Orbital magnetization related:
   ORBITALMAG=     F  switch on orbital magnetization
   LCHIMAG   =     F  perturbation theory with respect to B field
   DQ        =  0.001000  dq finite difference perturbation B field
   LLRAUG    =     F  two centre corrections for induced B field



--------------------------------------------------------------------------------------------------------


 Static calculation
 charge density and potential will be updated during run
 non-spin polarized calculation
 Variant of blocked Davidson
 Davidson routine will perform the subspace rotation
 perform sub-space diagonalisation
    after iterative eigenvector-optimisation
 modified Broyden-mixing scheme, WC =      100.0
 initial mixing is a Kerker type mixing with AMIX =  0.4000 and BMIX =      1.0000
 Hartree-type preconditioning will be used
 using additional bands           66
 reciprocal scheme for non local part
 use partial core corrections
 calculate Harris-corrections to forces 
   (improved forces if not selfconsistent)
 use gradient corrections 
 use of overlap-Matrix (Vanderbilt PP)
 Gauss-broadening in eV      SIGMA  =   0.01


--------------------------------------------------------------------------------------------------------


  energy-cutoff  :      500.00
  volume of cell :     2616.76
      direct lattice vectors                 reciprocal lattice vectors
     0.000000000 10.937333691 10.937333691    -0.045714981  0.045714981  0.045714981
    10.937333691  0.000000000 10.937333691     0.045714981 -0.045714981  0.045714981
    10.937333691 10.937333691  0.000000000     0.045714981  0.045714981 -0.045714981

  length of vectors
    15.467725642 15.467725642 15.467725642     0.079180669  0.079180669  0.079180669


 
 k-points in units of 2pi/SCALE and weight: KPOINTS File, automatically generated by
   0.00000000  0.00000000  0.00000000       0.125
  -0.02285749  0.02285749  0.02285749       0.125
   0.02285749 -0.02285749  0.02285749       0.125
   0.00000000  0.00000000  0.04571498       0.125
   0.02285749  0.02285749 -0.02285749       0.125
   0.00000000  0.04571498  0.00000000       0.125
   0.04571498  0.00000000  0.00000000       0.125
   0.02285749  0.02285749  0.02285749       0.125
 
 k-points in reciprocal lattice and weights: KPOINTS File, automatically generated by
   0.00000000  0.00000000  0.00000000       0.125
   0.50000000  0.00000000  0.00000000       0.125
   0.00000000  0.50000000  0.00000000       0.125
   0.50000000  0.50000000  0.00000000       0.125
   0.00000000  0.00000000  0.50000000       0.125
   0.50000000  0.00000000  0.50000000       0.125
   0.00000000  0.50000000  0.50000000       0.125
   0.50000000  0.50000000  0.50000000       0.125
 
 position of ions in fractional coordinates (direct lattice) 
   0.99098388  0.99535822  0.01340979
   0.25245672  0.00055026  0.99887233
   0.50764969  0.99627725  0.99548193
   0.74656681  0.99036049  0.00728200
   0.99388518  0.25077524  0.99944486
   0.25437406  0.24775321  0.00738235
   0.48776512  0.25961564  0.00415912
   0.75634608  0.25148105  0.00428397
   0.99261569  0.49160909  0.01129685
   0.25453258  0.50629502  0.99254865
   0.49885644  0.49895452  0.99270714
   0.75536900  0.50122119  0.00457747
   0.00840489  0.75394307  0.99997984
   0.24308704  0.76535364  0.00344449
   0.50775037  0.75283307  0.99462829
   0.75113100  0.74313325  0.01896334
   0.99779879  0.99465561  0.25937205
   0.24091259  0.99549371  0.25079216
   0.49622380  0.00297010  0.24799086
   0.75800179  0.99685286  0.24867957
   0.00873236  0.24057933  0.25023004
   0.24531238  0.24755073  0.26181592
   0.49473241  0.24530453  0.24896093
   0.74745450  0.26338132  0.24660913
   0.00396772  0.49559113  0.24640798
   0.24957476  0.49560013  0.25420692
   0.49458261  0.50279506  0.23977519
   0.74633076  0.50220134  0.25174816
   0.00346610  0.73799617  0.24954651
   0.24823902  0.74939484  0.24833852
   0.50536885  0.75652106  0.24335456
   0.75205630  0.74292101  0.25725556
   0.01536465  0.99040016  0.49408241
   0.26474747  0.99948050  0.49310716
   0.49858458  0.00035085  0.48445937
   0.74277709  0.99919795  0.50377782
   0.99255396  0.25495200  0.49889535
   0.24370401  0.24845719  0.50481710
   0.51585403  0.24991694  0.48997028
   0.74946109  0.25981436  0.49354846
   0.99593447  0.50362359  0.49750659
   0.25100234  0.50375317  0.49087942
   0.49980591  0.48898320  0.50151232
   0.75234211  0.50079639  0.49457429
   0.99138494  0.75815973  0.49756376
   0.25249092  0.74449567  0.50971794
   0.51117481  0.75948517  0.48939628
   0.76183191  0.75316767  0.48867952
   0.01163710  0.99131200  0.74091222
   0.25723687  0.99990826  0.75417470
   0.49443016  0.00037722  0.74006948
   0.75313864  0.00212640  0.74815477
   0.00247124  0.24760542  0.74410149
   0.25314298  0.25222081  0.75308509
   0.50716757  0.25086474  0.74482446
   0.75420764  0.25621147  0.75231054
   0.98892421  0.50423132  0.75451696
   0.25178517  0.50231294  0.75143810
   0.48989187  0.50826814  0.75295049
   0.74954212  0.49306214  0.74310824
   0.00142298  0.74228186  0.75423748
   0.24693480  0.75716347  0.75416688
   0.49885707  0.75130705  0.75216922
   0.74796928  0.75043705  0.75241266
   0.06680846  0.06062949  0.05838534
   0.31723455  0.04726519  0.06962524
   0.55763574  0.08143733  0.06003303
   0.82555819  0.05214207  0.05302640
   0.05956727  0.31730479  0.06676170
   0.30759061  0.31706187  0.07382925
   0.56040282  0.32881008  0.05502015
   0.81049740  0.31385087  0.06751107
   0.05762974  0.56252656  0.06572546
   0.32011733  0.56133950  0.05416556
   0.55461600  0.56377298  0.06186462
   0.81469667  0.56911098  0.06790634
   0.05319200  0.82236929  0.06620296
   0.31549108  0.81681931  0.05506104
   0.55646029  0.81566296  0.07067729
   0.82360360  0.81445521  0.05246511
   0.07212568  0.05864814  0.31108346
   0.30105212  0.06763937  0.30943973
   0.55601228  0.06555554  0.30623607
   0.81849582  0.05643738  0.31313180
   0.05845911  0.31297718  0.31468320
   0.30831425  0.31402679  0.31294082
   0.56560177  0.32630764  0.31072397
   0.80708982  0.31930121  0.30813783
   0.06923612  0.55298672  0.30244228
   0.31312940  0.56458743  0.31682713
   0.56661302  0.55299614  0.31945756
   0.81074374  0.57394274  0.30516974
   0.06305957  0.80465642  0.31127250
   0.31059656  0.81196357  0.30539674
   0.55948342  0.82197615  0.30800990
   0.81701192  0.80819802  0.30794596
   0.05303792  0.07827891  0.56347085
   0.31704440  0.06748711  0.55101882
   0.56146224  0.06338531  0.55790350
   0.82599724  0.05736451  0.55630062
   0.06056897  0.30957987  0.57236257
   0.32076878  0.31535528  0.55065511
   0.56729530  0.31299947  0.56632659
   0.80607978  0.31702536  0.57203330
   0.06076506  0.56576324  0.55279324
   0.29544808  0.57315751  0.56773967
   0.56455890  0.55057734  0.56595264
   0.81486281  0.56879404  0.55533249
   0.06575218  0.80907439  0.56184392
   0.31982010  0.80404122  0.55866733
   0.56418808  0.81096649  0.56828018
   0.81397895  0.80740396  0.55987488
   0.06494978  0.05539370  0.81376675
   0.31977634  0.05895718  0.80985196
   0.56630601  0.05113386  0.82290998
   0.81928001  0.06422718  0.81510624
   0.05667562  0.31166370  0.81816815
   0.31645036  0.30982586  0.81108709
   0.55898037  0.32247555  0.80826818
   0.82170005  0.30508392  0.81106124
   0.06512729  0.56138227  0.82086551
   0.30401669  0.56947101  0.81727151
   0.55691713  0.56185993  0.81910970
   0.80938792  0.56003407  0.81870133
   0.05417599  0.80929432  0.82201870
   0.30932412  0.81173524  0.81116695
   0.55822343  0.81090487  0.81076800
   0.81221970  0.80677788  0.80641259
 
 position of ions in cartesian coordinates  (Angst):
  11.03323237 10.98538870 21.72528640
  10.93101835 13.68620335  2.76722178
  21.78453478 16.44025212 16.44895070
  10.91154871  8.24509590 18.99735338
  13.67407445 21.80171576 13.61326633
   2.79050278  2.86291729  5.49193354
   2.88499257  5.38033957  8.17435274
   2.79738735  8.31926471 11.02294162
   5.50045015 10.98012646 16.23346172
  16.39335345 13.63974362  8.32142540
  16.31480135 16.31372859 10.91339137
   5.53208872  8.31178807 13.74374619
  19.18324023 11.02904032  8.33805405
   8.40860172  2.69639764 11.02965227
  19.11256794 16.43201671 13.78742167
   8.33530472  8.42277874 16.34326674
  13.71571895 13.75009703 21.79213861
  13.63104443  5.37793895 13.52298823
   2.74484379  8.13972408  5.45985023
  13.62280389 11.01041000 19.19343096
   5.36814586  2.83235818  2.72680519
   5.57111306  5.54663145  5.39060838
   5.40594628  8.13402222  8.09403090
   5.57793566 10.87240560 11.05584868
   8.11549182  2.73844260  5.46384181
   8.20088987  5.51002830  8.15022639
   8.12173866  8.03191630 10.90865236
   8.24619725 10.91632225 13.65561222
  10.80108384  2.76728330  8.10962031
  10.91254270  5.43123421 10.91145442
  10.93597332  8.18903777 13.80171109
  10.93926491 11.03918068 16.35106570
  16.23628125  5.57199258 11.00038536
  16.32492938  8.28890900 13.82728318
   5.30253117 10.75187977  5.45702326
  16.43854752 13.63398696 19.05256228
   8.24508001 16.31247870 13.64438897
   8.23881227  8.18682518  5.38293130
   8.09239344 11.00103611  8.37549264
   8.23978055 13.59521019 11.03878238
  10.94969487 16.33426323 16.40116690
  10.87862848  8.11420839  8.25501284
  10.83337999 10.95175156 10.81471645
  10.88670129 13.63794068 13.70599392
  13.73426689 16.28512880 19.13535383
  13.71775274  8.33653257 10.90437498
  13.65943316 10.94357985 13.89763226
  13.58249716 13.67726079 16.57005598
  18.94591434  8.23088297 10.96958898
  19.18499068 11.06214592 13.74981582
   8.09851262 13.50213442  5.41187343
   8.20607553 16.42014702  8.26058584
  10.84662937  8.16551507  2.73517190
  10.99536612 11.00545222  5.52733245
  10.89018503 13.69345468  8.29085235
  11.03054175 16.47729197 11.05129097
  13.76735001 19.06859790 16.33114027
  13.71269341 10.97258769  8.24782266
  13.79436906 13.59338167 10.91720911
  13.52040799 16.32561504 13.59077745
  16.36793139  8.26491063  8.13414806
  16.52992438 10.94938312 10.98215781
  16.44402166 13.68289196 13.67346214
  16.43716879 16.41017792 16.38856999
   1.30170484  1.36928639  1.39383140
   1.27846958  4.23121461  3.98665529
   1.54730844  6.75564943  6.98975541
   1.15026259  9.60937284  9.59970067
   4.20066334  1.38170210  4.12197541
   4.27530662  4.17171628  6.83203254
   4.19807925  6.73108640  9.72561822
   4.17108284  9.60307165 12.29737221
   6.87140195  1.34917690  6.78285634
   6.73198424  4.09365689  9.64078748
   6.84280726  6.74265426 12.23219345
   6.96727101  9.65332372 15.13516605
   9.71861115  1.30586250  9.57630596
   9.53604630  4.05285213 12.38445658
   9.69419904  6.85921289 15.00736981
   9.48179681  9.58185580 17.91599589
   4.04387797  4.19128623  1.43031690
   4.12423994  6.67715303  4.03250180
   4.06640889  9.43069793  6.79829456
   4.04210147 12.37698892  9.56943646
   6.86493100  4.08118196  4.06252261
   6.85735402  6.79487405  6.80675163
   6.96742732  9.58466705  9.75511084
   6.86251019 12.19761693 12.31971456
   9.35611240  4.06517069  6.80545888
   9.64032517  6.89004483  9.59988184
   9.54231720  9.69124955 12.24553895
   9.61514655 12.20511806 15.14477812
  12.20528696  4.09419472  9.49049939
  12.22094267  6.73732432 12.27781477
  12.35903449  9.48806388 15.10948435
  12.20763924 12.30403979 17.77546352
   7.01903132  6.74296217  1.43625604
   6.76480573  9.49429706  4.20574938
   6.79524312 12.24287670  6.83416626
   6.71186022 15.11865289  9.66162217
   9.64609878  6.92258351  4.04844143
   9.47184462  9.53105379  6.95750111
   9.61748255 12.39880094  9.62807763
   9.72393120 15.07288261 12.28377563
  12.23402548  6.71069187  6.85254901
  12.47837319  9.44097244  9.50022913
  12.21186096 12.36478200 12.19661712
  12.29494701 14.98628320 15.13351667
  14.99419096  6.86422793  9.56827011
  14.90439814  9.60831009 12.29204627
  15.08528107 12.38618328 15.04052434
  14.95438495 15.02629779 17.73360588
   9.50629787  9.61081587  1.31623677
   9.50245548 12.35512167  4.14233484
   9.55970916 15.19431885  6.75314593
   9.61756303 17.87582784  9.66321296
  12.35734790  9.56845817  4.02865002
  12.25979900 12.33225334  6.84979203
  12.36732143 14.95405353  9.64077747
  12.20765204 17.85805507 12.32401220
  15.11810523  9.69039891  6.85234422
  15.16726567 12.26390319  9.55362649
  15.10412575 15.05006462 12.23643806
  15.07968913 17.80695539 14.97782523
  17.84221490  9.58323369  9.44406294
  17.75022278 12.25518477 12.26140032
  17.73677729 14.97311604 14.97461308
  17.64400246 17.70352149 17.70751676
 


--------------------------------------------------------------------------------------------------------


 k-point  1 :   0.0000 0.0000 0.0000  plane waves:   66299
 k-point  2 :   0.5000 0.0000 0.0000  plane waves:   66394
 k-point  3 :   0.0000 0.5000 0.0000  plane waves:   66394
 k-point  4 :   0.5000 0.5000 0.0000  plane waves:   66552
 k-point  5 :   0.0000 0.0000 0.5000  plane waves:   66394
 k-point  6 :   0.5000 0.0000 0.5000  plane waves:   66552
 k-point  7 :   0.0000 0.5000 0.5000  plane waves:   66552
 k-point  8 :   0.5000 0.5000 0.5000  plane waves:   66394

 maximum and minimum number of plane-waves per node :      4207     4110

 maximum number of plane-waves:     66552
 maximum index in each direction: 
   IXMAX=   28   IYMAX=   28   IZMAX=   28
   IXMIN=  -28   IYMIN=  -28   IZMIN=  -28


 parallel 3D FFT for wavefunctions:
    minimum data exchange during FFTs selected (reduces bandwidth)
 parallel 3D FFT for charge:
    minimum data exchange during FFTs selected (reduces bandwidth)


 total amount of memory used by VASP MPI-rank0   221701. kBytes
=======================================================================

   base      :      30000. kBytes
   nonl-proj :      10690. kBytes
   fftplans  :      66746. kBytes
   grid      :      26864. kBytes
   one-center:         24. kBytes
   wavefun   :      87377. kBytes
 
     INWAV:  cpu time    0.0000: real time    0.0002
 Broyden mixing: mesh for mixing (old mesh)
   NGX = 57   NGY = 57   NGZ = 57
  (NGX  =240   NGY  =240   NGZ  =240)
  gives a total of 185193 points

 initial charge density was supplied:
 charge density of overlapping atoms calculated
 number of electron     512.0000000 magnetization 
 keeping initial charge density in first step


--------------------------------------------------------------------------------------------------------


 Maximum index for augmentation-charges         5603 (set IRDMAX)


--------------------------------------------------------------------------------------------------------


 First call to EWALD:  gamma=   0.129
 Maximum number of real-space cells 3x 3x 3
 Maximum number of reciprocal cells 3x 3x 3

    FEWALD:  cpu time    0.0059: real time    0.0059


--------------------------------------- Iteration      1(   1)  ---------------------------------------


    POTLOK:  cpu time    0.4881: real time    0.4969
    SETDIJ:  cpu time    0.5112: real time    0.5115
     EDDAV:  cpu time   69.9383: real time   69.9689
       DOS:  cpu time    0.0024: real time    0.0024
    --------------------------------------------
      LOOP:  cpu time   70.9401: real time   70.9798

 eigenvalue-minimisations  :  5152
 total energy-change (2. order) : 0.1383097E+04  (-0.1908331E+05)
 number of electron     512.0000000 magnetization 
 augmentation part      512.0000000 magnetization 

 Free energy of the ion-electron system (eV)
  ---------------------------------------------------
  alpha Z        PSCENC =       210.77028614
  Ewald energy   TEWEN  =    -14465.71334972
  -Hartree energ DENC   =      -760.80988338
  -exchange      EXHF   =         0.00000000
  -V(xc)+E(xc)   XCENC  =     -1195.26951728
  PAW double counting   =      4221.13331941    -1969.18571412
  entropy T*S    EENTRO =        -0.00218170
  eigenvalues    EBANDS =      2149.69291578
  atomic energy  EATOM  =     13192.48085998
  Solvation  Ediel_sol  =         0.00000000
  ---------------------------------------------------
  free energy    TOTEN  =      1383.09673512 eV

  energy without entropy =     1383.09891682  energy(sigma->0) =     1383.09782597


--------------------------------------------------------------------------------------------------------




--------------------------------------- Iteration      1(   2)  ---------------------------------------


     EDDAV:  cpu time   79.7325: real time   79.7525
       DOS:  cpu time    0.0011: real time    0.0011
    --------------------------------------------
      LOOP:  cpu time   79.7336: real time   79.7536

 eigenvalue-minimisations  :  6120
 total energy-change (2. order) :-0.1920940E+04  (-0.1827021E+04)
 number of electron     512.0000000 magnetization 
 augmentation part      512.0000000 magnetization 

 Free energy of the ion-electron system (eV)
  ---------------------------------------------------
  alpha Z        PSCENC =       210.77028614
  Ewald energy   TEWEN  =    -14465.71334972
  -Hartree energ DENC   =      -760.80988338
  -exchange      EXHF   =         0.00000000
  -V(xc)+E(xc)   XCENC  =     -1195.26951728
  PAW double counting   =      4221.13331941    -1969.18571412
  entropy T*S    EENTRO =        -0.00000000
  eigenvalues    EBANDS =       228.75074877
  atomic energy  EATOM  =     13192.48085998
  Solvation  Ediel_sol  =         0.00000000
  ---------------------------------------------------
  free energy    TOTEN  =      -537.84325019 eV

  energy without entropy =     -537.84325019  energy(sigma->0) =     -537.84325019


--------------------------------------------------------------------------------------------------------




--------------------------------------- Iteration      1(   3)  ---------------------------------------


     EDDAV:  cpu time   81.5314: real time   81.5581
       DOS:  cpu time    0.0010: real time    0.0010
    --------------------------------------------
      LOOP:  cpu time   81.5324: real time   81.5591

 eigenvalue-minimisations  :  6296
 total energy-change (2. order) :-0.1493870E+03  (-0.1464799E+03)
 number of electron     512.0000000 magnetization 
 augmentation part      512.0000000 magnetization 

 Free energy of the ion-electron system (eV)
  ---------------------------------------------------
  alpha Z        PSCENC =       210.77028614
  Ewald energy   TEWEN  =    -14465.71334972
  -Hartree energ DENC   =      -760.80988338
  -exchange      EXHF   =         0.00000000
  -V(xc)+E(xc)   XCENC  =     -1195.26951728
  PAW double counting   =      4221.13331941    -1969.18571412
  entropy T*S    EENTRO =        -0.00000000
  eigenvalues    EBANDS =        79.36376228
  atomic energy  EATOM  =     13192.48085998
  Solvation  Ediel_sol  =         0.00000000
  ---------------------------------------------------
  free energy    TOTEN  =      -687.23023668 eV

  energy without entropy =     -687.23023668  energy(sigma->0) =     -687.23023668


--------------------------------------------------------------------------------------------------------




--------------------------------------- Iteration      1(   4)  ---------------------------------------


     EDDAV:  cpu time   80.4230: real time   80.4578
       DOS:  cpu time    0.0009: real time    0.0009
    --------------------------------------------
      LOOP:  cpu time   80.4240: real time   80.4587

 eigenvalue-minimisations  :  6184
 total energy-change (2. order) :-0.4150268E+01  (-0.4115813E+01)
 number of electron     512.0000000 magnetization 
 augmentation part      512.0000000 magnetization 

 Free energy of the ion-electron system (eV)
  ---------------------------------------------------
  alpha Z        PSCENC =       210.77028614
  Ewald energy   TEWEN  =    -14465.71334972
  -Hartree energ DENC   =      -760.80988338
  -exchange      EXHF   =         0.00000000
  -V(xc)+E(xc)   XCENC  =     -1195.26951728
  PAW double counting   =      4221.13331941    -1969.18571412
  entropy T*S    EENTRO =        -0.00000000
  eigenvalues    EBANDS =        75.21349414
  atomic energy  EATOM  =     13192.48085998
  Solvation  Ediel_sol  =         0.00000000
  ---------------------------------------------------
  free energy    TOTEN  =      -691.38050482 eV

  energy without entropy =     -691.38050482  energy(sigma->0) =     -691.38050482


--------------------------------------------------------------------------------------------------------




--------------------------------------- Iteration      1(   5)  ---------------------------------------


     EDDAV:  cpu time   81.7366: real time   81.7734
       DOS:  cpu time    0.0010: real time    0.0010
    CHARGE:  cpu time    3.1109: real time    3.1114
    MIXING:  cpu time    0.0298: real time    0.0299
    --------------------------------------------
      LOOP:  cpu time   84.8783: real time   84.9156

 eigenvalue-minimisations  :  6320
 total energy-change (2. order) :-0.1461649E+00  (-0.1457484E+00)
 number of electron     511.9999998 magnetization 
 augmentation part      -30.1792882 magnetization 

 Broyden mixing:
  rms(total) = 0.24010E+01    rms(broyden)= 0.24010E+01
  rms(prec ) = 0.29099E+01
  weight for this iteration     100.00

 Free energy of the ion-electron system (eV)
  ---------------------------------------------------
  alpha Z        PSCENC =       210.77028614
  Ewald energy   TEWEN  =    -14465.71334972
  -Hartree energ DENC   =      -760.80988338
  -exchange      EXHF   =         0.00000000
  -V(xc)+E(xc)   XCENC  =     -1195.26951728
  PAW double counting   =      4221.13331941    -1969.18571412
  entropy T*S    EENTRO =        -0.00000000
  eigenvalues    EBANDS =        75.06732921
  atomic energy  EATOM  =     13192.48085998
  Solvation  Ediel_sol  =         0.00000000
  ---------------------------------------------------
  free energy    TOTEN  =      -691.52666974 eV

  energy without entropy =     -691.52666974  energy(sigma->0) =     -691.52666974


--------------------------------------------------------------------------------------------------------




--------------------------------------- Iteration      1(   6)  ---------------------------------------


    POTLOK:  cpu time    0.4894: real time    0.4906
    SETDIJ:  cpu time    0.5072: real time    0.5072
     EDDAV:  cpu time   77.3842: real time   77.4043
       DOS:  cpu time    0.0011: real time    0.0011
    CHARGE:  cpu time    3.1064: real time    3.1070
    MIXING:  cpu time    0.0328: real time    0.0328
    --------------------------------------------
      LOOP:  cpu time   81.5211: real time   81.5430

 eigenvalue-minimisations  :  5888
 total energy-change (2. order) : 0.8505830E+01  (-0.6057939E+00)
 number of electron     511.9999998 magnetization 
 augmentation part      -29.8369681 magnetization 

 Broyden mixing:
  rms(total) = 0.14263E+01    rms(broyden)= 0.14263E+01
  rms(prec ) = 0.17186E+01
  weight for this iteration     100.00

 eigenvalues of (default mixing * dielectric matrix)
  average eigenvalue GAMMA=   2.4283
  2.4283

 Free energy of the ion-electron system (eV)
  ---------------------------------------------------
  alpha Z        PSCENC =       210.77028614
  Ewald energy   TEWEN  =    -14465.71334972
  -Hartree energ DENC   =      -856.47561135
  -exchange      EXHF   =         0.00000000
  -V(xc)+E(xc)   XCENC  =     -1180.58455765
  PAW double counting   =      4466.73296627    -2221.58512748
  entropy T*S    EENTRO =        -0.00000000
  eigenvalues    EBANDS =       171.35369429
  atomic energy  EATOM  =     13192.48085998
  Solvation  Ediel_sol  =         0.00000000
  ---------------------------------------------------
  free energy    TOTEN  =      -683.02083951 eV

  energy without entropy =     -683.02083951  energy(sigma->0) =     -683.02083951


--------------------------------------------------------------------------------------------------------




--------------------------------------- Iteration      1(   7)  ---------------------------------------


    POTLOK:  cpu time    0.4913: real time    0.4921
    SETDIJ:  cpu time    0.5079: real time    0.5079
     EDDAV:  cpu time   76.0753: real time   76.0971
       DOS:  cpu time    0.0011: real time    0.0011
    CHARGE:  cpu time    3.0836: real time    3.0841
    MIXING:  cpu time    0.0325: real time    0.0325
    --------------------------------------------
      LOOP:  cpu time   80.1916: real time   80.2147

 eigenvalue-minimisations  :  5768
 total energy-change (2. order) : 0.3529513E+01  (-0.1129095E+01)
 number of electron     511.9999998 magnetization 
 augmentation part      -29.3838889 magnetization 

 Broyden mixing:
  rms(total) = 0.15734E+00    rms(broyden)= 0.15734E+00
  rms(prec ) = 0.20471E+00
  weight for this iteration     100.00

 eigenvalues of (default mixing * dielectric matrix)
  average eigenvalue GAMMA=   2.0714
  2.0714  2.0714

 Free energy of the ion-electron system (eV)
  ---------------------------------------------------
  alpha Z        PSCENC =       210.77028614
  Ewald energy   TEWEN  =    -14465.71334972
  -Hartree energ DENC   =     -1006.90135171
  -exchange      EXHF   =         0.00000000
  -V(xc)+E(xc)   XCENC  =     -1156.67922306
  PAW double counting   =      4786.85578399    -2550.24831210
  entropy T*S    EENTRO =        -0.00000000
  eigenvalues    EBANDS =       309.94397955
  atomic energy  EATOM  =     13192.48085998
  Solvation  Ediel_sol  =         0.00000000
  ---------------------------------------------------
  free energy    TOTEN  =      -679.49132693 eV

  energy without entropy =     -679.49132693  energy(sigma->0) =     -679.49132693


--------------------------------------------------------------------------------------------------------




--------------------------------------- Iteration      1(   8)  ---------------------------------------


    POTLOK:  cpu time    0.4907: real time    0.4917
    SETDIJ:  cpu time    0.5037: real time    0.5037
     EDDAV:  cpu time   76.9577: real time   76.9898
       DOS:  cpu time    0.0010: real time    0.0010
    CHARGE:  cpu time    3.0969: real time    3.0972
    MIXING:  cpu time    0.0351: real time    0.0350
    --------------------------------------------
      LOOP:  cpu time   81.0851: real time   81.1185

 eigenvalue-minimisations  :  5856
 total energy-change (2. order) :-0.5252697E-01  (-0.1066056E+00)
 number of electron     511.9999998 magnetization 
 augmentation part      -29.4515290 magnetization 

 Broyden mixing:
  rms(total) = 0.63754E-01    rms(broyden)= 0.63754E-01
  rms(prec ) = 0.78435E-01
  weight for this iteration     100.00

 eigenvalues of (default mixing * dielectric matrix)
  average eigenvalue GAMMA=   1.9955
  2.6648  1.6608  1.6608

 Free energy of the ion-electron system (eV)
  ---------------------------------------------------
  alpha Z        PSCENC =       210.77028614
  Ewald energy   TEWEN  =    -14465.71334972
  -Hartree energ DENC   =     -1001.20568534
  -exchange      EXHF   =         0.00000000
  -V(xc)+E(xc)   XCENC  =     -1156.68248401
  PAW double counting   =      4742.18459140    -2504.18153259
  entropy T*S    EENTRO =        -0.00000000
  eigenvalues    EBANDS =       302.80346024
  atomic energy  EATOM  =     13192.48085998
  Solvation  Ediel_sol  =         0.00000000
  ---------------------------------------------------
  free energy    TOTEN  =      -679.54385390 eV

  energy without entropy =     -679.54385390  energy(sigma->0) =     -679.54385390


--------------------------------------------------------------------------------------------------------




--------------------------------------- Iteration      1(   9)  ---------------------------------------


    POTLOK:  cpu time    0.4897: real time    0.4908
    SETDIJ:  cpu time    0.5065: real time    0.5065
     EDDAV:  cpu time   79.5593: real time   79.5941
       DOS:  cpu time    0.0010: real time    0.0010
    CHARGE:  cpu time    3.0813: real time    3.0823
    MIXING:  cpu time    0.0266: real time    0.0266
    --------------------------------------------
      LOOP:  cpu time   83.6644: real time   83.7013

 eigenvalue-minimisations  :  6120
 total energy-change (2. order) :-0.2430389E-01  (-0.1068489E-01)
 number of electron     511.9999998 magnetization 
 augmentation part      -29.4580249 magnetization 

 Broyden mixing:
  rms(total) = 0.27620E-01    rms(broyden)= 0.27620E-01
  rms(prec ) = 0.32255E-01
  weight for this iteration     100.00

 eigenvalues of (default mixing * dielectric matrix)
  average eigenvalue GAMMA=   1.7828
  2.5844  1.8229  1.8229  0.9011

 Free energy of the ion-electron system (eV)
  ---------------------------------------------------
  alpha Z        PSCENC =       210.77028614
  Ewald energy   TEWEN  =    -14465.71334972
  -Hartree energ DENC   =     -1007.39171985
  -exchange      EXHF   =         0.00000000
  -V(xc)+E(xc)   XCENC  =     -1155.56632430
  PAW double counting   =      4742.83384638    -2504.84147342
  entropy T*S    EENTRO =        -0.00000000
  eigenvalues    EBANDS =       307.85971700
  atomic energy  EATOM  =     13192.48085998
  Solvation  Ediel_sol  =         0.00000000
  ---------------------------------------------------
  free energy    TOTEN  =      -679.56815779 eV

  energy without entropy =     -679.56815779  energy(sigma->0) =     -679.56815779


--------------------------------------------------------------------------------------------------------




--------------------------------------- Iteration      1(  10)  ---------------------------------------


    POTLOK:  cpu time    0.4909: real time    0.4914
    SETDIJ:  cpu time    0.5043: real time    0.5050
     EDDAV:  cpu time   78.3806: real time   78.4129
       DOS:  cpu time    0.0010: real time    0.0010
    CHARGE:  cpu time    3.1075: real time    3.1077
    MIXING:  cpu time    0.0269: real time    0.0269
    --------------------------------------------
      LOOP:  cpu time   82.5112: real time   82.5451

 eigenvalue-minimisations  :  6008
 total energy-change (2. order) :-0.2555822E-02  (-0.8328240E-03)
 number of electron     511.9999998 magnetization 
 augmentation part      -29.4669764 magnetization 

 Broyden mixing:
  rms(total) = 0.11150E-01    rms(broyden)= 0.11150E-01
  rms(prec ) = 0.13450E-01
  weight for this iteration     100.00

 eigenvalues of (default mixing * dielectric matrix)
  average eigenvalue GAMMA=   1.8374
  2.6486  2.6486  1.4865  1.4865  0.9168

 Free energy of the ion-electron system (eV)
  ---------------------------------------------------
  alpha Z        PSCENC =       210.77028614
  Ewald energy   TEWEN  =    -14465.71334972
  -Hartree energ DENC   =     -1006.42606445
  -exchange      EXHF   =         0.00000000
  -V(xc)+E(xc)   XCENC  =     -1155.71355626
  PAW double counting   =      4736.16795322    -2498.01114734
  entropy T*S    EENTRO =        -0.00000000
  eigenvalues    EBANDS =       306.87430481
  atomic energy  EATOM  =     13192.48085998
  Solvation  Ediel_sol  =         0.00000000
  ---------------------------------------------------
  free energy    TOTEN  =      -679.57071361 eV

  energy without entropy =     -679.57071361  energy(sigma->0) =     -679.57071361


--------------------------------------------------------------------------------------------------------




--------------------------------------- Iteration      1(  11)  ---------------------------------------


    POTLOK:  cpu time    0.4875: real time    0.4904
    SETDIJ:  cpu time    0.5043: real time    0.5043
     EDDAV:  cpu time   75.9216: real time   75.9411
       DOS:  cpu time    0.0010: real time    0.0010
    CHARGE:  cpu time    3.1151: real time    3.1154
    MIXING:  cpu time    0.0237: real time    0.0237
    --------------------------------------------
      LOOP:  cpu time   80.0532: real time   80.0759

 eigenvalue-minimisations  :  5752
 total energy-change (2. order) :-0.1514603E-02  (-0.2315084E-03)
 number of electron     511.9999998 magnetization 
 augmentation part      -29.4693605 magnetization 

 Broyden mixing:
  rms(total) = 0.35414E-02    rms(broyden)= 0.35414E-02
  rms(prec ) = 0.49858E-02
  weight for this iteration     100.00

 eigenvalues of (default mixing * dielectric matrix)
  average eigenvalue GAMMA=   1.7738
  2.8396  2.0544  2.0544  0.8823  1.4947  1.3173

 Free energy of the ion-electron system (eV)
  ---------------------------------------------------
  alpha Z        PSCENC =       210.77028614
  Ewald energy   TEWEN  =    -14465.71334972
  -Hartree energ DENC   =     -1006.42327585
  -exchange      EXHF   =         0.00000000
  -V(xc)+E(xc)   XCENC  =     -1155.71102282
  PAW double counting   =      4732.17001486    -2493.92198569
  entropy T*S    EENTRO =        -0.00000000
  eigenvalues    EBANDS =       306.77624488
  atomic energy  EATOM  =     13192.48085998
  Solvation  Ediel_sol  =         0.00000000
  ---------------------------------------------------
  free energy    TOTEN  =      -679.57222822 eV

  energy without entropy =     -679.57222822  energy(sigma->0) =     -679.57222822


--------------------------------------------------------------------------------------------------------




--------------------------------------- Iteration      1(  12)  ---------------------------------------


    POTLOK:  cpu time    0.4893: real time    0.4943
    SETDIJ:  cpu time    0.5075: real time    0.5075
     EDDAV:  cpu time   79.7925: real time   79.8183
       DOS:  cpu time    0.0010: real time    0.0010
    CHARGE:  cpu time    3.1160: real time    3.1162
    MIXING:  cpu time    0.0319: real time    0.0319
    --------------------------------------------
      LOOP:  cpu time   83.9381: real time   83.9692

 eigenvalue-minimisations  :  6136
 total energy-change (2. order) :-0.9557222E-04  (-0.4000637E-04)
 number of electron     511.9999998 magnetization 
 augmentation part      -29.4676284 magnetization 

 Broyden mixing:
  rms(total) = 0.17791E-02    rms(broyden)= 0.17791E-02
  rms(prec ) = 0.21144E-02
  weight for this iteration     100.00

 eigenvalues of (default mixing * dielectric matrix)
  average eigenvalue GAMMA=   1.8411
  3.1924  2.6930  1.7739  1.7739  0.9005  1.2769  1.2769

 Free energy of the ion-electron system (eV)
  ---------------------------------------------------
  alpha Z        PSCENC =       210.77028614
  Ewald energy   TEWEN  =    -14465.71334972
  -Hartree energ DENC   =     -1006.99124400
  -exchange      EXHF   =         0.00000000
  -V(xc)+E(xc)   XCENC  =     -1155.64880876
  PAW double counting   =      4733.20115878    -2494.99047408
  entropy T*S    EENTRO =        -0.00000000
  eigenvalues    EBANDS =       307.31924787
  atomic energy  EATOM  =     13192.48085998
  Solvation  Ediel_sol  =         0.00000000
  ---------------------------------------------------
  free energy    TOTEN  =      -679.57232379 eV

  energy without entropy =     -679.57232379  energy(sigma->0) =     -679.57232379


--------------------------------------------------------------------------------------------------------




--------------------------------------- Iteration      1(  13)  ---------------------------------------


    POTLOK:  cpu time    0.4915: real time    0.4922
    SETDIJ:  cpu time    0.5041: real time    0.5041
     EDDAV:  cpu time   75.9088: real time   75.9408
       DOS:  cpu time    0.0011: real time    0.0011
    CHARGE:  cpu time    3.1089: real time    3.1094
    MIXING:  cpu time    0.0401: real time    0.0401
    --------------------------------------------
      LOOP:  cpu time   80.0545: real time   80.0877

 eigenvalue-minimisations  :  5744
 total energy-change (2. order) :-0.2851544E-04  (-0.1120086E-04)
 number of electron     511.9999998 magnetization 
 augmentation part      -29.4676308 magnetization 

 Broyden mixing:
  rms(total) = 0.59944E-03    rms(broyden)= 0.59942E-03
  rms(prec ) = 0.76212E-03
  weight for this iteration     100.00

 eigenvalues of (default mixing * dielectric matrix)
  average eigenvalue GAMMA=   1.7806
  3.1592  2.5581  1.9248  1.9248  1.3920  1.3920  0.9472  0.9472

 Free energy of the ion-electron system (eV)
  ---------------------------------------------------
  alpha Z        PSCENC =       210.77028614
  Ewald energy   TEWEN  =    -14465.71334972
  -Hartree energ DENC   =     -1006.98507587
  -exchange      EXHF   =         0.00000000
  -V(xc)+E(xc)   XCENC  =     -1155.65996024
  PAW double counting   =      4732.62133191    -2494.39923166
  entropy T*S    EENTRO =        -0.00000000
  eigenvalues    EBANDS =       307.31278715
  atomic energy  EATOM  =     13192.48085998
  Solvation  Ediel_sol  =         0.00000000
  ---------------------------------------------------
  free energy    TOTEN  =      -679.57235231 eV

  energy without entropy =     -679.57235231  energy(sigma->0) =     -679.57235231


--------------------------------------------------------------------------------------------------------




--------------------------------------- Iteration      1(  14)  ---------------------------------------


    POTLOK:  cpu time    0.4895: real time    0.4900
    SETDIJ:  cpu time    0.5054: real time    0.5054
     EDDAV:  cpu time   80.4796: real time   80.5178
       DOS:  cpu time    0.0011: real time    0.0011
    CHARGE:  cpu time    3.0672: real time    3.0676
    MIXING:  cpu time    0.0208: real time    0.0208
    --------------------------------------------
      LOOP:  cpu time   84.5635: real time   84.6028

 eigenvalue-minimisations  :  6208
 total energy-change (2. order) :-0.4468791E-05  (-0.7774373E-06)
 number of electron     511.9999998 magnetization 
 augmentation part      -29.4674985 magnetization 

 Broyden mixing:
  rms(total) = 0.17466E-03    rms(broyden)= 0.17460E-03
  rms(prec ) = 0.23489E-03
  weight for this iteration     100.00

 eigenvalues of (default mixing * dielectric matrix)
  average eigenvalue GAMMA=   1.7780
  3.2149  2.5897  2.2532  1.6864  1.6864  1.3201  1.3201  0.9935  0.9376

 Free energy of the ion-electron system (eV)
  ---------------------------------------------------
  alpha Z        PSCENC =       210.77028614
  Ewald energy   TEWEN  =    -14465.71334972
  -Hartree energ DENC   =     -1007.03388334
  -exchange      EXHF   =         0.00000000
  -V(xc)+E(xc)   XCENC  =     -1155.65287949
  PAW double counting   =      4732.78777905    -2494.56922966
  entropy T*S    EENTRO =        -0.00000000
  eigenvalues    EBANDS =       307.35806027
  atomic energy  EATOM  =     13192.48085998
  Solvation  Ediel_sol  =         0.00000000
  ---------------------------------------------------
  free energy    TOTEN  =      -679.57235677 eV

  energy without entropy =     -679.57235677  energy(sigma->0) =     -679.57235677


--------------------------------------------------------------------------------------------------------




--------------------------------------- Iteration      1(  15)  ---------------------------------------


    POTLOK:  cpu time    0.4913: real time    0.4940
    SETDIJ:  cpu time    0.5041: real time    0.5041
     EDDAV:  cpu time   79.5057: real time   79.5405
       DOS:  cpu time    0.0011: real time    0.0011
    CHARGE:  cpu time    3.0711: real time    3.0717
    MIXING:  cpu time    0.0232: real time    0.0232
    --------------------------------------------
      LOOP:  cpu time   83.5966: real time   83.6346

 eigenvalue-minimisations  :  6112
 total energy-change (2. order) :-0.3536126E-05  (-0.1408313E-06)
 number of electron     511.9999998 magnetization 
 augmentation part      -29.4673713 magnetization 

 Broyden mixing:
  rms(total) = 0.64529E-04    rms(broyden)= 0.64364E-04
  rms(prec ) = 0.84381E-04
  weight for this iteration     100.00

 eigenvalues of (default mixing * dielectric matrix)
  average eigenvalue GAMMA=   1.7369
  3.2640  2.5954  2.0612  1.7370  1.7370  1.4837  1.4837  0.9511  0.9511  1.1047

 Free energy of the ion-electron system (eV)
  ---------------------------------------------------
  alpha Z        PSCENC =       210.77028614
  Ewald energy   TEWEN  =    -14465.71334972
  -Hartree energ DENC   =     -1007.05800465
  -exchange      EXHF   =         0.00000000
  -V(xc)+E(xc)   XCENC  =     -1155.65132795
  PAW double counting   =      4732.86163419    -2494.64525521
  entropy T*S    EENTRO =        -0.00000000
  eigenvalues    EBANDS =       307.38279691
  atomic energy  EATOM  =     13192.48085998
  Solvation  Ediel_sol  =         0.00000000
  ---------------------------------------------------
  free energy    TOTEN  =      -679.57236031 eV

  energy without entropy =     -679.57236031  energy(sigma->0) =     -679.57236031


--------------------------------------------------------------------------------------------------------




--------------------------------------- Iteration      1(  16)  ---------------------------------------


    POTLOK:  cpu time    0.4881: real time    0.4898
    SETDIJ:  cpu time    0.5053: real time    0.5053
     EDDAV:  cpu time   78.7880: real time   78.8132
       DOS:  cpu time    0.0010: real time    0.0010
    CHARGE:  cpu time    3.1474: real time    3.1477
    MIXING:  cpu time    0.0318: real time    0.0318
    --------------------------------------------
      LOOP:  cpu time   82.9616: real time   82.9888

 eigenvalue-minimisations  :  6040
 total energy-change (2. order) : 0.6300306E-06  (-0.1786870E-07)
 number of electron     511.9999998 magnetization 
 augmentation part      -29.4673806 magnetization 

 Broyden mixing:
  rms(total) = 0.24104E-04    rms(broyden)= 0.23659E-04
  rms(prec ) = 0.30232E-04
  weight for this iteration     100.00

 eigenvalues of (default mixing * dielectric matrix)
  average eigenvalue GAMMA=   1.7224
  3.2890  2.6348  2.1019  2.1019  1.4941  1.4941  1.4268  1.4268  0.9169  1.0301
  1.0301

 Free energy of the ion-electron system (eV)
  ---------------------------------------------------
  alpha Z        PSCENC =       210.77028614
  Ewald energy   TEWEN  =    -14465.71334972
  -Hartree energ DENC   =     -1007.05570028
  -exchange      EXHF   =         0.00000000
  -V(xc)+E(xc)   XCENC  =     -1155.65150744
  PAW double counting   =      4732.85128636    -2494.63440534
  entropy T*S    EENTRO =        -0.00000000
  eigenvalues    EBANDS =       307.38017061
  atomic energy  EATOM  =     13192.48085998
  Solvation  Ediel_sol  =         0.00000000
  ---------------------------------------------------
  free energy    TOTEN  =      -679.57235968 eV

  energy without entropy =     -679.57235968  energy(sigma->0) =     -679.57235968


--------------------------------------------------------------------------------------------------------




--------------------------------------- Iteration      1(  17)  ---------------------------------------


    POTLOK:  cpu time    0.4901: real time    0.4911
    SETDIJ:  cpu time    0.5028: real time    0.5060
     EDDAV:  cpu time   55.3591: real time   55.3825
       DOS:  cpu time    0.0010: real time    0.0010
    CHARGE:  cpu time    3.1000: real time    3.1005
    MIXING:  cpu time    0.0229: real time    0.0229
    --------------------------------------------
      LOOP:  cpu time   59.4760: real time   59.5041

 eigenvalue-minimisations  :  3688
 total energy-change (2. order) :-0.4702633E-07  (-0.2151027E-08)
 number of electron     511.9999998 magnetization 
 augmentation part      -29.4673793 magnetization 

 Broyden mixing:
  rms(total) = 0.11740E-04    rms(broyden)= 0.10797E-04
  rms(prec ) = 0.13554E-04
  weight for this iteration     100.00

 eigenvalues of (default mixing * dielectric matrix)
  average eigenvalue GAMMA=   1.7233
  3.3060  2.6327  2.3529  1.9326  1.9326  1.4401  1.4401  1.3900  0.9280  0.9964
  1.2301  1.0977

 Free energy of the ion-electron system (eV)
  ---------------------------------------------------
  alpha Z        PSCENC =       210.77028614
  Ewald energy   TEWEN  =    -14465.71334972
  -Hartree energ DENC   =     -1007.05578842
  -exchange      EXHF   =         0.00000000
  -V(xc)+E(xc)   XCENC  =     -1155.65149496
  PAW double counting   =      4732.85502801    -2494.63813359
  entropy T*S    EENTRO =        -0.00000000
  eigenvalues    EBANDS =       307.38023283
  atomic energy  EATOM  =     13192.48085998
  Solvation  Ediel_sol  =         0.00000000
  ---------------------------------------------------
  free energy    TOTEN  =      -679.57235973 eV

  energy without entropy =     -679.57235973  energy(sigma->0) =     -679.57235973


--------------------------------------------------------------------------------------------------------




--------------------------------------- Iteration      1(  18)  ---------------------------------------


    POTLOK:  cpu time    0.4867: real time    0.4897
    SETDIJ:  cpu time    0.5042: real time    0.5042
     EDDAV:  cpu time   51.8274: real time   51.8437
       DOS:  cpu time    0.0011: real time    0.0011
    CHARGE:  cpu time    3.1051: real time    3.1056
    MIXING:  cpu time    0.0194: real time    0.0194
    --------------------------------------------
      LOOP:  cpu time   55.9439: real time   55.9636

 eigenvalue-minimisations  :  3336
 total energy-change (2. order) :-0.9658834E-07  (-0.5417879E-09)
 number of electron     511.9999998 magnetization 
 augmentation part      -29.4673750 magnetization 

 Broyden mixing:
  rms(total) = 0.60638E-05    rms(broyden)= 0.39405E-05
  rms(prec ) = 0.55312E-05
  weight for this iteration     100.00
  WARNING: grid for Broyden might be to small

 eigenvalues of (default mixing * dielectric matrix)
  average eigenvalue GAMMA=   1.7305
  3.2530  2.6559  2.3711  2.3711  1.7391  1.7391  1.4356  1.4356  1.2826  1.2826
  0.9298  1.0004  1.0004

 Free energy of the ion-electron system (eV)
  ---------------------------------------------------
  alpha Z        PSCENC =       210.77028614
  Ewald energy   TEWEN  =    -14465.71334972
  -Hartree energ DENC   =     -1007.05660697
  -exchange      EXHF   =         0.00000000
  -V(xc)+E(xc)   XCENC  =     -1155.65139754
  PAW double counting   =      4732.85846060    -2494.64162591
  entropy T*S    EENTRO =        -0.00000000
  eigenvalues    EBANDS =       307.38101359
  atomic energy  EATOM  =     13192.48085998
  Solvation  Ediel_sol  =         0.00000000
  ---------------------------------------------------
  free energy    TOTEN  =      -679.57235982 eV

  energy without entropy =     -679.57235982  energy(sigma->0) =     -679.57235982


--------------------------------------------------------------------------------------------------------




--------------------------------------- Iteration      1(  19)  ---------------------------------------


    POTLOK:  cpu time    0.4909: real time    0.4919
    SETDIJ:  cpu time    0.5042: real time    0.5042
     EDDAV:  cpu time   51.1959: real time   51.2142
       DOS:  cpu time    0.0010: real time    0.0010
    CHARGE:  cpu time    3.0875: real time    3.0880
    MIXING:  cpu time    0.0336: real time    0.0336
    --------------------------------------------
      LOOP:  cpu time   55.3131: real time   55.3328

 eigenvalue-minimisations  :  3272
 total energy-change (2. order) : 0.4630965E-07  (-0.1182933E-09)
 number of electron     511.9999998 magnetization 
 augmentation part      -29.4673771 magnetization 

 Broyden mixing:
  rms(total) = 0.50329E-05    rms(broyden)= 0.20221E-05
  rms(prec ) = 0.26708E-05
  weight for this iteration     100.00
  WARNING: grid for Broyden might be to small

 eigenvalues of (default mixing * dielectric matrix)
  average eigenvalue GAMMA=   1.7028
  3.3196  2.7056  2.3547  2.3547  1.8273  1.8273  1.5031  1.5031  1.3037  1.3037
  1.0079  1.0079  0.9105  0.9105

 Free energy of the ion-electron system (eV)
  ---------------------------------------------------
  alpha Z        PSCENC =       210.77028614
  Ewald energy   TEWEN  =    -14465.71334972
  -Hartree energ DENC   =     -1007.05619065
  -exchange      EXHF   =         0.00000000
  -V(xc)+E(xc)   XCENC  =     -1155.65143285
  PAW double counting   =      4732.85790607    -2494.64103392
  entropy T*S    EENTRO =        -0.00000000
  eigenvalues    EBANDS =       307.38059517
  atomic energy  EATOM  =     13192.48085998
  Solvation  Ediel_sol  =         0.00000000
  ---------------------------------------------------
  free energy    TOTEN  =      -679.57235978 eV

  energy without entropy =     -679.57235978  energy(sigma->0) =     -679.57235978


--------------------------------------------------------------------------------------------------------




--------------------------------------- Iteration      1(  20)  ---------------------------------------


    POTLOK:  cpu time    0.4865: real time    0.4898
    SETDIJ:  cpu time    0.5039: real time    0.5039
     EDDAV:  cpu time   50.4016: real time   50.4149
       DOS:  cpu time    0.0010: real time    0.0010
    --------------------------------------------
      LOOP:  cpu time   51.3930: real time   51.4097

 eigenvalue-minimisations  :  3192
 total energy-change (2. order) :-0.2555680E-08  (-0.3666514E-10)
 number of electron     511.9999998 magnetization 
 augmentation part      -29.4673771 magnetization 

 Free energy of the ion-electron system (eV)
  ---------------------------------------------------
  alpha Z        PSCENC =       210.77028614
  Ewald energy   TEWEN  =    -14465.71334972
  -Hartree energ DENC   =     -1007.05633861
  -exchange      EXHF   =         0.00000000
  -V(xc)+E(xc)   XCENC  =     -1155.65141675
  PAW double counting   =      4732.85802356    -2494.64115411
  entropy T*S    EENTRO =        -0.00000000
  eigenvalues    EBANDS =       307.38072973
  atomic energy  EATOM  =     13192.48085998
  Solvation  Ediel_sol  =         0.00000000
  ---------------------------------------------------
  free energy    TOTEN  =      -679.57235978 eV

  energy without entropy =     -679.57235978  energy(sigma->0) =     -679.57235978


--------------------------------------------------------------------------------------------------------




 average (electrostatic) potential at core
  the test charge radii are     0.9892
  (the norm of the test charge is              1.0000)
       1 -83.4531       2 -83.5148       3 -83.6276       4 -83.5753       5 -83.4820
       6 -83.5821       7 -83.4714       8 -83.6952       9 -83.5679      10 -83.5080
      11 -83.4880      12 -83.5486      13 -83.6739      14 -83.6016      15 -83.7280
      16 -83.5363      17 -83.5435      18 -83.5193      19 -83.4491      20 -83.5515
      21 -83.6082      22 -83.5183      23 -83.5868      24 -83.4905      25 -83.5676
      26 -83.5784      27 -83.5662      28 -83.4404      29 -83.5849      30 -83.5654
      31 -83.6279      32 -83.5450      33 -83.5098      34 -83.4387      35 -83.4666
      36 -83.3658      37 -83.4611      38 -83.4456      39 -83.4746      40 -83.4764
      41 -83.4619      42 -83.5145      43 -83.5122      44 -83.3722      45 -83.4760
      46 -83.4766      47 -83.5274      48 -83.4497      49 -83.4446      50 -83.4348
      51 -83.5235      52 -83.4136      53 -83.3841      54 -83.5275      55 -83.4593
      56 -83.4808      57 -83.4113      58 -83.4978      59 -83.4084      60 -83.5377
      61 -83.5223      62 -83.5439      63 -83.6197      64 -83.4532      65 -83.5861
      66 -83.6041      67 -83.6322      68 -83.4921      69 -83.5528      70 -83.5000
      71 -83.5752      72 -83.4442      73 -83.6216      74 -83.5815      75 -83.6245
      76 -83.4746      77 -83.5687      78 -83.5045      79 -83.6660      80 -83.5783
      81 -83.5258      82 -83.5809      83 -83.5025      84 -83.5379      85 -83.5895
      86 -83.4282      87 -83.5103      88 -83.5082      89 -83.5416      90 -83.5447
      91 -83.6620      92 -83.5491      93 -83.5729      94 -83.5778      95 -83.6095
      96 -83.4898      97 -83.4408      98 -83.3886      99 -83.4767     100 -83.4918
     101 -83.4617     102 -83.5574     103 -83.3353     104 -83.4051     105 -83.4360
     106 -83.5523     107 -83.4570     108 -83.3908     109 -83.5941     110 -83.5813
     111 -83.6827     112 -83.3891     113 -83.4799     114 -83.4218     115 -83.5625
     116 -83.4109     117 -83.4493     118 -83.4793     119 -83.4803     120 -83.4073
     121 -83.4623     122 -83.4389     123 -83.4967     124 -83.3553     125 -83.5714
     126 -83.4941     127 -83.5716     128 -83.4307
 
 
 
 E-fermi :   5.8550     XC(G=0):  -9.3310     alpha+bet :-11.7321


 k-point     1 :       0.0000    0.0000    0.0000
  band No.  band energies     occupation 
      1      -6.3050      2.00000
      2      -5.6655      2.00000
      3      -5.6345      2.00000
      4      -5.6159      2.00000
      5      -5.5623      2.00000
      6      -5.5103      2.00000
      7      -5.4787      2.00000
      8      -5.4590      2.00000
      9      -5.4519      2.00000
     10      -5.2987      2.00000
     11      -5.2601      2.00000
     12      -5.2464      2.00000
     13      -5.1799      2.00000
     14      -5.1055      2.00000
     15      -5.0441      2.00000
     16      -4.4957      2.00000
     17      -4.4736      2.00000
     18      -4.4460      2.00000
     19      -4.4078      2.00000
     20      -4.3784      2.00000
     21      -4.3482      2.00000
     22      -4.3124      2.00000
     23      -4.2829      2.00000
     24      -4.2106      2.00000
     25      -4.1664      2.00000
     26      -4.1371      2.00000
     27      -4.1358      2.00000
     28      -4.0727      2.00000
     29      -4.0126      2.00000
     30      -3.9585      2.00000
     31      -3.9368      2.00000
     32      -3.8439      2.00000
     33      -3.8354      2.00000
     34      -3.8098      2.00000
     35      -3.7575      2.00000
     36      -3.7503      2.00000
     37      -3.7360      2.00000
     38      -3.6988      2.00000
     39      -3.6688      2.00000
     40      -3.6279      2.00000
     41      -3.6108      2.00000
     42      -3.5957      2.00000
     43      -3.5884      2.00000
     44      -3.5698      2.00000
     45      -3.5343      2.00000
     46      -3.4962      2.00000
     47      -3.4840      2.00000
     48      -3.4404      2.00000
     49      -3.4276      2.00000
     50      -3.3723      2.00000
     51      -3.3438      2.00000
     52      -3.2940      2.00000
     53      -3.2811      2.00000
     54      -3.2625      2.00000
     55      -3.2518      2.00000
     56      -2.3372      2.00000
     57      -2.3040      2.00000
     58      -2.2650      2.00000
     59      -2.2295      2.00000
     60      -2.2083      2.00000
     61      -2.1813      2.00000
     62      -2.1469      2.00000
     63      -2.1343      2.00000
     64      -2.0840      2.00000
     65      -2.0638      2.00000
     66      -2.0384      2.00000
     67      -1.9933      2.00000
     68      -1.9444      2.00000
     69      -1.9131      2.00000
     70      -1.8945      2.00000
     71      -1.8585      2.00000
     72      -1.8280      2.00000
     73      -1.8011      2.00000
     74      -1.3614      2.00000
     75      -1.3215      2.00000
     76      -1.2628      2.00000
     77      -1.2173      2.00000
     78      -1.1043      2.00000
     79      -1.0230      2.00000
     80      -0.9764      2.00000
     81      -0.9067      2.00000
     82      -0.8775      2.00000
     83      -0.8397      2.00000
     84      -0.8149      2.00000
     85      -0.7879      2.00000
     86      -0.7780      2.00000
     87      -0.7529      2.00000
     88      -0.7444      2.00000
     89      -0.7237      2.00000
     90      -0.7056      2.00000
     91      -0.6714      2.00000
     92      -0.6524      2.00000
     93      -0.6387      2.00000
     94      -0.6296      2.00000
     95      -0.6044      2.00000
     96      -0.5900      2.00000
     97      -0.5377      2.00000
     98      -0.5162      2.00000
     99      -0.4873      2.00000
    100      -0.4453      2.00000
    101      -0.3598      2.00000
    102       0.0218      2.00000
    103       0.0672      2.00000
[...]
   0.599E+01 0.790E+01 0.262E+01   -.512E+01 -.760E+01 -.245E+01   -.172E+01 -.377E+00 -.202E+01   -.109E-05 0.367E-06 -.117E-05
   0.470E+01 -.723E+01 -.254E+01   -.383E+01 0.669E+01 0.268E+01   -.207E+01 0.241E+01 -.446E+00   0.659E-06 -.191E-06 0.333E-05
   0.974E+00 -.102E+02 -.342E+01   -.955E+00 0.866E+01 0.327E+01   0.691E+00 0.295E+01 0.549E+00   0.658E-06 0.101E-06 -.788E-06
   0.102E+02 0.425E+01 -.404E+01   -.861E+01 -.346E+01 0.393E+01   -.372E+01 -.854E+00 0.141E+01   -.304E-05 -.130E-05 0.156E-05
   -.832E+00 0.160E+01 0.881E+00   0.626E+00 -.238E+01 -.982E+00   0.900E+00 0.236E+01 -.115E+01   -.657E-06 0.138E-05 -.263E-05
   -.702E+01 0.103E+02 0.773E+01   0.605E+01 -.897E+01 -.723E+01   0.185E+01 -.302E+01 -.259E+01   0.109E-05 0.112E-05 0.104E-05
   0.873E+01 0.139E+01 0.415E+01   -.762E+01 -.426E+00 -.413E+01   -.210E+01 0.165E+00 -.592E-01   -.591E-06 -.202E-05 -.363E-05
   0.586E+01 -.777E+01 -.157E+02   -.504E+01 0.699E+01 0.141E+02   -.202E+01 0.186E+01 0.264E+01   0.784E-06 0.257E-05 0.310E-05
   -.124E+02 0.841E+01 -.345E+01   0.115E+02 -.722E+01 0.255E+01   0.262E+01 -.211E+01 0.727E+00   0.458E-05 -.163E-05 -.677E-07
   0.338E+00 0.117E+01 0.506E+01   -.669E+00 -.910E+00 -.501E+01   -.216E+00 -.858E-01 -.266E+00   0.371E-05 -.172E-06 -.304E-05
   -.367E+01 -.878E+01 -.368E+01   0.371E+01 0.841E+01 0.342E+01   0.294E+00 0.149E+01 -.107E+00   0.309E-05 0.136E-05 -.109E-06
   0.918E+01 0.445E+01 0.122E+02   -.858E+01 -.369E+01 -.115E+02   -.238E+01 -.152E+01 -.232E+01   -.193E-05 0.102E-05 -.117E-05
   0.620E+01 -.131E+02 -.197E+01   -.568E+01 0.119E+02 0.116E+01   -.619E+00 0.299E+01 0.192E+01   -.683E-06 0.240E-05 0.139E-06
   -.332E+01 -.690E+01 0.621E+00   0.269E+01 0.670E+01 -.615E+00   0.212E+01 0.919E+00 -.264E+00   -.746E-06 0.147E-05 -.330E-05
   0.233E+01 0.185E+01 -.198E+01   -.153E+01 -.937E+00 0.187E+01   -.207E+01 -.251E+01 0.356E+00   -.873E-06 0.391E-06 -.408E-06
   -.859E+01 0.130E+02 0.265E+01   0.791E+01 -.117E+02 -.256E+01   0.823E+00 -.361E+01 0.145E+00   -.102E-05 0.132E-06 -.135E-05
   0.599E+01 -.658E+01 0.765E+01   -.474E+01 0.571E+01 -.761E+01   -.323E+01 0.295E+01 -.215E+01   -.105E-05 0.349E-05 -.155E-05
   -.443E+00 -.283E+00 -.125E+01   0.105E+01 0.746E+00 0.129E+01   0.115E-01 -.707E+00 0.101E+00   0.560E-06 0.681E-06 0.508E-06
   -.966E+00 -.144E+02 0.309E+01   0.757E+00 0.133E+02 -.283E+01   0.926E+00 0.286E+01 -.331E+00   0.260E-05 -.825E-06 -.815E-06
   0.298E+01 0.262E+00 0.164E+01   -.219E+01 -.466E+00 -.182E+01   -.164E+01 0.834E+00 0.513E+00   -.539E-06 0.128E-05 0.114E-05
   -.596E+01 0.583E+01 -.382E+01   0.614E+01 -.547E+01 0.319E+01   0.183E+00 -.298E+00 0.128E+01   0.237E-05 0.842E-06 -.225E-05
   0.898E+01 -.359E+01 0.189E+01   -.843E+01 0.344E+01 -.179E+01   -.359E+01 0.113E+01 -.246E+00   0.679E-07 -.165E-05 0.199E-05
   -.116E+02 -.871E+01 0.485E+01   0.104E+02 0.804E+01 -.427E+01   0.231E+01 0.204E+01 -.126E+01   0.440E-05 0.173E-05 -.134E-05
   -.183E+01 0.521E+01 0.551E+00   0.130E+01 -.460E+01 0.211E-01   -.802E-01 -.179E+01 -.748E+00   -.482E-06 0.358E-06 0.102E-05
   -.464E+01 0.304E+01 0.447E+00   0.443E+01 -.271E+01 -.993E+00   0.922E+00 -.133E+01 0.194E+00   -.922E-06 -.277E-05 0.805E-06
   0.611E+00 0.359E+01 -.668E+01   -.872E-01 -.250E+01 0.594E+01   -.175E+01 -.348E+01 0.186E+01   0.114E-05 0.104E-05 -.217E-05
   -.403E+01 -.858E+01 0.324E+01   0.377E+01 0.828E+01 -.317E+01   0.682E+00 0.112E+01 -.614E+00   -.190E-06 0.717E-06 -.146E-05
   0.323E+01 -.401E+01 0.120E+02   -.313E+01 0.387E+01 -.115E+02   -.170E+01 -.278E+00 -.134E+01   -.126E-05 0.126E-05 -.762E-06
   0.358E+01 0.967E+00 0.846E+01   -.354E+01 -.987E+00 -.731E+01   -.138E+01 -.724E+00 -.579E+00   -.764E-06 -.801E-06 0.201E-05
   -.629E+01 -.136E+02 0.161E+01   0.581E+01 0.125E+02 -.179E+01   0.159E+01 0.180E+01 0.204E+00   -.767E-06 0.941E-06 -.205E-05
   0.111E+02 -.563E+01 0.685E+01   -.965E+01 0.487E+01 -.611E+01   -.406E+01 0.241E+01 -.143E+01   -.259E-05 0.822E-06 -.677E-06
   -.669E+01 0.754E+01 -.164E+01   0.610E+01 -.710E+01 0.169E+01   0.123E+01 -.141E+01 0.111E+01   -.931E-06 0.257E-05 -.222E-06
   -.712E+01 -.782E+00 0.692E+01   0.649E+01 0.614E+00 -.641E+01   0.643E+00 -.227E+00 -.158E+01   -.254E-06 -.132E-06 -.124E-05
   -.136E+01 -.237E+01 0.643E+01   0.154E+01 0.234E+01 -.549E+01   -.244E+00 0.611E+00 -.147E+01   0.721E-06 -.178E-05 0.298E-06
   -.333E+01 -.405E+01 -.196E+01   0.262E+01 0.376E+01 0.215E+01   0.250E+01 0.133E+01 0.131E+01   0.192E-05 -.946E-07 -.415E-06
   -.132E+01 -.637E+01 -.203E+01   0.794E+00 0.553E+01 0.189E+01   -.179E+00 0.454E+00 0.135E+01   0.891E-06 0.369E-05 0.267E-05
   -.135E+02 -.354E+01 0.320E+01   0.126E+02 0.294E+01 -.270E+01   0.280E+01 0.528E+00 -.406E+00   0.327E-05 -.753E-06 -.290E-05
   -.203E+01 -.187E+01 -.280E+01   0.129E+01 0.156E+01 0.304E+01   0.863E+00 0.625E+00 -.109E+00   0.173E-05 0.404E-06 0.429E-05
   -.137E+02 0.448E+01 -.728E+01   0.122E+02 -.442E+01 0.740E+01   0.364E+01 -.484E+00 -.389E-01   -.355E-06 -.404E-05 -.114E-05
   0.658E+01 0.123E+02 -.552E+01   -.631E+01 -.109E+02 0.564E+01   -.187E+01 -.422E+01 0.144E+01   -.168E-05 -.370E-05 0.915E-06
   -.436E+00 0.581E+01 0.282E+01   -.137E+00 -.564E+01 -.296E+01   0.832E-01 -.511E+00 -.410E+00   0.100E-05 -.186E-05 0.308E-05
   0.624E+01 -.116E+01 -.102E+02   -.520E+01 0.109E+01 0.972E+01   -.175E+01 -.482E+00 0.145E+01   -.388E-05 -.125E-05 -.181E-05
   -.208E+01 -.280E+01 0.107E+01   0.117E+01 0.240E+01 -.147E+01   0.203E+01 0.140E+01 0.116E+01   -.210E-05 -.104E-05 0.908E-06
   0.561E+01 -.658E+01 0.473E+01   -.519E+01 0.554E+01 -.485E+01   -.293E+00 0.190E+01 -.285E+00   -.185E-05 0.120E-06 0.245E-05
   -.110E+02 -.787E+01 0.149E+01   0.973E+01 0.685E+01 -.139E+01   0.309E+01 0.138E+01 0.364E+00   -.190E-06 0.193E-05 0.150E-05
   0.941E+01 -.101E+00 0.720E+01   -.942E+01 -.466E+00 -.617E+01   -.882E+00 0.193E+00 -.231E+01   -.100E-05 0.284E-06 -.205E-05
   0.669E+01 0.879E+01 -.133E+01   -.651E+01 -.792E+01 0.127E+01   -.117E+01 -.161E+01 0.110E+01   -.161E-05 -.679E-06 0.177E-05
   0.748E+01 0.104E+01 -.137E+02   -.726E+01 -.104E+01 0.126E+02   -.194E+01 -.109E+01 0.276E+01   -.169E-05 0.123E-05 0.125E-05
   0.179E+01 0.785E+01 0.640E+01   -.193E+01 -.689E+01 -.536E+01   0.110E+00 -.223E+01 -.164E+01   0.122E-05 -.322E-05 -.692E-06
   0.684E+01 0.812E+01 0.152E+00   -.659E+01 -.806E+01 0.214E+00   -.157E+01 -.387E+00 0.780E+00   -.139E-05 -.738E-06 0.226E-05
   -.728E+00 -.177E+01 -.422E+01   0.940E+00 0.935E+00 0.412E+01   0.146E+01 0.226E+01 0.144E+01   0.179E-05 -.175E-05 0.217E-05
   -.183E+01 -.459E+01 -.834E+01   0.132E+01 0.407E+01 0.823E+01   0.106E+01 0.106E+01 0.156E+01   -.293E-05 0.760E-06 0.461E-05
   -.107E+02 -.296E+01 -.239E+01   0.990E+01 0.192E+01 0.262E+01   0.309E+01 0.273E+01 0.825E+00   -.236E-05 -.321E-05 -.319E-05
 -----------------------------------------------------------------------------------------------
   -.543E+00 0.798E+00 0.322E+00   -.711E-13 0.189E-12 -.799E-14   0.543E+00 -.798E+00 -.322E+00   0.127E-05 0.984E-06 0.396E-07
 
 
 POSITION                                       TOTAL-FORCE (eV/Angst)
 -----------------------------------------------------------------------------------
     11.03323     10.98539     21.72529        -1.369646      0.398553      3.760147
     10.93102     13.68620      2.76722        -0.363581     -0.374263      0.055151
     21.78453     16.44025     16.44895         2.504739      1.007206     -0.508513
     10.91155      8.24510     18.99735         0.809527     -1.300665      1.680519
     13.67407     21.80172     13.61327         0.359287      1.388279      0.260380
      2.79050      2.86292      5.49193        -0.511209     -0.489090     -0.283795
      2.88499      5.38034      8.17435        -0.304451     -0.117899      1.994645
      2.79739      8.31926     11.02294        -1.148980     -1.189224     -1.108714
      5.50045     10.98013     16.23346         0.567064     -0.481277      2.347542
     16.39335     13.63974      8.32143         0.999964      0.457037     -2.030663
     16.31480     16.31373     10.91339         2.196906      0.350715      1.149178
      5.53209      8.31179     13.74375         0.464324     -0.788327     -0.637511
     19.18324     11.02904      8.33805        -0.236299     -0.021807     -1.344836
      8.40860      2.69640     11.02965        -2.213128     -0.582065     -1.252743
     19.11257     16.43202     13.78742         0.390225     -0.135775     -1.005863
      8.33530      8.42278     16.34327        -0.360435     -2.895036      0.952765
     13.71572     13.75010     21.79214        -1.365124      0.018063      1.246188
     13.63104      5.37794     13.52299        -1.092019      1.959475      1.782877
      2.74484      8.13972      5.45985         0.116092     -1.430714      0.071686
     13.62280     11.01041     19.19343        -0.367200     -1.243603     -0.318901
      5.36815      2.83236      2.72681         1.358485     -1.061381     -0.252421
      5.57111      5.54663      5.39061        -0.033328     -1.146066      0.286950
      5.40595      8.13402      8.09403         1.233297     -0.041576      1.994691
      5.57794     10.87241     11.05585        -1.298095      0.714563     -1.602138
      8.11549      2.73844      5.46384         0.574048     -0.828458     -0.699308
      8.20089      5.51003      8.15023        -0.464164     -0.226323      1.551755
      8.12174      8.03192     10.90865         1.654844      1.200715      0.664842
      8.24620     10.91632     13.65561        -0.073424      0.537665      0.858673
     10.80108      2.76728      8.10962         0.426956     -0.116435      0.195081
     10.91254      5.43123     10.91145        -0.549047     -0.458154      0.251767
     10.93597      8.18904     13.80171         0.918189      1.117891     -2.697313
     10.93926     11.03918     16.35107         1.016470     -2.935251      1.874219
     16.23628      5.57199     11.00039         1.806712      0.004715      0.371849
     16.32493      8.28891     13.82728         0.164813     -1.344973     -2.147410
      5.30253     10.75188      5.45702         1.257273      1.931554      0.184451
     16.43855     13.63399     19.05256        -0.709640      0.976055      0.911329
      8.24508     16.31248     13.64439         1.430515      0.182040      0.667632
      8.23881      8.18683      5.38293        -0.131677     -0.111219      1.358523
      8.09239     11.00104      8.37549         1.342514      0.134698     -0.904986
      8.23978     13.59521     11.03878        -0.477928      1.454181     -0.350207
     10.94969     16.33426     16.40117        -1.297318      0.361098      0.101169
     10.87863      8.11421      8.25501         1.570016      1.128652     -1.238430
     10.83338     10.95175     10.81472         2.201149     -0.810609      0.299867
     10.88670     13.63794     13.70599         0.623052      0.084441      0.215223
     13.73427     16.28513     19.13535        -1.240332      1.415851      0.514570
     13.71775      8.33653     10.90437        -0.483770     -2.803284      0.979779
     13.65943     10.94358     13.89763        -0.396986      0.586883     -2.391304
     13.58250     13.67726     16.57006         0.526654     -0.546517     -1.635638
     18.94591      8.23088     10.96959         1.901021      0.116728     -0.364350
     19.18499     11.06215     13.74982        -1.278676     -1.870800     -0.836207
      8.09851     13.50213      5.41187         0.118663      2.283116      1.035104
      8.20608     16.42015      8.26059        -0.421554      0.654135      0.101959
     10.84663      8.16552      2.73517         1.021126      2.279215     -1.018066
     10.99537     11.00545      5.52733        -1.101853     -1.373241     -0.690324
     10.89019     13.69345      8.29085         0.544439      0.972384     -1.446277
     11.03054     16.47729     11.05129        -0.328352     -0.578616     -2.169930
     13.76735     19.06860     16.33114        -1.123832      0.960603      1.349684
     13.71269     10.97259      8.24782        -0.144332      0.153402     -0.803007
     13.79437     13.59338     10.91721        -0.366396      0.096416      0.206272
     13.52041     16.32562     13.59078         1.213150      0.662558      0.532475
     16.36793      8.26491      8.13415         0.422366     -0.793795      0.267490
     16.52992     10.94938     10.98216        -1.503154     -1.625084     -1.194346
     16.44402     13.68289     13.67346        -0.546921     -0.324715     -1.378189
     16.43717     16.41018     16.38857        -1.477689     -1.126612     -1.130409
      1.30170      1.36929      1.39383         1.213457      0.198552     -0.626574
      1.27847      4.23121      3.98666         0.564834     -0.869429      1.519845
      1.54731      6.75565      6.98976        -1.665721      0.829065     -1.515556
      1.15026      9.60937      9.59970         3.414949     -2.023722     -2.013620
      4.20066      1.38170      4.12198        -2.274605      0.895416     -1.027366
      4.27531      4.17172      6.83203        -0.030660     -0.776112     -0.439041
      4.19808      6.73109      9.72562        -2.028526      2.250533     -2.291765
      4.17108      9.60307     12.29737         0.091251     -0.121432      0.969656
      6.87140      1.34918      6.78286        -0.841384     -0.067406      1.039758
      6.73198      4.09366      9.64079         2.396051     -0.443836     -0.439949
      6.84281      6.74265     12.23219        -1.048150     -0.028965      1.542510
      6.96727      9.65332     15.13517        -0.847087     -0.079204     -1.846531
      9.71861      1.30586      9.57631        -1.193034      1.863661     -0.311327
      9.53605      4.05285     12.38446         0.710341      1.447363      0.399187
      9.69420      6.85921     15.00737        -2.104827     -0.064747      1.298774
      9.48180      9.58186     17.91600         0.694059      1.583218     -1.248908
      4.04388      4.19129      1.43032         0.879839     -1.733845     -2.095711
      4.12424      6.67715      4.03250        -0.990826      1.127220     -0.038386
      4.06641      9.43070      6.79829        -1.210955      1.076840      1.059179
      4.04210     12.37699      9.56944         1.716210     -0.922508     -0.178728
      6.86493      4.08118      4.06252        -0.546933      0.171718     -0.213737
      6.85735      6.79487      6.80675         0.335714      1.121669     -0.370544
      6.96743      9.58467      9.75511        -1.783021     -0.763197     -1.597467
      6.86251     12.19762     12.31971        -0.096856      1.832416      1.106101
      9.35611      4.06517      6.80546         1.490071      0.718989     -0.257447
      9.64033      6.89004      9.59988        -1.279790     -1.592827      0.245374
      9.54232      9.69125     12.24554         0.146333     -2.262221      0.235245
      9.61515     12.20512     15.14478        -1.983828      2.075682     -2.105175
     12.20529      4.09419      9.49050         0.615820     -0.243188      0.140828
     12.22094      6.73732     12.27781         0.716175      1.811969     -0.066912
     12.35903      9.48806     15.10948        -0.848995      0.629862      0.335579
     12.20764     12.30404     17.77546         0.359145      0.055927      0.653338
      7.01903      6.74296      1.43626        -3.044316      0.973974     -0.151101
      6.76481      9.49430      4.20575         1.064223      1.366460     -0.683334
      6.79524     12.24288      6.83417        -0.611268     -1.174458     -0.175300
      6.71186     15.11865      9.66162         0.705079     -0.995607     -0.351223
      9.64610      6.92258      4.04844        -1.223946     -2.383789      1.114475
      9.47184      9.53105      6.95750         0.423760      0.818537     -0.535631
      9.61748     12.39880      9.62808        -1.602552     -0.420894     -0.803497
      9.72393     15.07288     12.28378        -1.337371     -0.744165      0.568389
     12.23403      6.71069      6.85255         1.118650      0.711833      0.023907
     12.47837      9.44097      9.50023        -2.584424      1.650071     -0.699909
     12.21186     12.36478     12.19662         0.631783     -0.977469      1.169431
     12.29495     14.98628     15.13352         0.011046     -0.394313     -1.066793
     14.99419      6.86423      9.56827        -0.066329      0.578414     -0.528334
     14.90440      9.60831     12.29205         1.792818      1.045165      1.496631
     15.08528     12.38618     15.04052        -0.701923     -0.389899      1.209454
     14.95438     15.02630     17.73361         1.969168     -0.064155      0.095655
      9.50630      9.61082      1.31624         0.118254      0.319240      0.125381
      9.50246     12.35512      4.14233         2.057893     -0.431799      0.075575
      9.55971     15.19432      6.75315        -1.597892     -2.764542      1.558684
      9.61756     17.87583      9.66321        -0.489660     -0.340436     -0.555483
     12.35735      9.56846      4.02865        -0.713314     -0.560043      0.980125
     12.25980     12.33225      6.84979         1.129300      0.993656      0.757117
     12.36732     14.95405      9.64078         0.124885      0.854268     -0.407610
     12.20765     17.85806     12.32401         1.807638      0.355274      0.465693
     15.11811      9.69040      6.85234        -0.892297     -0.374038     -1.279514
     15.16727     12.26390      9.55363        -0.995012     -0.737492      1.038128
     15.10413     15.05006     12.23644        -1.722562     -1.091134      1.666802
     15.07969     17.80696     14.97783        -0.031898     -1.265725     -0.599475
     17.84221      9.58323      9.44406        -1.317762     -0.325651      1.146171
     17.75022     12.25518     12.26140         1.673662      1.431703      1.341449
     17.73678     14.97312     14.97461         0.544047      0.531637      1.452927
     17.64400     17.70352     17.70752         2.237927      1.691884      1.055949
 -----------------------------------------------------------------------------------
    total drift:                               -0.000007      0.000014      0.000014


--------------------------------------------------------------------------------------------------------



  FREE ENERGIE OF THE ION-ELECTRON SYSTEM (eV)
  ---------------------------------------------------
  free  energy   TOTEN  =      -679.57235978 eV

  energy  without entropy=     -679.57235978  energy(sigma->0) =     -679.57235978
 


--------------------------------------------------------------------------------------------------------


    POTLOK:  cpu time    0.9906: real time    0.9908


--------------------------------------------------------------------------------------------------------


     LOOP+:  cpu time 1640.8252: real time 1641.4594
    4ORBIT:  cpu time    0.0000: real time    0.0000

 total amount of memory used by VASP MPI-rank0   221701. kBytes
=======================================================================

   base      :      30000. kBytes
   nonl-proj :      10690. kBytes
   fftplans  :      66746. kBytes
   grid      :      26864. kBytes
   one-center:         24. kBytes
   wavefun   :      87377. kBytes
 
  
  
 General timing and accounting informations for this job:
 ========================================================
  
                  Total CPU time used (sec):     1664.908
                            User time (sec):     1663.868
                          System time (sec):        1.040
                         Elapsed time (sec):     1666.546
  
                   Maximum memory used (kb):      337524.
                   Average memory used (kb):           0.
  
                          Minor page faults:       146998
                          Major page faults:            0
                 Voluntary context switches:         1332
