potpaw_PBE@./ARUN.APL1ZEROSTATE         
           1
     0.000000   10.937334   10.937334
    10.937334    0.000000   10.937334
    10.937334   10.937334    0.000000
   Si
 128
Direct configuration=     1
   0.99098388  0.99535822  0.01340979
   0.25245672  0.00055026  0.99887233
   0.50764969  0.99627725  0.99548193
   0.74656681  0.99036049  0.00728200
   0.99388518  0.25077524  0.99944486
   0.25437406  0.24775321  0.00738235
   0.48776512  0.25961564  0.00415912
   0.75634608  0.25148105  0.00428397
   0.99261569  0.49160909  0.01129685
   0.25453258  0.50629502  0.99254865
   0.49885644  0.49895452  0.99270714
   0.75536900  0.50122119  0.00457747
   0.00840489  0.75394307  0.99997984
   0.24308704  0.76535364  0.00344449
   0.50775037  0.75283307  0.99462829
   0.75113100  0.74313325  0.01896334
   0.99779879  0.99465561  0.25937205
   0.24091259  0.99549371  0.25079216
   0.49622380  0.00297010  0.24799086
   0.75800179  0.99685286  0.24867957
   0.00873236  0.24057933  0.25023004
   0.24531238  0.24755073  0.26181592
   0.49473241  0.24530453  0.24896093
   0.74745450  0.26338132  0.24660913
   0.00396772  0.49559113  0.24640798
   0.24957476  0.49560013  0.25420692
   0.49458261  0.50279506  0.23977519
   0.74633076  0.50220134  0.25174816
   0.00346610  0.73799617  0.24954651
   0.24823902  0.74939484  0.24833852
   0.50536885  0.75652106  0.24335456
   0.75205630  0.74292101  0.25725556
   0.01536465  0.99040016  0.49408241
   0.26474747  0.99948050  0.49310716
   0.49858458  0.00035085  0.48445937
   0.74277709  0.99919795  0.50377782
   0.99255396  0.25495200  0.49889535
   0.24370401  0.24845719  0.50481710
   0.51585403  0.24991694  0.48997028
   0.74946109  0.25981436  0.49354846
   0.99593447  0.50362359  0.49750659
   0.25100234  0.50375317  0.49087942
   0.49980591  0.48898320  0.50151232
   0.75234211  0.50079639  0.49457429
   0.99138494  0.75815973  0.49756376
   0.25249092  0.74449567  0.50971794
   0.51117481  0.75948517  0.48939628
   0.76183191  0.75316767  0.48867952
   0.01163710  0.99131200  0.74091222
   0.25723687  0.99990826  0.75417470
   0.49443016  0.00037722  0.74006948
   0.75313864  0.00212640  0.74815477
   0.00247124  0.24760542  0.74410149
   0.25314298  0.25222081  0.75308509
   0.50716757  0.25086474  0.74482446
   0.75420764  0.25621147  0.75231054
   0.98892421  0.50423132  0.75451696
   0.25178517  0.50231294  0.75143810
   0.48989187  0.50826814  0.75295049
   0.74954212  0.49306214  0.74310824
   0.00142298  0.74228186  0.75423748
   0.24693480  0.75716347  0.75416688
   0.49885707  0.75130705  0.75216922
   0.74796928  0.75043705  0.75241266
   0.06680846  0.06062949  0.05838534
   0.31723455  0.04726519  0.06962524
   0.55763574  0.08143733  0.06003303
   0.82555819  0.05214207  0.05302640
   0.05956727  0.31730479  0.06676170
   0.30759061  0.31706187  0.07382925
   0.56040282  0.32881008  0.05502015
   0.81049740  0.31385087  0.06751107
   0.05762974  0.56252656  0.06572546
   0.32011733  0.56133950  0.05416556
   0.55461600  0.56377298  0.06186462
   0.81469667  0.56911098  0.06790634
   0.05319200  0.82236929  0.06620296
   0.31549108  0.81681931  0.05506104
   0.55646029  0.81566296  0.07067729
   0.82360360  0.81445521  0.05246511
   0.07212568  0.05864814  0.31108346
   0.30105212  0.06763937  0.30943973
   0.55601228  0.06555554  0.30623607
   0.81849582  0.05643738  0.31313180
   0.05845911  0.31297718  0.31468320
   0.30831425  0.31402679  0.31294082
   0.56560177  0.32630764  0.31072397
   0.80708982  0.31930121  0.30813783
   0.06923612  0.55298672  0.30244228
   0.31312940  0.56458743  0.31682713
   0.56661302  0.55299614  0.31945756
   0.81074374  0.57394274  0.30516974
   0.06305957  0.80465642  0.31127250
   0.31059656  0.81196357  0.30539674
   0.55948342  0.82197615  0.30800990
   0.81701192  0.80819802  0.30794596
   0.05303792  0.07827891  0.56347085
   0.31704440  0.06748711  0.55101882
   0.56146224  0.06338531  0.55790350
   0.82599724  0.05736451  0.55630062
   0.06056897  0.30957987  0.57236257
   0.32076878  0.31535528  0.55065511
   0.56729530  0.31299947  0.56632659
   0.80607978  0.31702536  0.57203330
   0.06076506  0.56576324  0.55279324
   0.29544808  0.57315751  0.56773967
   0.56455890  0.55057734  0.56595264
   0.81486281  0.56879404  0.55533249
   0.06575218  0.80907439  0.56184392
   0.31982010  0.80404122  0.55866733
   0.56418808  0.81096649  0.56828018
   0.81397895  0.80740396  0.55987488
   0.06494978  0.05539370  0.81376675
   0.31977634  0.05895718  0.80985196
   0.56630601  0.05113386  0.82290998
   0.81928001  0.06422718  0.81510624
   0.05667562  0.31166370  0.81816815
   0.31645036  0.30982586  0.81108709
   0.55898037  0.32247555  0.80826818
   0.82170005  0.30508392  0.81106124
   0.06512729  0.56138227  0.82086551
   0.30401669  0.56947101  0.81727151
   0.55691713  0.56185993  0.81910970
   0.80938792  0.56003407  0.81870133
   0.05417599  0.80929432  0.82201870
   0.30932412  0.81173524  0.81116695
   0.55822343  0.81090487  0.81076800
   0.81221970  0.80677788  0.80641259
