 128 128   0   0
  0.2044346E+02  0.1546773E-08  0.1546773E-08  0.1546773E-08  0.5000000E-15
  1.000000000000000E-004
  CAR 
 potpaw_PBE@./ARUN.APL1ZEROSTATE         
      9.35818456     -7.06742501  301      5.97724659      1.00000000
     -7.067  0.0000E+00  0.0000E+00
     -7.013  0.0000E+00  0.0000E+00
     -6.958  0.0000E+00  0.0000E+00
     -6.903  0.0000E+00  0.0000E+00
     -6.848  0.0000E+00  0.0000E+00
     -6.794  0.0000E+00  0.0000E+00
     -6.739  0.0000E+00  0.0000E+00
     -6.684  0.0000E+00  0.0000E+00
     -6.629  0.0000E+00  0.0000E+00
     -6.575  0.0000E+00  0.0000E+00
     -6.520  0.0000E+00  0.0000E+00
     -6.465  0.0000E+00  0.0000E+00
     -6.410  0.0000E+00  0.0000E+00
     -6.356  0.1902E-05  0.1041E-06
     -6.301  0.4555E+01  0.2494E+00
     -6.246  0.1111E-01  0.2500E+00
     -6.191  0.4411E+01  0.4915E+00
     -6.137  0.1312E+02  0.1210E+01
     -6.082  0.2797E+02  0.2742E+01
     -6.027  0.1321E+02  0.3465E+01
     -5.972  0.5211E+01  0.3750E+01
     -5.918  0.8154E-02  0.3750E+01
     -5.863  0.6181E+01  0.4089E+01
     -5.808  0.2096E+02  0.5236E+01
     -5.753  0.5457E+01  0.5535E+01
     -5.699  0.3778E+02  0.7604E+01
     -5.644  0.3973E+02  0.9779E+01
     -5.589  0.1668E+02  0.1069E+02
     -5.534  0.2861E+02  0.1226E+02
     -5.480  0.1986E+02  0.1335E+02
     -5.425  0.1990E+02  0.1444E+02
     -5.370  0.5730E+01  0.1475E+02
     -5.315  0.1628E+01  0.1484E+02
     -5.261  0.3570E+01  0.1503E+02
     -5.206  0.1968E+02  0.1611E+02
     -5.151  0.5293E+02  0.1901E+02
     -5.096  0.2230E+02  0.2023E+02
     -5.042  0.4874E+02  0.2290E+02
     -4.987  0.4218E+02  0.2521E+02
     -4.932  0.4221E+02  0.2752E+02
     -4.877  0.1341E+02  0.2826E+02
     -4.823  0.2373E+02  0.2955E+02
     -4.768  0.2061E+02  0.3068E+02
     -4.713  0.4285E+02  0.3303E+02
     -4.658  0.2936E+02  0.3464E+02
     -4.604  0.4656E+02  0.3719E+02
     -4.549  0.3519E+02  0.3911E+02
     -4.494  0.2782E+02  0.4064E+02
     -4.439  0.2061E+02  0.4176E+02
     -4.385  0.2904E+02  0.4335E+02
     -4.330  0.2808E+02  0.4489E+02
     -4.275  0.3617E+02  0.4687E+02
     -4.220  0.5759E+02  0.5003E+02
     -4.166  0.6324E+02  0.5349E+02
     -4.111  0.4870E+02  0.5615E+02
     -4.056  0.5298E+02  0.5906E+02
     -4.001  0.5416E+02  0.6202E+02
     -3.947  0.4107E+02  0.6427E+02
     -3.892  0.4942E+02  0.6698E+02
     -3.837  0.4635E+02  0.6951E+02
     -3.782  0.6031E+02  0.7282E+02
     -3.728  0.3851E+02  0.7492E+02
     -3.673  0.4172E+02  0.7721E+02
     -3.618  0.3418E+02  0.7908E+02
     -3.563  0.2806E+02  0.8062E+02
     -3.509  0.4525E+02  0.8309E+02
     -3.454  0.5138E+02  0.8591E+02
     -3.399  0.5408E+02  0.8887E+02
     -3.344  0.4356E+02  0.9125E+02
     -3.290  0.5523E+02  0.9428E+02
     -3.235  0.2473E+02  0.9563E+02
     -3.180  0.2518E+02  0.9701E+02
     -3.125  0.5346E+02  0.9994E+02
     -3.071  0.3053E+02  0.1016E+03
     -3.016  0.4668E+02  0.1042E+03
     -2.961  0.5085E+02  0.1069E+03
     -2.906  0.3862E+02  0.1091E+03
     -2.852  0.3105E+02  0.1108E+03
     -2.797  0.3168E+02  0.1125E+03
     -2.742  0.4456E+02  0.1149E+03
     -2.687  0.2308E+02  0.1162E+03
     -2.633  0.3584E+02  0.1182E+03
     -2.578  0.3713E+02  0.1202E+03
     -2.523  0.2845E+02  0.1218E+03
     -2.468  0.7080E+01  0.1221E+03
     -2.414  0.1110E+02  0.1227E+03
     -2.359  0.1796E+01  0.1228E+03
     -2.304  0.2807E+01  0.1230E+03
     -2.249  0.1261E+02  0.1237E+03
     -2.194  0.1902E+02  0.1247E+03
     -2.140  0.3306E+02  0.1265E+03
     -2.085  0.2817E+02  0.1281E+03
     -2.030  0.3516E+02  0.1300E+03
     -1.975  0.1566E+02  0.1309E+03
     -1.921  0.2089E+02  0.1320E+03
     -1.866  0.1216E+02  0.1327E+03
     -1.811  0.1303E+01  0.1328E+03
     -1.756  0.4566E+01  0.1330E+03
     -1.702  0.4576E+01  0.1333E+03
     -1.647  0.9321E+01  0.1338E+03
     -1.592  0.2786E+02  0.1353E+03
     -1.537  0.4162E+02  0.1376E+03
     -1.483  0.3964E+02  0.1397E+03
     -1.428  0.3442E+02  0.1416E+03
     -1.373  0.3981E+02  0.1438E+03
     -1.318  0.4124E+02  0.1461E+03
     -1.264  0.7905E+02  0.1504E+03
     -1.209  0.6226E+02  0.1538E+03
     -1.154  0.6720E+02  0.1575E+03
     -1.099  0.5581E+02  0.1605E+03
     -1.045  0.6427E+02  0.1640E+03
     -0.990  0.6066E+02  0.1674E+03
     -0.935  0.6837E+02  0.1711E+03
     -0.880  0.5428E+02  0.1741E+03
     -0.826  0.6324E+02  0.1775E+03
     -0.771  0.6432E+02  0.1811E+03
     -0.716  0.3884E+02  0.1832E+03
     -0.661  0.2975E+02  0.1848E+03
     -0.607  0.4210E+02  0.1871E+03
     -0.552  0.3331E+02  0.1890E+03
     -0.497  0.2958E+02  0.1906E+03
     -0.442  0.6349E+01  0.1909E+03
     -0.388  0.2952E+02  0.1925E+03
     -0.333  0.5374E+02  0.1955E+03
     -0.278  0.3832E+02  0.1976E+03
     -0.223  0.5605E+02  0.2006E+03
     -0.169  0.6421E+02  0.2042E+03
     -0.114  0.4684E+02  0.2067E+03
     -0.059  0.3874E+02  0.2088E+03
     -0.004  0.3873E+02  0.2110E+03
      0.050  0.2670E+02  0.2124E+03
      0.105  0.2188E+02  0.2136E+03
      0.160  0.1184E+02  0.2143E+03
      0.215  0.8354E+01  0.2147E+03
      0.269  0.1751E+02  0.2157E+03
      0.324  0.1771E+02  0.2167E+03
      0.379  0.3185E+02  0.2184E+03
      0.434  0.2453E+02  0.2197E+03
      0.488  0.2344E+02  0.2210E+03
      0.543  0.2354E+02  0.2223E+03
      0.598  0.2812E+02  0.2239E+03
      0.653  0.2098E+02  0.2250E+03
      0.707  0.1264E+02  0.2257E+03
      0.762  0.1495E+02  0.2265E+03
      0.817  0.1966E+02  0.2276E+03
      0.872  0.5767E+01  0.2279E+03
      0.926  0.1405E+02  0.2287E+03
      0.981  0.2430E+02  0.2300E+03
      1.036  0.2982E+02  0.2316E+03
      1.091  0.3620E+02  0.2336E+03
      1.145  0.1948E+02  0.2347E+03
      1.200  0.2454E+02  0.2360E+03
      1.255  0.2301E+02  0.2373E+03
      1.310  0.2589E+02  0.2387E+03
      1.364  0.3121E+02  0.2404E+03
      1.419  0.4883E+02  0.2431E+03
      1.474  0.7779E+02  0.2474E+03
      1.529  0.7199E+02  0.2513E+03
      1.583  0.7952E+02  0.2557E+03
      1.638  0.8509E+02  0.2603E+03
      1.693  0.7305E+02  0.2643E+03
      1.748  0.4982E+02  0.2670E+03
      1.802  0.4469E+02  0.2695E+03
      1.857  0.4665E+02  0.2720E+03
      1.912  0.2601E+02  0.2735E+03
      1.967  0.2340E+02  0.2747E+03
      2.021  0.4034E+02  0.2770E+03
      2.076  0.7623E+02  0.2811E+03
      2.131  0.8895E+02  0.2860E+03
      2.186  0.9734E+02  0.2913E+03
      2.240  0.1118E+03  0.2974E+03
      2.295  0.1214E+03  0.3041E+03
      2.350  0.1093E+03  0.3101E+03
      2.405  0.9233E+02  0.3151E+03
      2.459  0.7494E+02  0.3192E+03
      2.514  0.4957E+02  0.3220E+03
      2.569  0.2705E+02  0.3234E+03
      2.624  0.6314E+02  0.3269E+03
      2.678  0.6776E+02  0.3306E+03
      2.733  0.7944E+02  0.3349E+03
      2.788  0.9178E+02  0.3400E+03
      2.843  0.8961E+02  0.3449E+03
      2.897  0.9164E+02  0.3499E+03
      2.952  0.9925E+02  0.3553E+03
      3.007  0.9030E+02  0.3603E+03
      3.062  0.8875E+02  0.3651E+03
      3.116  0.9181E+02  0.3702E+03
      3.171  0.7349E+02  0.3742E+03
      3.226  0.8528E+02  0.3789E+03
      3.281  0.8912E+02  0.3837E+03
      3.335  0.8742E+02  0.3885E+03
      3.390  0.9153E+02  0.3935E+03
      3.445  0.1037E+03  0.3992E+03
      3.500  0.8412E+02  0.4038E+03
      3.554  0.8210E+02  0.4083E+03
      3.609  0.7505E+02  0.4124E+03
      3.664  0.6856E+02  0.4162E+03
      3.719  0.6202E+02  0.4196E+03
      3.773  0.9150E+02  0.4246E+03
      3.828  0.8020E+02  0.4290E+03
      3.883  0.8940E+02  0.4339E+03
      3.938  0.8520E+02  0.4385E+03
      3.992  0.5392E+02  0.4415E+03
      4.047  0.7243E+02  0.4454E+03
      4.102  0.7072E+02  0.4493E+03
      4.157  0.7468E+02  0.4534E+03
      4.211  0.7613E+02  0.4576E+03
      4.266  0.5510E+02  0.4606E+03
      4.321  0.6241E+02  0.4640E+03
      4.376  0.7513E+02  0.4681E+03
      4.431  0.7761E+02  0.4724E+03
      4.485  0.6484E+02  0.4759E+03
      4.540  0.6767E+02  0.4796E+03
      4.595  0.5925E+02  0.4829E+03
      4.650  0.5383E+02  0.4858E+03
      4.704  0.4236E+02  0.4881E+03
      4.759  0.2994E+02  0.4898E+03
      4.814  0.2178E+02  0.4910E+03
      4.869  0.2359E+02  0.4923E+03
      4.923  0.4217E+02  0.4946E+03
      4.978  0.3727E+02  0.4966E+03
      5.033  0.5743E+02  0.4998E+03
      5.088  0.3054E+02  0.5014E+03
      5.142  0.2059E+02  0.5026E+03
      5.197  0.1952E+02  0.5036E+03
      5.252  0.6695E+01  0.5040E+03
      5.307  0.6662E+01  0.5044E+03
      5.361  0.1071E+02  0.5049E+03
      5.416  0.2965E+02  0.5066E+03
      5.471  0.2470E+02  0.5079E+03
      5.526  0.8786E+01  0.5084E+03
      5.580  0.2202E+02  0.5096E+03
      5.635  0.1169E+02  0.5102E+03
      5.690  0.6737E+01  0.5106E+03
      5.745  0.7855E+01  0.5110E+03
      5.799  0.1273E+02  0.5117E+03
      5.854  0.1134E+00  0.5118E+03
      5.909  0.1523E-01  0.5118E+03
      5.964  0.4551E+01  0.5120E+03
      6.018  0.0000E+00  0.5120E+03
      6.073  0.1503E-07  0.5120E+03
      6.128  0.9001E+01  0.5125E+03
      6.183  0.1765E+02  0.5135E+03
      6.237  0.2114E+02  0.5146E+03
      6.292  0.7644E+01  0.5150E+03
      6.347  0.2378E+02  0.5163E+03
      6.402  0.2372E+02  0.5176E+03
      6.456  0.2726E+02  0.5191E+03
      6.511  0.1796E+02  0.5201E+03
      6.566  0.1908E+02  0.5212E+03
      6.621  0.1621E+02  0.5220E+03
      6.675  0.1207E+02  0.5227E+03
      6.730  0.4189E+02  0.5250E+03
      6.785  0.3577E+02  0.5270E+03
      6.840  0.2651E+02  0.5284E+03
      6.894  0.2980E+02  0.5300E+03
      6.949  0.3753E+02  0.5321E+03
      7.004  0.5114E+02  0.5349E+03
      7.059  0.3935E+02  0.5370E+03
      7.113  0.3634E+02  0.5390E+03
      7.168  0.1707E+02  0.5400E+03
      7.223  0.4622E+02  0.5425E+03
      7.278  0.6859E+02  0.5463E+03
      7.332  0.7294E+02  0.5503E+03
      7.387  0.6720E+02  0.5539E+03
      7.442  0.8217E+02  0.5584E+03
      7.497  0.7877E+02  0.5627E+03
      7.551  0.9907E+02  0.5682E+03
      7.606  0.8648E+02  0.5729E+03
      7.661  0.7643E+02  0.5771E+03
      7.716  0.9638E+02  0.5824E+03
      7.770  0.8049E+02  0.5868E+03
      7.825  0.9948E+02  0.5922E+03
      7.880  0.8463E+02  0.5969E+03
      7.935  0.9754E+02  0.6022E+03
      7.989  0.8824E+02  0.6070E+03
      8.044  0.9628E+02  0.6123E+03
      8.099  0.8448E+02  0.6169E+03
      8.154  0.7099E+02  0.6208E+03
      8.208  0.7719E+02  0.6250E+03
      8.263  0.9291E+02  0.6301E+03
      8.318  0.7750E+02  0.6344E+03
      8.373  0.7583E+02  0.6385E+03
      8.427  0.6113E+02  0.6419E+03
      8.482  0.2533E+02  0.6432E+03
      8.537  0.3824E+01  0.6435E+03
      8.592  0.5322E+01  0.6438E+03
      8.646  0.4555E+01  0.6440E+03
      8.701  0.0000E+00  0.6440E+03
      8.756  0.0000E+00  0.6440E+03
      8.811  0.0000E+00  0.6440E+03
      8.865  0.0000E+00  0.6440E+03
      8.920  0.0000E+00  0.6440E+03
      8.975  0.0000E+00  0.6440E+03
      9.030  0.0000E+00  0.6440E+03
      9.084  0.0000E+00  0.6440E+03
      9.139  0.0000E+00  0.6440E+03
      9.194  0.0000E+00  0.6440E+03
      9.249  0.0000E+00  0.6440E+03
      9.303  0.0000E+00  0.6440E+03
      9.358  0.0000E+00  0.6440E+03
