 vasp.5.4.4.18Apr17-6-g9f103f2a35 (build Nov 08 2017 09:05:29) complex          
  
 executed on          Intel_17.33 date 2020.07.18  20:42:35
 running on   32 total cores
 distrk:  each k-point on   32 cores,    1 groups
 distr:  one band on NCORES_PER_BAND=  16 cores,    2 groups


--------------------------------------------------------------------------------------------------------


 INCAR:
 POTCAR:   PAW_PBE Si 05Jan2001                   

 ----------------------------------------------------------------------------- 
|                                                                             |
|           W    W    AA    RRRRR   N    N  II  N    N   GGGG   !!!           |
|           W    W   A  A   R    R  NN   N  II  NN   N  G    G  !!!           |
|           W    W  A    A  R    R  N N  N  II  N N  N  G       !!!           |
|           W WW W  AAAAAA  RRRRR   N  N N  II  N  N N  G  GGG   !            |
|           WW  WW  A    A  R   R   N   NN  II  N   NN  G    G                |
|           W    W  A    A  R    R  N    N  II  N    N   GGGG   !!!           |
|                                                                             |
|      For optimal performance we recommend to set                            |
|        NCORE= 4 - approx SQRT( number of cores)                             |
|      NCORE specifies how many cores store one orbital (NPAR=cpu/NCORE).     |
|      This setting can  greatly improve the performance of VASP for DFT.     |
|      The default,   NCORE=1            might be grossly inefficient         |
|      on modern multi-core architectures or massively parallel machines.     |
|      Do your own testing !!!!                                               |
|      Unfortunately you need to use the default for GW and RPA calculations. |
|      (for HF NCORE is supported but not extensively tested yet)             |
|                                                                             |
 ----------------------------------------------------------------------------- 

 POTCAR:   PAW_PBE Si 05Jan2001                   
   VRHFIN =Si: s2p2                                                             
   LEXCH  = PE                                                                  
   EATOM  =   103.0669 eV,    7.5752 Ry                                         
                                                                                
   TITEL  = PAW_PBE Si 05Jan2001                                                
   LULTRA =        F    use ultrasoft PP ?                                      
   IUNSCR =        1    unscreen: 0-lin 1-nonlin 2-no                           
   RPACOR =    1.500    partial core radius                                     
   POMASS =   28.085; ZVAL   =    4.000    mass and valenz                      
   RCORE  =    1.900    outmost cutoff radius                                   
   RWIGS  =    2.480; RWIGS  =    1.312    wigner-seitz radius (au A)           
   ENMAX  =  245.345; ENMIN  =  184.009 eV                                      
   ICORE  =        2    local potential                                         
   LCOR   =        T    correct aug charges                                     
   LPAW   =        T    paw PP                                                  
   EAUG   =  322.069                                                            
   DEXC   =    -.007                                                            
   RMAX   =    2.944    core radius for proj-oper                               
   RAUG   =    1.300    factor for augmentation sphere                          
   RDEP   =    1.993    radius for radial grids                                 
   QCUT   =   -4.246; QGAM   =    8.493    optimization parameters              
                                                                                
   Description                                                                  
     l     E      TYP  RCUT    TYP  RCUT                                        
     0   .000     23  1.900                                                     
     0   .000     23  1.900                                                     
     1   .000     23  1.900                                                     
     1   .000     23  1.900                                                     
     2   .000      7  1.900                                                     
  local pseudopotential read in
  partial core-charges read in
  atomic valenz-charges read in
  non local Contribution for L=           0  read in
    real space projection operators read in
  non local Contribution for L=           0  read in
    real space projection operators read in
  non local Contribution for L=           1  read in
    real space projection operators read in
  non local Contribution for L=           1  read in
    real space projection operators read in
    PAW grid and wavefunctions read in
 
   number of l-projection  operators is LMAX  =           4
   number of lm-projection operators is LMMAX =           8
 

 ----------------------------------------------------------------------------- 
|                                                                             |
|  ADVICE TO THIS USER RUNNING 'VASP/VAMP'   (HEAR YOUR MASTER'S VOICE ...):  |
|                                                                             |
|      You have a (more or less) 'large supercell' and for larger cells       |
|      it might be more efficient to use real space projection operators      |
|      So try LREAL= Auto  in the INCAR   file.                               |
|      Mind: If you want to do a very accurate calculations keep the          |
|      reciprocal projection scheme          (i.e. LREAL=.FALSE.)             |
|                                                                             |
 ----------------------------------------------------------------------------- 

 PAW_PBE Si 05Jan2001                   :
 energy of atom  1       EATOM= -103.0669
 kinetic energy error for atom=    0.0006 (will be added to EATOM!!)
 
 
 POSCAR: kk                                      
  positions in direct lattice
  No initial velocities read in
 exchange correlation table for  LEXCH =        8
   RHO(1)=    0.500       N(1)  =     2000
   RHO(2)=  100.500       N(2)  =     4000
 


--------------------------------------------------------------------------------------------------------


 ion  position               nearest neighbor table
   1  0.002  0.003  0.999-  65 2.27  68 2.39 113 2.41  77 2.47
   2  0.239  0.994  0.010-  65 2.21  78 2.31 114 2.47  66 2.50
   3  0.496  0.020  0.994- 115 2.21  67 2.23  66 2.32  79 2.79
   4  0.743  0.012  0.991- 116 2.26  67 2.30  68 2.43  80 2.60
   5  0.988  0.253  0.006-  72 2.22  69 2.22 117 2.36  65 2.42
   6  0.252  0.250  0.991-  66 2.22 118 2.30  70 2.31  69 2.39
   7  0.499  0.247  0.996-  67 2.29 119 2.39  70 2.44  71 2.45
   8  0.748  0.244  0.006-  72 2.27  68 2.29  71 2.36 120 2.43
   9  0.996  0.506  0.997-  76 2.28  73 2.31 121 2.31  69 2.54
  10  0.250  0.509  0.994-  73 2.28  70 2.43  74 2.46 122 2.46
  11  0.484  0.509  0.014-  74 2.26  75 2.33  71 2.44 123 2.58
  12  0.753  0.511  0.992-  76 2.24 124 2.25  75 2.31  72 2.72
  13  0.994  0.744  0.016-  77 2.16  80 2.30  73 2.35 125 2.62
  14  0.246  0.749  0.002-  74 2.19  78 2.26  77 2.33 126 2.43
  15  0.496  0.755  0.993- 127 2.26  78 2.35  75 2.37  79 2.37
  16  0.751  0.756  0.998- 128 2.21  80 2.24  79 2.25  76 2.45
  17  0.998  0.998  0.243-  93 2.29  65 2.35  84 2.43  81 2.71
  18  0.252  0.016  0.244-  81 2.23  82 2.28  66 2.42  94 2.53
  19  0.507  0.993  0.248-  95 2.32  67 2.38  82 2.42  83 2.44
  20  0.760  0.993  0.244-  84 2.26  96 2.28  68 2.29  83 2.38
  21  0.005  0.254  0.233-  69 2.25  81 2.33  88 2.38  85 2.52
  22  0.248  0.257  0.239-  85 2.32  70 2.36  86 2.37  82 2.43
  23  0.505  0.251  0.252-  87 2.22  71 2.45  83 2.48  86 2.50
  24  0.753  0.245  0.253-  88 2.27  72 2.34  84 2.38  87 2.42
  25  0.003  0.501  0.233-  73 2.29  92 2.39  89 2.45  85 2.45
  26  0.244  0.494  0.264-  89 2.30  86 2.32  90 2.43  74 2.51
  27  0.500  0.493  0.249-  87 2.32  90 2.35  75 2.50  91 2.53
  28  0.753  0.495  0.255-  92 2.33  88 2.36  91 2.53  76 2.54
  29  0.998  0.745  0.248-  89 2.32  96 2.38  77 2.45  93 2.47
  30  0.245  0.750  0.248-  93 2.35  90 2.41  78 2.44  94 2.50
  31  0.514  0.750  0.241-  79 2.33  91 2.37  95 2.37  94 2.62
  32  0.746  0.746  0.255-  96 2.28  95 2.29  92 2.31  80 2.44
  33  0.994  1.000  0.493-  81 2.38 109 2.38 100 2.40  97 2.62
  34  0.258  0.992  0.501- 110 2.35  82 2.39  97 2.51  98 2.52
  35  0.496  0.996  0.500- 111 2.24  98 2.34  83 2.36  99 2.60
  36  0.761  0.993  0.497- 100 2.25 112 2.29  84 2.35  99 2.47
  37  0.991  0.258  0.500- 104 2.27  85 2.33  97 2.43 101 2.50
  38  0.243  0.248  0.487-  86 2.21 101 2.31  98 2.33 102 2.73
  39  0.508  0.251  0.488-  87 2.21  99 2.34 102 2.38 103 2.42
  40  0.742  0.251  0.509- 104 2.33 103 2.46 100 2.47  88 2.60
  41  0.982  0.511  0.511- 108 2.29 105 2.50 101 2.52  89 2.60
  42  0.245  0.505  0.499-  90 2.26 105 2.29 106 2.56 102 2.57
  43  0.498  0.500  0.504- 103 2.28  91 2.29 107 2.30 106 2.43
  44  0.757  0.491  0.507- 104 2.27 107 2.30 108 2.32  92 2.50
  45  0.001  0.758  0.485-  93 2.20 112 2.37 109 2.43 105 2.44
  46  0.241  0.753  0.503- 106 2.18 109 2.24 110 2.28  94 2.34
  47  0.503  0.737  0.501-  95 2.30 107 2.32 110 2.41 111 2.60
  48  0.741  0.748  0.498- 108 2.17 111 2.24 112 2.41  96 2.44
  49  0.998  0.993  0.763- 125 2.28 116 2.34 113 2.43  97 2.45
  50  0.237  0.993  0.758- 113 2.25 114 2.37  98 2.39 126 2.41
  51  0.498  0.004  0.760- 115 2.23 127 2.32  99 2.45 114 2.50
  52  0.750  0.996  0.748- 100 2.28 128 2.44 116 2.50 115 2.58
  53  0.998  0.246  0.753- 113 2.16 101 2.29 117 2.34 120 2.40
  54  0.242  0.249  0.751- 102 2.29 117 2.34 114 2.41 118 2.44
  55  0.504  0.253  0.758- 119 2.19 115 2.30 103 2.38 118 2.45
  56  0.737  0.271  0.760- 120 2.19 119 2.24 104 2.49 116 2.59
  57  0.000  0.503  0.753- 105 2.31 121 2.33 124 2.40 117 2.50
  58  0.254  0.494  0.745- 122 2.25 118 2.26 106 2.31 121 2.47
  59  0.495  0.513  0.742- 123 2.29 107 2.39 119 2.45 122 2.52
  60  0.743  0.502  0.755- 123 2.25 120 2.33 124 2.34 108 2.49
  61  0.008  0.747  0.743- 125 2.26 121 2.27 109 2.31 128 2.39
  62  0.238  0.750  0.762- 122 2.25 126 2.31 125 2.32 110 2.56
  63  0.499  0.751  0.746- 126 2.27 111 2.32 123 2.49 127 2.51
  64  0.745  0.765  0.746- 127 2.36 128 2.43 112 2.46 124 2.59
  65  0.065  0.062  0.057-   2 2.21   1 2.27  17 2.35   5 2.42
  66  0.313  0.074  0.052-   6 2.22   3 2.32  18 2.42   2 2.50
  67  0.561  0.065  0.060-   3 2.23   7 2.29   4 2.30  19 2.38
  68  0.813  0.063  0.063-   8 2.29  20 2.29   1 2.39   4 2.43
  69  0.063  0.305  0.055-   5 2.22  21 2.25   6 2.39   9 2.54
  70  0.306  0.317  0.053-   6 2.31  22 2.36  10 2.43   7 2.44
  71  0.561  0.317  0.058-   8 2.36  11 2.44  23 2.45   7 2.45
  72  0.813  0.296  0.069-   5 2.22   8 2.27  24 2.34  12 2.72
  73  0.070  0.560  0.051-  10 2.28  25 2.29   9 2.31  13 2.35
  74  0.305  0.576  0.066-  14 2.19  11 2.26  10 2.46  26 2.51
  75  0.569  0.568  0.051-  12 2.31  11 2.33  15 2.37  27 2.50
  76  0.816  0.562  0.055-  12 2.24   9 2.28  16 2.45  28 2.54
  77  0.062  0.808  0.053-  13 2.16  14 2.33  29 2.45   1 2.47
  78  0.310  0.812  0.054-  14 2.26   2 2.31  15 2.35  30 2.44
  79  0.573  0.800  0.058-  16 2.25  31 2.33  15 2.37   3 2.79
  80  0.813  0.806  0.062-  16 2.24  13 2.30  32 2.44   4 2.60
  81  0.075  0.071  0.307-  18 2.23  21 2.33  33 2.38  17 2.71
  82  0.315  0.065  0.312-  18 2.28  34 2.39  19 2.42  22 2.43
  83  0.572  0.055  0.314-  35 2.36  20 2.38  19 2.44  23 2.48
  84  0.806  0.057  0.312-  20 2.26  36 2.35  24 2.38  17 2.43
  85  0.066  0.309  0.316-  22 2.32  37 2.33  25 2.45  21 2.52
  86  0.308  0.311  0.312-  38 2.21  26 2.32  22 2.37  23 2.50
  87  0.561  0.309  0.313-  39 2.21  23 2.22  27 2.32  24 2.42
  88  0.817  0.309  0.304-  24 2.27  28 2.36  21 2.38  40 2.60
  89  0.063  0.562  0.306-  26 2.30  29 2.32  25 2.45  41 2.60
  90  0.315  0.560  0.321-  42 2.26  27 2.35  30 2.41  26 2.43
  91  0.553  0.565  0.323-  43 2.29  31 2.37  27 2.53  28 2.53
  92  0.815  0.564  0.310-  32 2.31  28 2.33  25 2.39  44 2.50
  93  0.059  0.817  0.311-  45 2.20  17 2.29  30 2.35  29 2.47
  94  0.307  0.816  0.318-  46 2.34  30 2.50  18 2.53  31 2.62
  95  0.564  0.809  0.319-  32 2.29  47 2.30  19 2.32  31 2.37
  96  0.810  0.813  0.304-  32 2.28  20 2.28  29 2.38  48 2.44
  97  0.059  0.066  0.569-  37 2.43  49 2.45  34 2.51  33 2.62
  98  0.312  0.067  0.570-  38 2.33  35 2.34  50 2.39  34 2.52
  99  0.565  0.066  0.566-  39 2.34  51 2.45  36 2.47  35 2.60
 100  0.805  0.056  0.568-  36 2.25  52 2.28  33 2.40  40 2.47
 101  0.063  0.312  0.572-  53 2.29  38 2.31  37 2.50  41 2.52
 102  0.321  0.302  0.571-  54 2.29  39 2.38  42 2.57  38 2.73
 103  0.548  0.319  0.570-  43 2.28  55 2.38  39 2.42  40 2.46
 104  0.811  0.312  0.565-  44 2.27  37 2.27  40 2.33  56 2.49
 105  0.064  0.566  0.570-  42 2.29  57 2.31  45 2.44  41 2.50
 106  0.306  0.580  0.564-  46 2.18  58 2.31  43 2.43  42 2.56
 107  0.575  0.553  0.554-  43 2.30  44 2.30  47 2.32  59 2.39
 108  0.801  0.577  0.559-  48 2.17  41 2.29  44 2.32  60 2.49
 109  0.064  0.811  0.561-  46 2.24  61 2.31  33 2.38  45 2.43
 110  0.312  0.806  0.559-  46 2.28  34 2.35  47 2.41  62 2.56
 111  0.564  0.819  0.563-  35 2.24  48 2.24  63 2.32  47 2.60
 112  0.813  0.812  0.553-  36 2.29  45 2.37  48 2.41  64 2.46
 113  0.061  0.076  0.808-  53 2.16  50 2.25   1 2.41  49 2.43
 114  0.302  0.059  0.814-  50 2.37  54 2.41   2 2.47  51 2.50
 115  0.547  0.072  0.820-   3 2.21  51 2.23  55 2.30  52 2.58
 116  0.813  0.067  0.812-   4 2.26  49 2.34  52 2.50  56 2.59
 117  0.057  0.305  0.820-  53 2.34  54 2.34   5 2.36  57 2.50
 118  0.311  0.315  0.810-  58 2.26   6 2.30  54 2.44  55 2.45
 119  0.561  0.319  0.807-  55 2.19  56 2.24   7 2.39  59 2.45
 120  0.809  0.318  0.814-  56 2.19  60 2.33  53 2.40   8 2.43
 121  0.059  0.568  0.814-  61 2.27   9 2.31  57 2.33  58 2.47
 122  0.296  0.574  0.800-  62 2.25  58 2.25  10 2.46  59 2.52
 123  0.565  0.554  0.811-  60 2.25  59 2.29  63 2.49  11 2.58
 124  0.811  0.560  0.815-  12 2.25  60 2.34  57 2.40  64 2.59
 125  0.055  0.814  0.808-  61 2.26  49 2.28  62 2.32  13 2.62
 126  0.319  0.803  0.810-  63 2.27  62 2.31  50 2.41  14 2.43
 127  0.559  0.821  0.815-  15 2.26  51 2.32  64 2.36  63 2.51
 128  0.820  0.804  0.824-  16 2.21  61 2.39  64 2.43  52 2.44
 
  LATTYP: Found a face centered cubic cell.
 ALAT       =    21.8746673814
  
  Lattice vectors:
  
 A1 = (   0.0000000000,  10.9373336907,  10.9373336907)
 A2 = (  10.9373336907,   0.0000000000,  10.9373336907)
 A3 = (  10.9373336907,  10.9373336907,   0.0000000000)


Analysis of symmetry for initial positions (statically):
=====================================================================
 Subroutine PRICEL returns:
 Original cell was already a primitive cell.
 

 Routine SETGRP: Setting up the symmetry group for a 
 face centered cubic supercell.


 Subroutine GETGRP returns: Found  1 space group operations
 (whereof  1 operations were pure point group operations)
 out of a pool of 48 trial point group operations.


The static configuration has the point symmetry C_1 .


Analysis of symmetry for dynamics (positions and initial velocities):
=====================================================================
 Subroutine PRICEL returns:
 Original cell was already a primitive cell.
 

 Routine SETGRP: Setting up the symmetry group for a 
 face centered cubic supercell.


 Subroutine GETGRP returns: Found  1 space group operations
 (whereof  1 operations were pure point group operations)
 out of a pool of 48 trial point group operations.


The dynamic configuration has the point symmetry C_1 .


 Subroutine INISYM returns: Found  1 space group operations
 (whereof  1 operations are pure point group operations),
 and found     1 'primitive' translations

 
 
 KPOINTS: KPOINTS File, automatically generated by

Automatic generation of k-mesh.
Space group operators:
 irot       det(A)        alpha          n_x          n_y          n_z        tau_x        tau_y        tau_z
    1     1.000000     0.000001     1.000000     0.000000     0.000000     0.000000     0.000000     0.000000
 
 Subroutine IBZKPT returns following result:
 ===========================================
 
 Found      8 irreducible k-points:
 
 Following reciprocal coordinates:
            Coordinates               Weight
  0.000000  0.000000  0.000000      1.000000
  0.500000  0.000000  0.000000      1.000000
  0.000000  0.500000  0.000000      1.000000
  0.500000  0.500000  0.000000      1.000000
  0.000000  0.000000  0.500000      1.000000
  0.500000  0.000000  0.500000      1.000000
  0.000000  0.500000  0.500000      1.000000
  0.500000  0.500000  0.500000      1.000000
 
 Following cartesian coordinates:
            Coordinates               Weight
  0.000000  0.000000  0.000000      1.000000
 -0.022857  0.022857  0.022857      1.000000
  0.022857 -0.022857  0.022857      1.000000
  0.000000  0.000000  0.045715      1.000000
  0.022857  0.022857 -0.022857      1.000000
  0.000000  0.045715  0.000000      1.000000
  0.045715  0.000000  0.000000      1.000000
  0.022857  0.022857  0.022857      1.000000
 


--------------------------------------------------------------------------------------------------------




 Dimension of arrays:
   k-points           NKPTS =      8   k-points in BZ     NKDIM =      8   number of bands    NBANDS=    322
   number of dos      NEDOS =    301   number of ions     NIONS =    128
   non local maximal  LDIM  =      4   non local SUM 2l+1 LMDIM =      8
   total plane-waves  NPLWV = ******
   max r-space proj   IRMAX =      1   max aug-charges    IRDMAX= 176811
   dimension x,y,z NGX =   120 NGY =  120 NGZ =  120
   dimension x,y,z NGXF=   240 NGYF=  240 NGZF=  240
   support grid    NGXF=   480 NGYF=  480 NGZF=  480
   ions per type =             128
   NGX,Y,Z   is equivalent  to a cutoff of  12.90, 12.90, 12.90 a.u.
   NGXF,Y,Z  is equivalent  to a cutoff of  25.80, 25.80, 25.80 a.u.

 SYSTEM =  potpaw_PBE@./ARUN.APL1ZEROSTATE         
 POSCAR =  kk                                      

 Startparameter for this run:
   NWRITE =      2    write-flag & timer
   PREC   = accura    normal or accurate (medium, high low for compatibility)
   ISTART =      0    job   : 0-new  1-cont  2-samecut
   ICHARG =      2    charge: 1-file 2-atom 10-const
   ISPIN  =      1    spin polarized calculation?
   LNONCOLLINEAR =      F non collinear calculations
   LSORBIT =      F    spin-orbit coupling
   INIWAV =      1    electr: 0-lowe 1-rand  2-diag
   LASPH  =      F    aspherical Exc in radial PAW
   METAGGA=      F    non-selfconsistent MetaGGA calc.

 Electronic Relaxation 1
   ENCUT  =  500.0 eV  36.75 Ry    6.06 a.u.  28.20 28.20 28.20*2*pi/ulx,y,z
   ENINI  =  500.0     initial cutoff
   ENAUG  =  322.1 eV  augmentation charge cutoff
   NELM   =    120;   NELMIN=  4; NELMDL= -5     # of ELM steps 
   EDIFF  = 0.1E-07   stopping-criterion for ELM
   LREAL  =      F    real-space projection
   NLSPLINE    = F    spline interpolate recip. space projectors
   LCOMPAT=      F    compatible to vasp.4.4
   GGA_COMPAT  = T    GGA compatible to vasp.4.4-vasp.4.6
   LMAXPAW     = -100 max onsite density
   LMAXMIX     =    2 max onsite mixed and CHGCAR
   VOSKOWN=      0    Vosko Wilk Nusair interpolation
   ROPT   =    0.00000
 Ionic relaxation
   EDIFFG = 0.1E-06   stopping-criterion for IOM
   NSW    =      0    number of steps for IOM
   NBLOCK =      1;   KBLOCK =      1    inner block; outer block 
   IBRION =     -1    ionic relax: 0-MD 1-quasi-New 2-CG
   NFREE  =      0    steps in history (QN), initial steepest desc. (CG)
   ISIF   =      2    stress and relaxation
   IWAVPR =     10    prediction:  0-non 1-charg 2-wave 3-comb
   ISYM   =      2    0-nonsym 1-usesym 2-fastsym
   LCORR  =      T    Harris-Foulkes like correction to forces

   POTIM  = 0.5000    time-step for ionic-motion
   TEIN   =    0.0    initial temperature
   TEBEG  =    0.0;   TEEND  =   0.0 temperature during run
   SMASS  =  -3.00    Nose mass-parameter (am)
   estimated Nose-frequenzy (Omega)   =  0.10E-29 period in steps =****** mass=  -0.547E-26a.u.
   SCALEE = 1.0000    scale energy and forces
   NPACO  =    256;   APACO  = 16.0  distance and # of slots for P.C.
   PSTRESS=    0.0 pullay stress

  Mass of Ions in am
   POMASS =  28.09
  Ionic Valenz
   ZVAL   =   4.00
  Atomic Wigner-Seitz radii
   RWIGS  =  -1.00
  virtual crystal weights 
   VCA    =   1.00
   NELECT =     512.0000    total number of electrons
   NUPDOWN=      -1.0000    fix difference up-down

 DOS related values:
   EMIN   =  10.00;   EMAX   =-10.00  energy-range for DOS
   EFERMI =   0.00
   ISMEAR =     0;   SIGMA  =   0.01  broadening in eV -4-tet -1-fermi 0-gaus

 Electronic relaxation 2 (details)
   IALGO  =     38    algorithm
   LDIAG  =      T    sub-space diagonalisation (order eigenvalues)
   LSUBROT=      F    optimize rotation matrix (better conditioning)
   TURBO    =      0    0=normal 1=particle mesh
   IRESTART =      0    0=no restart 2=restart with 2 vectors
   NREBOOT  =      0    no. of reboots
   NMIN     =      0    reboot dimension
   EREF     =   0.00    reference energy to select bands
   IMIX   =      4    mixing-type and parameters
     AMIX     =   0.40;   BMIX     =  1.00
     AMIX_MAG =   1.60;   BMIX_MAG =  1.00
     AMIN     =   0.10
     WC   =   100.;   INIMIX=   1;  MIXPRE=   1;  MAXMIX= -45

 Intra band minimization:
   WEIMIN = 0.0000     energy-eigenvalue tresh-hold
   EBREAK =  0.78E-11  absolut break condition
   DEPER  =   0.30     relativ break condition  

   TIME   =   0.40     timestep for ELM

  volume/ion in A,a.u.               =      20.44       137.96
  Fermi-wavevector in a.u.,A,eV,Ry     =   0.950408  1.796010 12.289804  0.903275
  Thomas-Fermi vector in A             =   2.078782
 
 Write flags
   LWAVE        =      F    write WAVECAR
   LDOWNSAMPLE  =      F    k-point downsampling of WAVECAR
   LCHARG       =      F    write CHGCAR
   LVTOT        =      F    write LOCPOT, total local potential
   LVHAR        =      F    write LOCPOT, Hartree potential only
   LELF         =      F    write electronic localiz. function (ELF)
   LORBIT       =      0    0 simple, 1 ext, 2 COOP (PROOUT), +10 PAW based schemes


 Dipole corrections
   LMONO  =      F    monopole corrections only (constant potential shift)
   LDIPOL =      F    correct potential (dipole corrections)
   IDIPOL =      0    1-x, 2-y, 3-z, 4-all directions 
   EPSILON=  1.0000000 bulk dielectric constant

 Exchange correlation treatment:
   GGA     =    --    GGA type
   LEXCH   =     8    internal setting for exchange type
   VOSKOWN=      0    Vosko Wilk Nusair interpolation
   LHFCALC =     F    Hartree Fock is set to
   LHFONE  =     F    Hartree Fock one center treatment
   AEXX    =    0.0000 exact exchange contribution

 Linear response parameters
   LEPSILON=     F    determine dielectric tensor
   LRPA    =     F    only Hartree local field effects (RPA)
   LNABLA  =     F    use nabla operator in PAW spheres
   LVEL    =     F    velocity operator in full k-point grid
   LINTERFAST=   F  fast interpolation
   KINTER  =     0    interpolate to denser k-point grid
   CSHIFT  =0.1000    complex shift for real part using Kramers Kronig
   OMEGAMAX=  -1.0    maximum frequency
   DEG_THRESHOLD= 0.2000000E-02 threshold for treating states as degnerate
   RTIME   =   -0.100 relaxation time in fs
  (WPLASMAI=    0.000 imaginary part of plasma frequency in eV, 0.658/RTIME)
   DFIELD  = 0.0000000 0.0000000 0.0000000 field for delta impulse in time
 
 Orbital magnetization related:
   ORBITALMAG=     F  switch on orbital magnetization
   LCHIMAG   =     F  perturbation theory with respect to B field
   DQ        =  0.001000  dq finite difference perturbation B field
   LLRAUG    =     F  two centre corrections for induced B field



--------------------------------------------------------------------------------------------------------


 Static calculation
 charge density and potential will be updated during run
 non-spin polarized calculation
 Variant of blocked Davidson
 Davidson routine will perform the subspace rotation
 perform sub-space diagonalisation
    after iterative eigenvector-optimisation
 modified Broyden-mixing scheme, WC =      100.0
 initial mixing is a Kerker type mixing with AMIX =  0.4000 and BMIX =      1.0000
 Hartree-type preconditioning will be used
 using additional bands           66
 reciprocal scheme for non local part
 use partial core corrections
 calculate Harris-corrections to forces 
   (improved forces if not selfconsistent)
 use gradient corrections 
 use of overlap-Matrix (Vanderbilt PP)
 Gauss-broadening in eV      SIGMA  =   0.01


--------------------------------------------------------------------------------------------------------


  energy-cutoff  :      500.00
  volume of cell :     2616.76
      direct lattice vectors                 reciprocal lattice vectors
     0.000000000 10.937333691 10.937333691    -0.045714981  0.045714981  0.045714981
    10.937333691  0.000000000 10.937333691     0.045714981 -0.045714981  0.045714981
    10.937333691 10.937333691  0.000000000     0.045714981  0.045714981 -0.045714981

  length of vectors
    15.467725642 15.467725642 15.467725642     0.079180669  0.079180669  0.079180669


 
 k-points in units of 2pi/SCALE and weight: KPOINTS File, automatically generated by
   0.00000000  0.00000000  0.00000000       0.125
  -0.02285749  0.02285749  0.02285749       0.125
   0.02285749 -0.02285749  0.02285749       0.125
   0.00000000  0.00000000  0.04571498       0.125
   0.02285749  0.02285749 -0.02285749       0.125
   0.00000000  0.04571498  0.00000000       0.125
   0.04571498  0.00000000  0.00000000       0.125
   0.02285749  0.02285749  0.02285749       0.125
 
 k-points in reciprocal lattice and weights: KPOINTS File, automatically generated by
   0.00000000  0.00000000  0.00000000       0.125
   0.50000000  0.00000000  0.00000000       0.125
   0.00000000  0.50000000  0.00000000       0.125
   0.50000000  0.50000000  0.00000000       0.125
   0.00000000  0.00000000  0.50000000       0.125
   0.50000000  0.00000000  0.50000000       0.125
   0.00000000  0.50000000  0.50000000       0.125
   0.50000000  0.50000000  0.50000000       0.125
 
 position of ions in fractional coordinates (direct lattice) 
   0.00224555  0.00311066  0.99857419
   0.23938217  0.99384845  0.00960936
   0.49629424  0.02020817  0.99368223
   0.74346206  0.01201511  0.99091069
   0.98803982  0.25301246  0.00628155
   0.25185228  0.25015646  0.99149423
   0.49922326  0.24672633  0.99626359
   0.74766314  0.24422394  0.00637058
   0.99612902  0.50565378  0.99663569
   0.25007815  0.50907429  0.99370179
   0.48380899  0.50861267  0.01367945
   0.75253375  0.51131864  0.99188141
   0.99423378  0.74381100  0.01561641
   0.24591937  0.74946978  0.00168129
   0.49588957  0.75496499  0.99324699
   0.75082273  0.75552755  0.99801197
   0.99836392  0.99770552  0.24279357
   0.25163961  0.01589293  0.24383112
   0.50663220  0.99306969  0.24806195
   0.76028948  0.99254866  0.24374270
   0.00538747  0.25368387  0.23298437
   0.24848573  0.25728638  0.23905146
   0.50543264  0.25111846  0.25163431
   0.75256920  0.24453509  0.25312788
   0.00315418  0.50144175  0.23269961
   0.24405088  0.49435580  0.26403840
   0.49956698  0.49292550  0.24882930
   0.75337562  0.49506555  0.25542169
   0.99810584  0.74538442  0.24762811
   0.24506159  0.74984418  0.24758043
   0.51397774  0.75045401  0.24145474
   0.74560387  0.74617845  0.25493739
   0.99422637  0.99950110  0.49321012
   0.25754757  0.99162596  0.50058973
   0.49574610  0.99554950  0.50047665
   0.76072437  0.99262399  0.49712828
   0.99060495  0.25824478  0.50011425
   0.24297954  0.24792714  0.48678949
   0.50800510  0.25083472  0.48842137
   0.74249439  0.25107731  0.50937049
   0.98200441  0.51052298  0.51084249
   0.24466165  0.50478042  0.49912173
   0.49752739  0.49954451  0.50435552
   0.75675865  0.49086334  0.50729115
   0.00085589  0.75797884  0.48495889
   0.24113999  0.75298990  0.50282381
   0.50271852  0.73710883  0.50063088
   0.74123813  0.74820630  0.49768986
   0.99827598  0.99300501  0.76302579
   0.23739063  0.99257499  0.75775434
   0.49826097  0.00414387  0.76006428
   0.75022510  0.99596159  0.74801777
   0.99796726  0.24628297  0.75288385
   0.24214901  0.24949753  0.75074004
   0.50376042  0.25311483  0.75769234
   0.73705969  0.27085712  0.76041183
   0.00039898  0.50275694  0.75264623
   0.25359132  0.49411090  0.74470261
   0.49497566  0.51298821  0.74175801
   0.74275347  0.50213454  0.75547238
   0.00775557  0.74736111  0.74337304
   0.23812247  0.74995395  0.76185217
   0.49855016  0.75111382  0.74617541
   0.74522380  0.76529107  0.74646507
   0.06499800  0.06176988  0.05675189
   0.31276133  0.07422761  0.05220884
   0.56133038  0.06511033  0.05961072
   0.81305710  0.06309831  0.06252407
   0.06253762  0.30469334  0.05514271
   0.30595723  0.31742864  0.05265055
   0.56139107  0.31674166  0.05812575
   0.81311212  0.29594246  0.06861443
   0.06994491  0.55978411  0.05114189
   0.30516647  0.57629896  0.06608598
   0.56941323  0.56764144  0.05127114
   0.81596429  0.56197492  0.05467888
   0.06206583  0.80819403  0.05339143
   0.30965794  0.81157217  0.05424273
   0.57332252  0.79968412  0.05778310
   0.81261137  0.80644556  0.06209406
   0.07535265  0.07072601  0.30713005
   0.31489242  0.06504707  0.31169577
   0.57216331  0.05452021  0.31396686
   0.80636041  0.05678523  0.31197587
   0.06553786  0.30861820  0.31648860
   0.30781788  0.31146491  0.31247690
   0.56071012  0.30932666  0.31349323
   0.81736688  0.30853915  0.30410635
   0.06269543  0.56210804  0.30596003
   0.31450694  0.55973855  0.32071578
   0.55290946  0.56501669  0.32305193
   0.81485769  0.56352007  0.30990043
   0.05891629  0.81668151  0.31099950
   0.30675384  0.81575697  0.31797686
   0.56410084  0.80940799  0.31937223
   0.80965426  0.81267908  0.30425343
   0.05890837  0.06637975  0.56927273
   0.31185376  0.06664763  0.57016806
   0.56525311  0.06614760  0.56635932
   0.80454182  0.05577831  0.56767559
   0.06272324  0.31159821  0.57186136
   0.32089061  0.30156664  0.57085664
   0.54781664  0.31905046  0.57033750
   0.81098162  0.31155607  0.56495584
   0.06390441  0.56631530  0.57001483
   0.30589122  0.58044680  0.56443294
   0.57501084  0.55344714  0.55442263
   0.80103155  0.57686039  0.55868424
   0.06354217  0.81127699  0.56091654
   0.31184723  0.80607165  0.55946557
   0.56449194  0.81872029  0.56254073
   0.81343616  0.81158416  0.55278108
   0.06135509  0.07577848  0.80827971
   0.30174051  0.05908456  0.81429711
   0.54669117  0.07223948  0.81953371
   0.81328322  0.06653083  0.81220772
   0.05692435  0.30539136  0.81999842
   0.31058689  0.31490449  0.80963149
   0.56102301  0.31913000  0.80742281
   0.80853299  0.31801525  0.81449982
   0.05872413  0.56785803  0.81354282
   0.29581500  0.57367425  0.79991730
   0.56508564  0.55366563  0.81118643
   0.81054583  0.56026618  0.81450660
   0.05505332  0.81374578  0.80805532
   0.31921659  0.80260842  0.80995668
   0.55877360  0.82069182  0.81494662
   0.81983385  0.80381594  0.82381657
 
 position of ions in cartesian coordinates  (Angst):
  10.95576140 10.94629944  0.05858266
  10.97515286  2.72330341 13.48825473
  11.08925766 16.29636990  5.64915928
  10.96933407 18.96941348  8.26290587
   2.83598507 10.87522455 13.57380285
  13.58034783 13.59889562  5.49063705
  13.59499559 16.35663869  8.15869956
   2.74083595  8.24711844 10.84860003
  16.43104129 21.79553264 16.42549965
  16.43636339 13.60363621  8.30310358
   5.71248320  5.44119709 10.85444678
  16.44100057 19.07925072 13.82317541
   8.30611107 11.04506853 19.00957578
   8.21558986  2.70809099 10.88690323
  19.12077778 16.28718342 13.68101368
  19.17904693 19.12758868 16.47545569
  13.56775249 13.57495361 21.83167750
   2.84068861  5.41912874  2.92609271
  13.57467084  8.25434171 16.40274001
  13.52173110 10.98143494 19.17137555
   5.32285292  2.60715229  2.83354972
   5.42861256  5.33235690  5.53179837
   5.49877486  8.28029392  8.27465193
   5.44310598 10.99964452 10.90566230
   8.02954895  2.57961156  5.51893404
   8.29481036  5.55714201  8.07620028
   8.11281974  8.18545982 10.85522142
   8.20832937 11.03355284 13.65461771
  10.86090936 13.62500789 19.06913474
  10.90916584  5.38819022 10.88161641
  10.84883696  8.26241703 13.82951193
  10.94953799 10.94325357 16.31612101
  16.32628064 16.26858914 21.80606253
  16.32086086  8.29200056 13.66262768
  16.36253720 10.89602062 16.31079755
  16.29391768 13.75755412 19.17695610
   8.29442584 16.30449334 13.65908621
   8.03584094  7.98172737  5.36921023
   8.08549047 10.89824880  8.29968433
   8.31727138 13.69206396 10.86702519
  11.17101497 16.32776469 16.32427018
  10.98001281  8.13500695  8.19689804
  10.97998955 10.95792771 10.90530811
  10.91714879 13.82533451 13.64565808
  13.59442469  5.31351828  8.29962861
  13.73525360  8.13698024 10.87313033
  13.53757229 10.97396723 13.56040552
  13.62678209 13.55056893 16.29055079
  19.20629475 19.26394518 21.77930467
  19.14393590 10.88423256 13.45254439
   8.35839956 13.76272315  5.49496933
  19.07448418 16.38678224 19.09862647
  10.92822093 19.14964284 13.60877990
  10.93993208 10.85955884  5.37730222
  11.05553532 13.79692985  8.27819721
  11.27933265 16.37834566 11.02392245
  13.73076343  8.23630679  5.50318423
  13.54931674 10.91867384  8.17786873
  13.72357802 13.52656880 11.02443714
  13.75486653 16.38659607 13.61575565
  16.30465686  8.21534431  8.25896308
  16.53512805 10.93705633 10.80692155
  16.37635200 13.61397893 13.66799196
  16.53458135 16.31509895 16.52100523
   1.29631220  1.33161919  1.38650263
   1.38287764  3.99180051  4.23262710
   1.36411577  6.79144004  6.85159114
   1.37397389  9.57652345  9.58280401
   3.93564700  1.28710906  4.01652759
   4.04767958  3.92221289  6.81817931
   4.10004995  6.77586225  9.60443072
   3.98728039  9.64373758 12.13010007
   6.68190154  1.32436672  6.88755644
   7.02597849  4.06051193  9.64088154
   6.76925338  6.78863204 12.43634634
   6.74454842  9.52251491 15.07098105
   9.42344764  1.26279460  9.51832248
   9.46970650  3.98010300 12.26326787
   9.37840517  6.90261281 15.01703180
   9.49950765  9.56694516 17.70816587
   4.13273792  4.18334092  1.59771106
   4.12056214  6.85320421  4.15552498
   4.03026607  9.69190139  6.85424688
   4.03326319 12.23161705  9.44051195
   6.83700172  4.17835091  4.09226968
   6.82425978  6.78437097  6.77330245
   6.81198891  9.56145373  9.51588260
   6.70070826 12.26592691 12.31440997
   9.49435007  4.03210772  6.83368399
   9.62982282  6.94764287  9.56191473
   9.71310285  9.58068205 12.22713138
   9.55289149 12.30185492 15.07577758
  12.33382351  4.04589245  9.57670528
  12.40002524  6.83288809 12.27727528
  12.34584592  9.66283975 15.02252440
  12.21626356 12.18318010 17.74400118
   6.95234330  6.87062631  1.37031805
   6.96506569  9.64696694  4.13979598
   6.91793930 12.37682278  6.90584027
   6.81892334 15.00839969  9.40960827
   9.66269217  6.94066357  4.09407862
   9.54198457  9.75333719  6.80802267
   9.72753286 12.22962491  9.48121466
   9.58670321 15.04908710 12.27756932
  12.42842173  6.93338622  6.89292324
  12.52193179  9.51902578  9.69417469
  12.11714138 12.35299077 12.34232148
  12.41983047 14.87166531 15.07046392
  15.00813855  6.82991339  9.56818909
  14.93533624  9.52983885 12.22705174
  15.10731272 12.32673237 15.12865374
  14.92251790 14.94277386 17.77338952
   9.66923945  9.51148607  1.49987562
   9.55246678 12.20647580  3.94646420
   9.75362096 14.94285742  6.76945105
   9.61105676 17.77853677  9.62281984
  12.30876357  9.59119700  3.96276777
  12.29942520 12.25220218  6.84120789
  12.32148400 14.96714860  9.62652724
  12.38669524 17.75165137 12.32143400
  15.10884214  9.54027473  6.85313818
  15.02342918 11.98438981  9.50989405
  14.92784248 15.05274695 12.23615599
  15.03634865 17.77374070 14.99302836
  17.73817977  9.44010713  9.50234562
  17.63716262 12.35014491 12.26977445
  17.88952346 15.02483649 15.08767363
  17.80195991 17.97715315 17.75839951
 


--------------------------------------------------------------------------------------------------------


 k-point  1 :   0.0000 0.0000 0.0000  plane waves:   66299
 k-point  2 :   0.5000 0.0000 0.0000  plane waves:   66394
 k-point  3 :   0.0000 0.5000 0.0000  plane waves:   66394
 k-point  4 :   0.5000 0.5000 0.0000  plane waves:   66552
 k-point  5 :   0.0000 0.0000 0.5000  plane waves:   66394
 k-point  6 :   0.5000 0.0000 0.5000  plane waves:   66552
 k-point  7 :   0.0000 0.5000 0.5000  plane waves:   66552
 k-point  8 :   0.5000 0.5000 0.5000  plane waves:   66394

 maximum and minimum number of plane-waves per node :      4207     4110

 maximum number of plane-waves:     66552
 maximum index in each direction: 
   IXMAX=   28   IYMAX=   28   IZMAX=   28
   IXMIN=  -28   IYMIN=  -28   IZMIN=  -28


 parallel 3D FFT for wavefunctions:
    minimum data exchange during FFTs selected (reduces bandwidth)
 parallel 3D FFT for charge:
    minimum data exchange during FFTs selected (reduces bandwidth)


 total amount of memory used by VASP MPI-rank0   221701. kBytes
=======================================================================

   base      :      30000. kBytes
   nonl-proj :      10690. kBytes
   fftplans  :      66746. kBytes
   grid      :      26864. kBytes
   one-center:         24. kBytes
   wavefun   :      87377. kBytes
 
     INWAV:  cpu time    0.0000: real time    0.0002
 Broyden mixing: mesh for mixing (old mesh)
   NGX = 57   NGY = 57   NGZ = 57
  (NGX  =240   NGY  =240   NGZ  =240)
  gives a total of 185193 points

 initial charge density was supplied:
 charge density of overlapping atoms calculated
 number of electron     512.0000000 magnetization 
 keeping initial charge density in first step


--------------------------------------------------------------------------------------------------------


 Maximum index for augmentation-charges         5606 (set IRDMAX)


--------------------------------------------------------------------------------------------------------


 First call to EWALD:  gamma=   0.129
 Maximum number of real-space cells 3x 3x 3
 Maximum number of reciprocal cells 3x 3x 3

    FEWALD:  cpu time    0.0072: real time    0.0072


--------------------------------------- Iteration      1(   1)  ---------------------------------------


    POTLOK:  cpu time    0.4874: real time    0.4960
    SETDIJ:  cpu time    0.5069: real time    0.5069
     EDDAV:  cpu time   70.6486: real time   70.6748
       DOS:  cpu time    0.0043: real time    0.0043
    --------------------------------------------
      LOOP:  cpu time   71.6472: real time   71.6821

 eigenvalue-minimisations  :  5152
 total energy-change (2. order) : 0.1384302E+04  (-0.1908208E+05)
 number of electron     512.0000000 magnetization 
 augmentation part      512.0000000 magnetization 

 Free energy of the ion-electron system (eV)
  ---------------------------------------------------
  alpha Z        PSCENC =       210.77028614
  Ewald energy   TEWEN  =    -14463.37158857
  -Hartree energ DENC   =      -763.71214431
  -exchange      EXHF   =         0.00000000
  -V(xc)+E(xc)   XCENC  =     -1195.30256885
  PAW double counting   =      4221.13331941    -1969.18571412
  entropy T*S    EENTRO =        -0.00246348
  eigenvalues    EBANDS =      2151.49193742
  atomic energy  EATOM  =     13192.48085998
  Solvation  Ediel_sol  =         0.00000000
  ---------------------------------------------------
  free energy    TOTEN  =      1384.30192364 eV

  energy without entropy =     1384.30438712  energy(sigma->0) =     1384.30315538


--------------------------------------------------------------------------------------------------------




--------------------------------------- Iteration      1(   2)  ---------------------------------------


     EDDAV:  cpu time   80.7205: real time   80.7458
       DOS:  cpu time    0.0020: real time    0.0020
    --------------------------------------------
      LOOP:  cpu time   80.7225: real time   80.7478

 eigenvalue-minimisations  :  6120
 total energy-change (2. order) :-0.1920834E+04  (-0.1827601E+04)
 number of electron     512.0000000 magnetization 
 augmentation part      512.0000000 magnetization 

 Free energy of the ion-electron system (eV)
  ---------------------------------------------------
  alpha Z        PSCENC =       210.77028614
  Ewald energy   TEWEN  =    -14463.37158857
  -Hartree energ DENC   =      -763.71214431
  -exchange      EXHF   =         0.00000000
  -V(xc)+E(xc)   XCENC  =     -1195.30256885
  PAW double counting   =      4221.13331941    -1969.18571412
  entropy T*S    EENTRO =        -0.00000001
  eigenvalues    EBANDS =       230.65516092
  atomic energy  EATOM  =     13192.48085998
  Solvation  Ediel_sol  =         0.00000000
  ---------------------------------------------------
  free energy    TOTEN  =      -536.53238940 eV

  energy without entropy =     -536.53238939  energy(sigma->0) =     -536.53238939


--------------------------------------------------------------------------------------------------------




--------------------------------------- Iteration      1(   3)  ---------------------------------------


     EDDAV:  cpu time   82.6732: real time   82.6948
       DOS:  cpu time    0.0020: real time    0.0020
    --------------------------------------------
      LOOP:  cpu time   82.6752: real time   82.6968

 eigenvalue-minimisations  :  6328
 total energy-change (2. order) :-0.1495291E+03  (-0.1465477E+03)
 number of electron     512.0000000 magnetization 
 augmentation part      512.0000000 magnetization 

 Free energy of the ion-electron system (eV)
  ---------------------------------------------------
  alpha Z        PSCENC =       210.77028614
  Ewald energy   TEWEN  =    -14463.37158857
  -Hartree energ DENC   =      -763.71214431
  -exchange      EXHF   =         0.00000000
  -V(xc)+E(xc)   XCENC  =     -1195.30256885
  PAW double counting   =      4221.13331941    -1969.18571412
  entropy T*S    EENTRO =        -0.00000000
  eigenvalues    EBANDS =        81.12610241
  atomic energy  EATOM  =     13192.48085998
  Solvation  Ediel_sol  =         0.00000000
  ---------------------------------------------------
  free energy    TOTEN  =      -686.06144790 eV

  energy without entropy =     -686.06144790  energy(sigma->0) =     -686.06144790


--------------------------------------------------------------------------------------------------------




--------------------------------------- Iteration      1(   4)  ---------------------------------------


     EDDAV:  cpu time   81.0909: real time   81.1217
       DOS:  cpu time    0.0019: real time    0.0019
    --------------------------------------------
      LOOP:  cpu time   81.0929: real time   81.1237

 eigenvalue-minimisations  :  6168
 total energy-change (2. order) :-0.4188836E+01  (-0.4154633E+01)
 number of electron     512.0000000 magnetization 
 augmentation part      512.0000000 magnetization 

 Free energy of the ion-electron system (eV)
  ---------------------------------------------------
  alpha Z        PSCENC =       210.77028614
  Ewald energy   TEWEN  =    -14463.37158857
  -Hartree energ DENC   =      -763.71214431
  -exchange      EXHF   =         0.00000000
  -V(xc)+E(xc)   XCENC  =     -1195.30256885
  PAW double counting   =      4221.13331941    -1969.18571412
  entropy T*S    EENTRO =        -0.00000000
  eigenvalues    EBANDS =        76.93726661
  atomic energy  EATOM  =     13192.48085998
  Solvation  Ediel_sol  =         0.00000000
  ---------------------------------------------------
  free energy    TOTEN  =      -690.25028369 eV

  energy without entropy =     -690.25028369  energy(sigma->0) =     -690.25028369


--------------------------------------------------------------------------------------------------------




--------------------------------------- Iteration      1(   5)  ---------------------------------------


     EDDAV:  cpu time   82.7093: real time   82.7480
       DOS:  cpu time    0.0011: real time    0.0010
    CHARGE:  cpu time    3.1573: real time    3.1592
    MIXING:  cpu time    0.0522: real time    0.0523
    --------------------------------------------
      LOOP:  cpu time   85.9199: real time   85.9605

 eigenvalue-minimisations  :  6344
 total energy-change (2. order) :-0.1462868E+00  (-0.1458941E+00)
 number of electron     511.9999998 magnetization 
 augmentation part      -30.1781005 magnetization 

 Broyden mixing:
  rms(total) = 0.23967E+01    rms(broyden)= 0.23967E+01
  rms(prec ) = 0.29047E+01
  weight for this iteration     100.00

 Free energy of the ion-electron system (eV)
  ---------------------------------------------------
  alpha Z        PSCENC =       210.77028614
  Ewald energy   TEWEN  =    -14463.37158857
  -Hartree energ DENC   =      -763.71214431
  -exchange      EXHF   =         0.00000000
  -V(xc)+E(xc)   XCENC  =     -1195.30256885
  PAW double counting   =      4221.13331941    -1969.18571412
  entropy T*S    EENTRO =        -0.00000000
  eigenvalues    EBANDS =        76.79097983
  atomic energy  EATOM  =     13192.48085998
  Solvation  Ediel_sol  =         0.00000000
  ---------------------------------------------------
  free energy    TOTEN  =      -690.39657048 eV

  energy without entropy =     -690.39657048  energy(sigma->0) =     -690.39657048


--------------------------------------------------------------------------------------------------------




--------------------------------------- Iteration      1(   6)  ---------------------------------------


    POTLOK:  cpu time    0.4889: real time    0.4922
    SETDIJ:  cpu time    0.5058: real time    0.5058
     EDDAV:  cpu time   78.0734: real time   78.0969
       DOS:  cpu time    0.0019: real time    0.0019
    CHARGE:  cpu time    3.1610: real time    3.1621
    MIXING:  cpu time    0.0370: real time    0.0370
    --------------------------------------------
      LOOP:  cpu time   82.2680: real time   82.2960

 eigenvalue-minimisations  :  5912
 total energy-change (2. order) : 0.8458369E+01  (-0.5893533E+00)
 number of electron     511.9999998 magnetization 
 augmentation part      -29.8391200 magnetization 

 Broyden mixing:
  rms(total) = 0.14235E+01    rms(broyden)= 0.14235E+01
  rms(prec ) = 0.17155E+01
  weight for this iteration     100.00

 eigenvalues of (default mixing * dielectric matrix)
  average eigenvalue GAMMA=   2.4290
  2.4290

 Free energy of the ion-electron system (eV)
  ---------------------------------------------------
  alpha Z        PSCENC =       210.77028614
  Ewald energy   TEWEN  =    -14463.37158857
  -Hartree energ DENC   =      -858.73021627
  -exchange      EXHF   =         0.00000000
  -V(xc)+E(xc)   XCENC  =     -1180.67729732
  PAW double counting   =      4465.79020071    -2220.61301237
  entropy T*S    EENTRO =        -0.00000000
  eigenvalues    EBANDS =       172.41256628
  atomic energy  EATOM  =     13192.48085998
  Solvation  Ediel_sol  =         0.00000000
  ---------------------------------------------------
  free energy    TOTEN  =      -681.93820140 eV

  energy without entropy =     -681.93820140  energy(sigma->0) =     -681.93820140


--------------------------------------------------------------------------------------------------------




--------------------------------------- Iteration      1(   7)  ---------------------------------------


    POTLOK:  cpu time    0.4887: real time    0.4919
    SETDIJ:  cpu time    0.5064: real time    0.5064
     EDDAV:  cpu time   77.4622: real time   77.4869
       DOS:  cpu time    0.0010: real time    0.0010
    CHARGE:  cpu time    3.1580: real time    3.1644
    MIXING:  cpu time    0.0426: real time    0.0426
    --------------------------------------------
      LOOP:  cpu time   81.6590: real time   81.6933

 eigenvalue-minimisations  :  5856
 total energy-change (2. order) : 0.3536309E+01  (-0.1115212E+01)
 number of electron     511.9999998 magnetization 
 augmentation part      -29.3910648 magnetization 

 Broyden mixing:
  rms(total) = 0.15503E+00    rms(broyden)= 0.15503E+00
  rms(prec ) = 0.20133E+00
  weight for this iteration     100.00

 eigenvalues of (default mixing * dielectric matrix)
  average eigenvalue GAMMA=   2.0990
  2.0990  2.0990

 Free energy of the ion-electron system (eV)
  ---------------------------------------------------
  alpha Z        PSCENC =       210.77028614
  Ewald energy   TEWEN  =    -14463.37158857
  -Hartree energ DENC   =     -1008.55518809
  -exchange      EXHF   =         0.00000000
  -V(xc)+E(xc)   XCENC  =     -1156.82942216
  PAW double counting   =      4785.29230333    -2548.63752690
  entropy T*S    EENTRO =        -0.00000000
  eigenvalues    EBANDS =       310.44838377
  atomic energy  EATOM  =     13192.48085998
  Solvation  Ediel_sol  =         0.00000000
  ---------------------------------------------------
  free energy    TOTEN  =      -678.40189249 eV

  energy without entropy =     -678.40189249  energy(sigma->0) =     -678.40189249


--------------------------------------------------------------------------------------------------------




--------------------------------------- Iteration      1(   8)  ---------------------------------------


    POTLOK:  cpu time    0.4876: real time    0.4905
    SETDIJ:  cpu time    0.5058: real time    0.5059
     EDDAV:  cpu time   77.3854: real time   77.4139
       DOS:  cpu time    0.0013: real time    0.0013
    CHARGE:  cpu time    3.1658: real time    3.1670
    MIXING:  cpu time    0.0315: real time    0.0315
    --------------------------------------------
      LOOP:  cpu time   81.5775: real time   81.6101

 eigenvalue-minimisations  :  5856
 total energy-change (2. order) :-0.5633027E-01  (-0.1051076E+00)
 number of electron     511.9999998 magnetization 
 augmentation part      -29.4571252 magnetization 

 Broyden mixing:
  rms(total) = 0.62432E-01    rms(broyden)= 0.62432E-01
  rms(prec ) = 0.77146E-01
  weight for this iteration     100.00

 eigenvalues of (default mixing * dielectric matrix)
  average eigenvalue GAMMA=   2.0076
  2.6755  1.6737  1.6737

 Free energy of the ion-electron system (eV)
  ---------------------------------------------------
  alpha Z        PSCENC =       210.77028614
  Ewald energy   TEWEN  =    -14463.37158857
  -Hartree energ DENC   =     -1002.47776124
  -exchange      EXHF   =         0.00000000
  -V(xc)+E(xc)   XCENC  =     -1156.88682765
  PAW double counting   =      4739.53865374    -2501.45687882
  entropy T*S    EENTRO =        -0.00000000
  eigenvalues    EBANDS =       302.94503365
  atomic energy  EATOM  =     13192.48085998
  Solvation  Ediel_sol  =         0.00000000
  ---------------------------------------------------
  free energy    TOTEN  =      -678.45822275 eV

  energy without entropy =     -678.45822275  energy(sigma->0) =     -678.45822275


--------------------------------------------------------------------------------------------------------




--------------------------------------- Iteration      1(   9)  ---------------------------------------


    POTLOK:  cpu time    0.4870: real time    0.4906
    SETDIJ:  cpu time    0.5070: real time    0.5070
     EDDAV:  cpu time   79.1824: real time   79.2053
       DOS:  cpu time    0.0011: real time    0.0011
    CHARGE:  cpu time    3.1633: real time    3.1637
    MIXING:  cpu time    0.0436: real time    0.0436
    --------------------------------------------
      LOOP:  cpu time   83.3844: real time   83.4115

 eigenvalue-minimisations  :  6032
 total energy-change (2. order) :-0.2260376E-01  (-0.1032991E-01)
 number of electron     511.9999998 magnetization 
 augmentation part      -29.4634924 magnetization 

 Broyden mixing:
  rms(total) = 0.27569E-01    rms(broyden)= 0.27569E-01
  rms(prec ) = 0.32189E-01
  weight for this iteration     100.00

 eigenvalues of (default mixing * dielectric matrix)
  average eigenvalue GAMMA=   1.7891
  2.5884  1.8319  1.8319  0.9042

 Free energy of the ion-electron system (eV)
  ---------------------------------------------------
  alpha Z        PSCENC =       210.77028614
  Ewald energy   TEWEN  =    -14463.37158857
  -Hartree energ DENC   =     -1008.66757213
  -exchange      EXHF   =         0.00000000
  -V(xc)+E(xc)   XCENC  =     -1155.77576140
  PAW double counting   =      4740.96203616    -2502.91480550
  entropy T*S    EENTRO =        -0.00000000
  eigenvalues    EBANDS =       308.03571880
  atomic energy  EATOM  =     13192.48085998
  Solvation  Ediel_sol  =         0.00000000
  ---------------------------------------------------
  free energy    TOTEN  =      -678.48082651 eV

  energy without entropy =     -678.48082651  energy(sigma->0) =     -678.48082651


--------------------------------------------------------------------------------------------------------




--------------------------------------- Iteration      1(  10)  ---------------------------------------


    POTLOK:  cpu time    0.4917: real time    0.4926
    SETDIJ:  cpu time    0.5063: real time    0.5071
     EDDAV:  cpu time   79.1954: real time   79.2167
       DOS:  cpu time    0.0013: real time    0.0013
    CHARGE:  cpu time    3.1808: real time    3.1849
    MIXING:  cpu time    0.0356: real time    0.0356
    --------------------------------------------
      LOOP:  cpu time   83.4111: real time   83.4381

 eigenvalue-minimisations  :  6032
 total energy-change (2. order) :-0.2574272E-02  (-0.8505127E-03)
 number of electron     511.9999998 magnetization 
 augmentation part      -29.4725556 magnetization 

 Broyden mixing:
  rms(total) = 0.10843E-01    rms(broyden)= 0.10843E-01
  rms(prec ) = 0.13187E-01
  weight for this iteration     100.00

 eigenvalues of (default mixing * dielectric matrix)
  average eigenvalue GAMMA=   1.8429
  2.6514  2.6514  1.4945  1.4945  0.9230

 Free energy of the ion-electron system (eV)
  ---------------------------------------------------
  alpha Z        PSCENC =       210.77028614
  Ewald energy   TEWEN  =    -14463.37158857
  -Hartree energ DENC   =     -1007.62891023
  -exchange      EXHF   =         0.00000000
  -V(xc)+E(xc)   XCENC  =     -1155.93187937
  PAW double counting   =      4734.06373092    -2495.84620912
  entropy T*S    EENTRO =        -0.00000000
  eigenvalues    EBANDS =       306.98030944
  atomic energy  EATOM  =     13192.48085998
  Solvation  Ediel_sol  =         0.00000000
  ---------------------------------------------------
  free energy    TOTEN  =      -678.48340079 eV

  energy without entropy =     -678.48340079  energy(sigma->0) =     -678.48340079


--------------------------------------------------------------------------------------------------------




--------------------------------------- Iteration      1(  11)  ---------------------------------------


    POTLOK:  cpu time    0.4914: real time    0.4921
    SETDIJ:  cpu time    0.5066: real time    0.5068
     EDDAV:  cpu time   77.2546: real time   77.2811
       DOS:  cpu time    0.0011: real time    0.0011
    CHARGE:  cpu time    3.1783: real time    3.1788
    MIXING:  cpu time    0.0296: real time    0.0296
    --------------------------------------------
      LOOP:  cpu time   81.4615: real time   81.4895

 eigenvalue-minimisations  :  5832
 total energy-change (2. order) :-0.1427323E-02  (-0.2210286E-03)
 number of electron     511.9999998 magnetization 
 augmentation part      -29.4748339 magnetization 

 Broyden mixing:
  rms(total) = 0.35303E-02    rms(broyden)= 0.35303E-02
  rms(prec ) = 0.50169E-02
  weight for this iteration     100.00

 eigenvalues of (default mixing * dielectric matrix)
  average eigenvalue GAMMA=   1.7764
  2.8434  2.0742  2.0742  1.4274  1.3622  0.8769

 Free energy of the ion-electron system (eV)
  ---------------------------------------------------
  alpha Z        PSCENC =       210.77028614
  Ewald energy   TEWEN  =    -14463.37158857
  -Hartree energ DENC   =     -1007.65922675
  -exchange      EXHF   =         0.00000000
  -V(xc)+E(xc)   XCENC  =     -1155.92528057
  PAW double counting   =      4730.26399570    -2491.96087716
  entropy T*S    EENTRO =        -0.00000000
  eigenvalues    EBANDS =       306.91700311
  atomic energy  EATOM  =     13192.48085998
  Solvation  Ediel_sol  =         0.00000000
  ---------------------------------------------------
  free energy    TOTEN  =      -678.48482811 eV

  energy without entropy =     -678.48482811  energy(sigma->0) =     -678.48482811


--------------------------------------------------------------------------------------------------------




--------------------------------------- Iteration      1(  12)  ---------------------------------------


    POTLOK:  cpu time    0.4898: real time    0.4909
    SETDIJ:  cpu time    0.5060: real time    0.5061
     EDDAV:  cpu time   80.5494: real time   80.5742
       DOS:  cpu time    0.0011: real time    0.0011
    CHARGE:  cpu time    3.1758: real time    3.1763
    MIXING:  cpu time    0.0449: real time    0.0448
    --------------------------------------------
      LOOP:  cpu time   84.7670: real time   84.7933

 eigenvalue-minimisations  :  6160
 total energy-change (2. order) :-0.8736733E-04  (-0.4430895E-04)
 number of electron     511.9999998 magnetization 
 augmentation part      -29.4730271 magnetization 

 Broyden mixing:
  rms(total) = 0.18735E-02    rms(broyden)= 0.18735E-02
  rms(prec ) = 0.22375E-02
  weight for this iteration     100.00

 eigenvalues of (default mixing * dielectric matrix)
  average eigenvalue GAMMA=   1.8325
  3.1615  2.7027  1.7637  1.7637  0.8918  1.2722  1.2722

 Free energy of the ion-electron system (eV)
  ---------------------------------------------------
  alpha Z        PSCENC =       210.77028614
  Ewald energy   TEWEN  =    -14463.37158857
  -Hartree energ DENC   =     -1008.23547067
  -exchange      EXHF   =         0.00000000
  -V(xc)+E(xc)   XCENC  =     -1155.86184550
  PAW double counting   =      4731.38119942    -2493.11760713
  entropy T*S    EENTRO =        -0.00000000
  eigenvalues    EBANDS =       307.46925084
  atomic energy  EATOM  =     13192.48085998
  Solvation  Ediel_sol  =         0.00000000
  ---------------------------------------------------
  free energy    TOTEN  =      -678.48491548 eV

  energy without entropy =     -678.48491548  energy(sigma->0) =     -678.48491548


--------------------------------------------------------------------------------------------------------




--------------------------------------- Iteration      1(  13)  ---------------------------------------


    POTLOK:  cpu time    0.4896: real time    0.4904
    SETDIJ:  cpu time    0.5064: real time    0.5064
     EDDAV:  cpu time   76.8972: real time   76.9163
       DOS:  cpu time    0.0012: real time    0.0012
    CHARGE:  cpu time    3.1631: real time    3.1636
    MIXING:  cpu time    0.0398: real time    0.0398
    --------------------------------------------
      LOOP:  cpu time   81.0973: real time   81.1177

 eigenvalue-minimisations  :  5776
 total energy-change (2. order) :-0.2661786E-04  (-0.1103361E-04)
 number of electron     511.9999998 magnetization 
 augmentation part      -29.4731544 magnetization 

 Broyden mixing:
  rms(total) = 0.68485E-03    rms(broyden)= 0.68484E-03
  rms(prec ) = 0.88232E-03
  weight for this iteration     100.00

 eigenvalues of (default mixing * dielectric matrix)
  average eigenvalue GAMMA=   1.7821
  3.1436  2.5448  1.9284  1.9284  1.4044  1.4044  0.9514  0.9514

 Free energy of the ion-electron system (eV)
  ---------------------------------------------------
  alpha Z        PSCENC =       210.77028614
  Ewald energy   TEWEN  =    -14463.37158857
  -Hartree energ DENC   =     -1008.20010932
  -exchange      EXHF   =         0.00000000
  -V(xc)+E(xc)   XCENC  =     -1155.87600832
  PAW double counting   =      4730.73843997    -2492.46143219
  entropy T*S    EENTRO =        -0.00000000
  eigenvalues    EBANDS =       307.43461021
  atomic energy  EATOM  =     13192.48085998
  Solvation  Ediel_sol  =         0.00000000
  ---------------------------------------------------
  free energy    TOTEN  =      -678.48494209 eV

  energy without entropy =     -678.48494209  energy(sigma->0) =     -678.48494209


--------------------------------------------------------------------------------------------------------




--------------------------------------- Iteration      1(  14)  ---------------------------------------


    POTLOK:  cpu time    0.4890: real time    0.4902
    SETDIJ:  cpu time    0.5067: real time    0.5068
     EDDAV:  cpu time   80.8056: real time   80.8256
       DOS:  cpu time    0.0012: real time    0.0012
    CHARGE:  cpu time    3.1614: real time    3.1622
    MIXING:  cpu time    0.0514: real time    0.0514
    --------------------------------------------
      LOOP:  cpu time   85.0154: real time   85.0374

 eigenvalue-minimisations  :  6184
 total energy-change (2. order) :-0.6918317E-05  (-0.1122458E-05)
 number of electron     511.9999998 magnetization 
 augmentation part      -29.4728947 magnetization 

 Broyden mixing:
  rms(total) = 0.17052E-03    rms(broyden)= 0.17045E-03
  rms(prec ) = 0.24622E-03
  weight for this iteration     100.00

 eigenvalues of (default mixing * dielectric matrix)
  average eigenvalue GAMMA=   1.7690
  3.2215  2.6034  2.1727  1.6500  1.6500  1.3419  1.3419  1.0120  0.9276

 Free energy of the ion-electron system (eV)
  ---------------------------------------------------
  alpha Z        PSCENC =       210.77028614
  Ewald energy   TEWEN  =    -14463.37158857
  -Hartree energ DENC   =     -1008.27390275
  -exchange      EXHF   =         0.00000000
  -V(xc)+E(xc)   XCENC  =     -1155.86668476
  PAW double counting   =      4730.95765637    -2492.68608223
  entropy T*S    EENTRO =        -0.00000000
  eigenvalues    EBANDS =       307.50450680
  atomic energy  EATOM  =     13192.48085998
  Solvation  Ediel_sol  =         0.00000000
  ---------------------------------------------------
  free energy    TOTEN  =      -678.48494901 eV

  energy without entropy =     -678.48494901  energy(sigma->0) =     -678.48494901


--------------------------------------------------------------------------------------------------------




--------------------------------------- Iteration      1(  15)  ---------------------------------------


    POTLOK:  cpu time    0.4897: real time    0.4908
    SETDIJ:  cpu time    0.5094: real time    0.5097
     EDDAV:  cpu time   81.5122: real time   81.5376
       DOS:  cpu time    0.0010: real time    0.0010
    CHARGE:  cpu time    3.1696: real time    3.1697
    MIXING:  cpu time    0.0478: real time    0.0478
    --------------------------------------------
      LOOP:  cpu time   85.7298: real time   85.7568

 eigenvalue-minimisations  :  6264
 total energy-change (2. order) :-0.2609888E-05  (-0.1451957E-06)
 number of electron     511.9999998 magnetization 
 augmentation part      -29.4728177 magnetization 

 Broyden mixing:
  rms(total) = 0.69900E-04    rms(broyden)= 0.69728E-04
  rms(prec ) = 0.95192E-04
  weight for this iteration     100.00

 eigenvalues of (default mixing * dielectric matrix)
  average eigenvalue GAMMA=   1.7264
  3.2639  2.6094  2.0976  1.7112  1.7112  1.4678  1.4678  1.0874  0.9242  0.9242

 Free energy of the ion-electron system (eV)
  ---------------------------------------------------
  alpha Z        PSCENC =       210.77028614
  Ewald energy   TEWEN  =    -14463.37158857
  -Hartree energ DENC   =     -1008.29303105
  -exchange      EXHF   =         0.00000000
  -V(xc)+E(xc)   XCENC  =     -1155.86570648
  PAW double counting   =      4731.00668112    -2492.73663174
  entropy T*S    EENTRO =        -0.00000000
  eigenvalues    EBANDS =       307.52417897
  atomic energy  EATOM  =     13192.48085998
  Solvation  Ediel_sol  =         0.00000000
  ---------------------------------------------------
  free energy    TOTEN  =      -678.48495162 eV

  energy without entropy =     -678.48495162  energy(sigma->0) =     -678.48495162


--------------------------------------------------------------------------------------------------------




--------------------------------------- Iteration      1(  16)  ---------------------------------------


    POTLOK:  cpu time    0.4884: real time    0.4913
    SETDIJ:  cpu time    0.5050: real time    0.5050
     EDDAV:  cpu time   78.7241: real time   78.7397
       DOS:  cpu time    0.0016: real time    0.0016
    CHARGE:  cpu time    3.1332: real time    3.1333
    MIXING:  cpu time    0.0405: real time    0.0405
    --------------------------------------------
      LOOP:  cpu time   82.8928: real time   82.9114

 eigenvalue-minimisations  :  5976
 total energy-change (2. order) : 0.2955640E-06  (-0.2821617E-07)
 number of electron     511.9999998 magnetization 
 augmentation part      -29.4728109 magnetization 

 Broyden mixing:
  rms(total) = 0.31973E-04    rms(broyden)= 0.31596E-04
  rms(prec ) = 0.42813E-04
  weight for this iteration     100.00

 eigenvalues of (default mixing * dielectric matrix)
  average eigenvalue GAMMA=   1.6971
  3.2923  2.6248  2.0763  2.0763  1.4352  1.4352  1.4120  1.4120  0.9029  1.0004
  1.0004

 Free energy of the ion-electron system (eV)
  ---------------------------------------------------
  alpha Z        PSCENC =       210.77028614
  Ewald energy   TEWEN  =    -14463.37158857
  -Hartree energ DENC   =     -1008.29325257
  -exchange      EXHF   =         0.00000000
  -V(xc)+E(xc)   XCENC  =     -1155.86562784
  PAW double counting   =      4731.00474787    -2492.73441447
  entropy T*S    EENTRO =        -0.00000000
  eigenvalues    EBANDS =       307.52403813
  atomic energy  EATOM  =     13192.48085998
  Solvation  Ediel_sol  =         0.00000000
  ---------------------------------------------------
  free energy    TOTEN  =      -678.48495133 eV

  energy without entropy =     -678.48495133  energy(sigma->0) =     -678.48495133


--------------------------------------------------------------------------------------------------------




--------------------------------------- Iteration      1(  17)  ---------------------------------------


    POTLOK:  cpu time    0.4886: real time    0.4918
    SETDIJ:  cpu time    0.5048: real time    0.5048
     EDDAV:  cpu time   72.7658: real time   72.7956
       DOS:  cpu time    0.0016: real time    0.0016
    CHARGE:  cpu time    3.1228: real time    3.1229
    MIXING:  cpu time    0.0422: real time    0.0422
    --------------------------------------------
      LOOP:  cpu time   76.9257: real time   76.9588

 eigenvalue-minimisations  :  5384
 total energy-change (2. order) : 0.8842471E-07  (-0.4756817E-08)
 number of electron     511.9999998 magnetization 
 augmentation part      -29.4728123 magnetization 

 Broyden mixing:
  rms(total) = 0.16007E-04    rms(broyden)= 0.15239E-04
  rms(prec ) = 0.19959E-04
  weight for this iteration     100.00

 eigenvalues of (default mixing * dielectric matrix)
  average eigenvalue GAMMA=   1.6991
  3.2889  2.6180  2.2661  1.9298  1.9298  1.4065  1.4065  0.9328  0.9756  1.1337
  1.2510  1.2510

 Free energy of the ion-electron system (eV)
  ---------------------------------------------------
  alpha Z        PSCENC =       210.77028614
  Ewald energy   TEWEN  =    -14463.37158857
  -Hartree energ DENC   =     -1008.29279035
  -exchange      EXHF   =         0.00000000
  -V(xc)+E(xc)   XCENC  =     -1155.86565122
  PAW double counting   =      4731.00574446    -2492.73529788
  entropy T*S    EENTRO =        -0.00000000
  eigenvalues    EBANDS =       307.52348620
  atomic energy  EATOM  =     13192.48085998
  Solvation  Ediel_sol  =         0.00000000
  ---------------------------------------------------
  free energy    TOTEN  =      -678.48495124 eV

  energy without entropy =     -678.48495124  energy(sigma->0) =     -678.48495124


--------------------------------------------------------------------------------------------------------




--------------------------------------- Iteration      1(  18)  ---------------------------------------


    POTLOK:  cpu time    0.4892: real time    0.4927
    SETDIJ:  cpu time    0.5051: real time    0.5051
     EDDAV:  cpu time   52.3645: real time   52.3859
       DOS:  cpu time    0.0011: real time    0.0011
    CHARGE:  cpu time    3.1142: real time    3.1153
    MIXING:  cpu time    0.0444: real time    0.0444
    --------------------------------------------
      LOOP:  cpu time   56.5184: real time   56.5443

 eigenvalue-minimisations  :  3344
 total energy-change (2. order) :-0.1435674E-06  (-0.9657744E-09)
 number of electron     511.9999998 magnetization 
 augmentation part      -29.4728078 magnetization 

 Broyden mixing:
  rms(total) = 0.78106E-05    rms(broyden)= 0.60833E-05
  rms(prec ) = 0.79464E-05
  weight for this iteration     100.00
  WARNING: grid for Broyden might be to small

 eigenvalues of (default mixing * dielectric matrix)
  average eigenvalue GAMMA=   1.7132
  3.3059  2.7031  2.5280  2.2971  1.7333  1.7333  1.3137  1.3137  0.9260  0.9790
  1.0193  1.2097  1.2097

 Free energy of the ion-electron system (eV)
  ---------------------------------------------------
  alpha Z        PSCENC =       210.77028614
  Ewald energy   TEWEN  =    -14463.37158857
  -Hartree energ DENC   =     -1008.29381278
  -exchange      EXHF   =         0.00000000
  -V(xc)+E(xc)   XCENC  =     -1155.86554234
  PAW double counting   =      4731.01026039    -2492.73990336
  entropy T*S    EENTRO =        -0.00000000
  eigenvalues    EBANDS =       307.52448916
  atomic energy  EATOM  =     13192.48085998
  Solvation  Ediel_sol  =         0.00000000
  ---------------------------------------------------
  free energy    TOTEN  =      -678.48495138 eV

  energy without entropy =     -678.48495138  energy(sigma->0) =     -678.48495138


--------------------------------------------------------------------------------------------------------




--------------------------------------- Iteration      1(  19)  ---------------------------------------


    POTLOK:  cpu time    0.4881: real time    0.4913
    SETDIJ:  cpu time    0.5038: real time    0.5039
     EDDAV:  cpu time   51.4900: real time   51.5009
       DOS:  cpu time    0.0014: real time    0.0014
    CHARGE:  cpu time    3.1177: real time    3.1186
    MIXING:  cpu time    0.0334: real time    0.0334
    --------------------------------------------
      LOOP:  cpu time   55.6345: real time   55.6495

 eigenvalue-minimisations  :  3256
 total energy-change (2. order) : 0.6307346E-07  (-0.2568995E-09)
 number of electron     511.9999998 magnetization 
 augmentation part      -29.4728087 magnetization 

 Broyden mixing:
  rms(total) = 0.54952E-05    rms(broyden)= 0.24895E-05
  rms(prec ) = 0.34094E-05
  weight for this iteration     100.00
  WARNING: grid for Broyden might be to small

 eigenvalues of (default mixing * dielectric matrix)
  average eigenvalue GAMMA=   1.6475
  3.3224  2.7164  2.3501  2.3501  1.7301  1.7301  1.3509  1.3509  1.2355  1.2355
  1.0057  1.0057  0.9156  0.7669

 Free energy of the ion-electron system (eV)
  ---------------------------------------------------
  alpha Z        PSCENC =       210.77028614
  Ewald energy   TEWEN  =    -14463.37158857
  -Hartree energ DENC   =     -1008.29351057
  -exchange      EXHF   =         0.00000000
  -V(xc)+E(xc)   XCENC  =     -1155.86555401
  PAW double counting   =      4731.01009807    -2492.73968269
  entropy T*S    EENTRO =        -0.00000000
  eigenvalues    EBANDS =       307.52414032
  atomic energy  EATOM  =     13192.48085998
  Solvation  Ediel_sol  =         0.00000000
  ---------------------------------------------------
  free energy    TOTEN  =      -678.48495132 eV

  energy without entropy =     -678.48495132  energy(sigma->0) =     -678.48495132


--------------------------------------------------------------------------------------------------------




--------------------------------------- Iteration      1(  20)  ---------------------------------------


    POTLOK:  cpu time    0.4921: real time    0.4938
    SETDIJ:  cpu time    0.5042: real time    0.5049
     EDDAV:  cpu time   50.5596: real time   50.5701
       DOS:  cpu time    0.0011: real time    0.0011
    CHARGE:  cpu time    3.1067: real time    3.1071
    MIXING:  cpu time    0.0360: real time    0.0360
    --------------------------------------------
      LOOP:  cpu time   54.6995: real time   54.7130

 eigenvalue-minimisations  :  3168
 total energy-change (2. order) :-0.1035187E-07  (-0.4134530E-10)
 number of electron     511.9999998 magnetization 
 augmentation part      -29.4728081 magnetization 

 Broyden mixing:
  rms(total) = 0.52195E-05    rms(broyden)= 0.18011E-05
  rms(prec ) = 0.24052E-05
  weight for this iteration     100.00
  WARNING: grid for Broyden might be to small

 eigenvalues of (default mixing * dielectric matrix)
  average eigenvalue GAMMA=   1.6801
  3.2832  2.6862  2.3506  2.3506  1.9562  1.9562  1.4011  1.4011  1.3421  1.3421
  1.1466  1.1466  0.9239  0.9578  0.9578

 Free energy of the ion-electron system (eV)
  ---------------------------------------------------
  alpha Z        PSCENC =       210.77028614
  Ewald energy   TEWEN  =    -14463.37158857
  -Hartree energ DENC   =     -1008.29358345
  -exchange      EXHF   =         0.00000000
  -V(xc)+E(xc)   XCENC  =     -1155.86554927
  PAW double counting   =      4731.01020321    -2492.73979608
  entropy T*S    EENTRO =        -0.00000000
  eigenvalues    EBANDS =       307.52421670
  atomic energy  EATOM  =     13192.48085998
  Solvation  Ediel_sol  =         0.00000000
  ---------------------------------------------------
  free energy    TOTEN  =      -678.48495133 eV

  energy without entropy =     -678.48495133  energy(sigma->0) =     -678.48495133


--------------------------------------------------------------------------------------------------------




--------------------------------------- Iteration      1(  21)  ---------------------------------------


    POTLOK:  cpu time    0.4868: real time    0.4903
    SETDIJ:  cpu time    0.5117: real time    0.5117
     EDDAV:  cpu time   50.2980: real time   50.3083
       DOS:  cpu time    0.0015: real time    0.0015
    --------------------------------------------
      LOOP:  cpu time   51.2980: real time   51.3118

 eigenvalue-minimisations  :  3152
 total energy-change (2. order) : 0.8676579E-09  (-0.1194741E-10)
 number of electron     511.9999998 magnetization 
 augmentation part      -29.4728081 magnetization 

 Free energy of the ion-electron system (eV)
  ---------------------------------------------------
  alpha Z        PSCENC =       210.77028614
  Ewald energy   TEWEN  =    -14463.37158857
  -Hartree energ DENC   =     -1008.29351195
  -exchange      EXHF   =         0.00000000
  -V(xc)+E(xc)   XCENC  =     -1155.86555531
  PAW double counting   =      4731.01014327    -2492.73973694
  entropy T*S    EENTRO =        -0.00000000
  eigenvalues    EBANDS =       307.52415204
  atomic energy  EATOM  =     13192.48085998
  Solvation  Ediel_sol  =         0.00000000
  ---------------------------------------------------
  free energy    TOTEN  =      -678.48495133 eV

  energy without entropy =     -678.48495133  energy(sigma->0) =     -678.48495133


--------------------------------------------------------------------------------------------------------




 average (electrostatic) potential at core
  the test charge radii are     0.9892
  (the norm of the test charge is              1.0000)
       1 -83.5890       2 -83.5355       3 -83.4839       4 -83.5304       5 -83.6168
       6 -83.5478       7 -83.6222       8 -83.6296       9 -83.5485      10 -83.6071
      11 -83.6313      12 -83.5733      13 -83.5894      14 -83.6269      15 -83.6490
      16 -83.4899      17 -83.3362      18 -83.3595      19 -83.4877      20 -83.5391
      21 -83.3881      22 -83.4629      23 -83.5514      24 -83.5655      25 -83.3507
      26 -83.4307      27 -83.5675      28 -83.4615      29 -83.4443      30 -83.5016
      31 -83.5125      32 -83.3930      33 -83.3904      34 -83.3169      35 -83.5020
      36 -83.3584      37 -83.4308      38 -83.5602      39 -83.5539      40 -83.6277
      41 -83.5259      42 -83.4196      43 -83.4184      44 -83.4729      45 -83.4442
      46 -83.3764      47 -83.5195      48 -83.6257      49 -83.4377      50 -83.6302
      51 -83.5202      52 -83.5508      53 -83.6329      54 -83.6299      55 -83.5983
      56 -83.5638      57 -83.5455      58 -83.5357      59 -83.5666      60 -83.5794
      61 -83.5993      62 -83.5035      63 -83.6576      64 -83.5894      65 -83.3936
      66 -83.5888      67 -83.4907      68 -83.6246      69 -83.5890      70 -83.6352
      71 -83.6737      72 -83.5869      73 -83.4718      74 -83.6443      75 -83.6431
      76 -83.4924      77 -83.6562      78 -83.6560      79 -83.7006      80 -83.5676
      81 -83.3751      82 -83.3301      83 -83.5153      84 -83.4824      85 -83.4829
      86 -83.4947      87 -83.5101      88 -83.5280      89 -83.3586      90 -83.4170
      91 -83.4111      92 -83.4445      93 -83.3755      94 -83.5543      95 -83.3879
      96 -83.5473      97 -83.3151      98 -83.5036      99 -83.4706     100 -83.4760
     101 -83.5498     102 -83.5783     103 -83.5319     104 -83.4715     105 -83.4342
     106 -83.4451     107 -83.3993     108 -83.5816     109 -83.4727     110 -83.4170
     111 -83.5259     112 -83.5569     113 -83.5171     114 -83.4375     115 -83.4898
     116 -83.4482     117 -83.6854     118 -83.6429     119 -83.5595     120 -83.6486
     121 -83.4817     122 -83.5428     123 -83.5778     124 -83.4436     125 -83.5482
     126 -83.7421     127 -83.5618     128 -83.5330
 
 
 
 E-fermi :   5.9772     XC(G=0):  -9.3332     alpha+bet :-11.7321


 k-point     1 :       0.0000    0.0000    0.0000
  band No.  band energies     occupation 
      1      -6.3208      2.00000
      2      -5.7096      2.00000
      3      -5.6847      2.00000
      4      -5.6700      2.00000
      5      -5.5524      2.00000
      6      -5.5501      2.00000
      7      -5.4953      2.00000
      8      -5.4389      2.00000
      9      -5.4166      2.00000
     10      -5.3128      2.00000
     11      -5.2529      2.00000
     12      -5.1904      2.00000
     13      -5.1650      2.00000
     14      -5.1519      2.00000
     15      -5.0785      2.00000
     16      -4.5167      2.00000
     17      -4.4471      2.00000
     18      -4.4184      2.00000
     19      -4.3959      2.00000
     20      -4.3840      2.00000
     21      -4.3485      2.00000
     22      -4.3306      2.00000
     23      -4.2656      2.00000
     24      -4.2412      2.00000
     25      -4.2228      2.00000
     26      -4.2160      2.00000
     27      -4.1270      2.00000
     28      -4.1199      2.00000
     29      -4.0396      2.00000
     30      -4.0222      2.00000
     31      -3.9609      2.00000
     32      -3.9159      2.00000
     33      -3.8494      2.00000
     34      -3.8032      2.00000
     35      -3.7883      2.00000
     36      -3.7455      2.00000
     37      -3.7241      2.00000
     38      -3.6913      2.00000
     39      -3.6598      2.00000
     40      -3.6379      2.00000
     41      -3.6048      2.00000
     42      -3.5596      2.00000
     43      -3.5367      2.00000
     44      -3.5135      2.00000
     45      -3.4997      2.00000
[...]
   -.106E+02 -.394E+01 0.109E+02   0.101E+02 0.368E+01 -.106E+02   0.281E+01 0.966E+00 -.317E+00   0.162E-06 -.126E-05 0.116E-06
   -.826E+01 -.852E+00 -.809E+01   0.782E+01 0.892E+00 0.666E+01   0.293E+01 0.116E+01 0.286E+01   -.106E-05 0.161E-05 0.267E-05
   -.401E+01 -.133E+02 -.439E+01   0.453E+01 0.126E+02 0.387E+01   0.764E+00 0.199E+01 0.509E+00   -.152E-05 -.163E-06 0.219E-06
   -.105E+02 0.117E+02 0.466E+01   0.102E+02 -.106E+02 -.484E+01   0.213E+01 -.284E+01 0.502E+00   -.645E-06 -.237E-05 0.111E-05
   -.114E+02 0.453E+01 -.412E+01   0.108E+02 -.441E+01 0.338E+01   0.279E+01 -.729E-02 0.144E+01   -.134E-05 -.867E-06 0.942E-07
   -.272E+01 0.139E+00 0.128E+02   0.269E+01 0.178E-01 -.110E+02   -.117E+00 -.185E+01 -.397E+01   -.502E-06 -.186E-05 -.468E-06
   -.674E+01 -.738E+01 -.413E+01   0.604E+01 0.672E+01 0.313E+01   0.989E+00 0.111E+01 0.169E+01   0.958E-06 -.590E-06 0.293E-05
   -.710E+01 0.707E+01 0.604E+00   0.668E+01 -.704E+01 -.778E+00   0.579E+00 -.107E+01 0.250E+00   0.102E-05 -.203E-05 0.836E-06
   -.894E+01 -.345E+01 -.188E+01   0.856E+01 0.386E+01 0.189E+01   0.788E+00 0.721E+00 0.132E+01   0.137E-06 -.710E-06 0.113E-05
   -.335E+01 -.146E+01 0.763E+01   0.325E+01 0.118E+01 -.661E+01   -.171E+00 -.157E+01 -.891E+00   -.407E-06 0.471E-06 0.128E-05
   0.896E+01 -.321E+01 -.675E+01   -.801E+01 0.256E+01 0.600E+01   -.247E+01 0.314E+00 0.213E+01   -.925E-06 -.329E-06 0.167E-05
   -.180E+01 -.441E+00 -.748E+01   0.172E+01 -.206E+00 0.661E+01   -.285E+00 0.877E+00 0.278E+01   -.201E-06 -.226E-05 0.835E-06
   -.859E+01 -.890E+01 0.496E+01   0.820E+01 0.816E+01 -.414E+01   0.171E+01 0.203E+01 -.737E+00   -.583E-06 -.717E-06 0.491E-06
   -.242E+01 -.953E+01 0.114E+02   0.197E+01 0.899E+01 -.102E+02   0.106E+01 0.716E+00 -.258E+01   -.172E-05 0.834E-06 0.641E-06
   0.235E+01 0.720E+00 -.541E+01   -.207E+01 -.547E+00 0.457E+01   -.985E+00 -.165E+01 0.921E+00   -.216E-05 -.171E-05 0.663E-06
   0.104E+02 0.790E+01 0.122E+01   -.977E+01 -.756E+01 -.986E+00   -.264E+01 -.575E+00 0.353E+00   -.170E-05 -.152E-05 0.441E-06
   0.186E+01 -.748E+01 0.525E+01   -.240E+01 0.695E+01 -.512E+01   0.409E+00 0.154E+01 -.589E+00   -.546E-07 -.284E-06 0.105E-05
   0.747E+01 -.188E+00 -.249E+01   -.660E+01 0.370E+00 0.272E+01   -.282E+01 -.126E+01 0.115E-01   -.308E-05 0.173E-06 0.626E-06
   0.918E+01 0.514E+01 -.100E+02   -.898E+01 -.531E+01 0.971E+01   -.139E+01 -.608E+00 0.153E+01   -.139E-05 -.658E-06 0.274E-06
   -.471E+01 0.875E+01 0.336E+01   0.412E+01 -.824E+01 -.331E+01   0.161E-01 -.128E+01 -.194E+00   -.892E-06 -.900E-06 0.350E-06
   -.199E+01 -.639E+01 -.415E-01   0.962E+00 0.558E+01 0.168E+00   0.989E+00 0.226E+01 -.305E+00   -.768E-07 0.502E-06 -.103E-06
   0.493E+01 0.461E+01 -.293E+00   -.484E+01 -.477E+01 0.919E-01   -.115E+01 -.136E+00 -.278E+00   0.995E-06 0.137E-05 0.134E-05
   -.963E+00 -.558E+00 -.260E+01   0.125E+00 -.116E+00 0.213E+01   -.377E+00 -.787E-01 -.739E+00   0.161E-05 -.526E-06 -.365E-06
   0.133E+01 0.772E+00 0.618E+01   -.172E+01 -.836E+00 -.535E+01   -.811E+00 0.172E+00 -.150E+01   0.379E-06 -.608E-07 -.170E-05
   -.620E+01 0.141E+01 -.110E+02   0.542E+01 -.961E+00 0.102E+02   0.972E+00 -.384E+00 0.263E+01   0.118E-05 0.248E-06 0.457E-06
   -.190E+00 0.669E+01 -.925E+01   -.618E-01 -.671E+01 0.865E+01   0.167E+00 -.220E+01 0.682E+00   -.484E-06 0.681E-07 -.418E-06
   0.642E+01 0.105E+02 -.301E+00   -.616E+01 -.100E+02 0.448E+00   -.852E+00 -.307E+01 0.307E+00   -.542E-06 -.920E-06 -.262E-06
   0.961E+01 0.144E+01 0.469E+01   -.934E+01 -.152E+01 -.382E+01   -.159E+01 0.770E+00 -.752E+00   0.697E-06 0.971E-06 -.976E-06
   0.916E+01 -.507E+01 0.910E+01   -.932E+01 0.469E+01 -.766E+01   0.850E+00 0.957E+00 -.236E+01   0.179E-05 0.176E-05 -.171E-05
   0.481E+01 0.537E+01 0.351E+01   -.508E+01 -.518E+01 -.333E+01   -.160E+00 -.215E+01 -.497E+00   0.448E-06 -.358E-06 0.140E-06
   0.156E+02 0.181E+01 0.161E+01   -.149E+02 -.249E+01 -.162E+01   -.338E+01 0.139E+01 -.153E+01   0.709E-06 0.507E-06 -.197E-06
   0.323E+01 -.829E+00 -.137E+01   -.309E+01 0.553E+00 0.118E+01   0.720E+00 0.435E+00 -.736E-01   0.124E-05 0.170E-05 -.516E-06
   0.103E+00 -.880E+01 0.318E+01   -.719E+00 0.855E+01 -.226E+01   -.225E-01 0.235E+01 -.300E+01   0.609E-06 0.718E-06 -.193E-05
   -.466E+01 0.111E+02 0.160E+00   0.422E+01 -.112E+02 0.713E+00   0.704E+00 -.178E+01 -.121E+01   -.206E-06 0.117E-05 -.922E-06
   -.611E+01 -.415E+01 -.776E+01   0.613E+01 0.274E+01 0.770E+01   0.105E+01 0.251E+01 0.250E+00   0.953E-06 0.913E-06 -.169E-05
   -.358E+01 0.474E+01 0.578E+01   0.426E+01 -.448E+01 -.506E+01   -.142E+01 -.109E+01 -.282E+01   0.480E-06 0.191E-05 -.112E-05
   0.800E+00 -.577E+01 0.919E+01   -.295E+00 0.521E+01 -.766E+01   -.251E+00 0.128E+01 -.206E+01   -.192E-07 0.950E-06 -.200E-05
   0.672E+01 0.390E+01 0.505E+01   -.633E+01 -.367E+01 -.503E+01   -.151E+01 0.864E+00 -.315E+01   0.894E-06 0.160E-06 -.170E-06
   0.625E+01 -.393E+01 -.679E+01   -.600E+01 0.381E+01 0.635E+01   0.768E-01 0.114E+01 0.840E+00   0.831E-06 0.140E-05 -.934E-06
   0.123E+02 -.166E+01 -.680E+01   -.113E+02 0.181E+01 0.555E+01   -.227E+01 0.817E+00 0.321E+01   0.153E-05 0.139E-05 -.353E-06
   0.673E+01 0.148E+02 -.744E+01   -.652E+01 -.131E+02 0.654E+01   -.353E+00 -.327E+01 0.133E+01   0.172E-05 -.171E-05 0.118E-06
   -.220E+01 0.590E+01 -.737E+01   0.198E+01 -.569E+01 0.716E+01   0.947E+00 -.825E+00 0.116E+01   0.367E-06 0.524E-06 -.234E-05
   0.113E+02 0.449E+01 0.801E+00   -.101E+02 -.393E+01 -.112E+01   -.235E+01 -.522E-01 0.179E+00   -.760E-07 0.235E-05 -.702E-06
   -.840E+01 0.983E+00 -.311E+01   0.791E+01 -.827E+00 0.298E+01   0.271E+01 0.107E+00 0.658E+00   0.106E-05 0.129E-05 -.147E-05
   -.236E+01 -.832E+01 -.764E+01   0.234E+01 0.662E+01 0.665E+01   0.739E+00 0.322E+01 0.159E+01   0.584E-06 0.135E-05 0.247E-07
   0.583E+01 -.148E+01 0.172E+01   -.555E+01 0.129E+01 -.240E+01   -.146E+01 0.104E+01 0.675E+00   0.129E-05 0.146E-06 0.162E-06
   0.294E+01 -.116E+02 -.271E+01   -.223E+01 0.106E+02 0.249E+01   -.603E+00 0.364E+01 0.629E+00   0.431E-06 0.130E-05 -.501E-06
   -.128E+02 -.309E+01 0.484E+01   0.119E+02 0.313E+01 -.474E+01   0.337E+01 -.384E+00 -.498E+00   0.191E-05 0.179E-05 -.564E-06
   0.241E+01 0.931E+01 -.715E+01   -.173E+01 -.861E+01 0.649E+01   -.489E+00 -.184E+01 0.229E+01   0.792E-06 -.936E-07 -.124E-05
   -.798E+01 0.138E+01 0.384E+00   0.748E+01 -.147E+01 0.391E+00   0.172E+01 0.192E+01 -.111E+01   -.325E-07 0.186E-05 -.142E-05
   0.889E+00 -.300E+00 -.599E+01   -.129E+01 0.522E+00 0.556E+01   0.176E+01 -.709E+00 -.227E+00   0.157E-05 0.182E-05 -.117E-06
   0.820E+01 0.616E+01 0.249E+00   -.709E+01 -.524E+01 0.924E-01   -.235E+01 -.169E+01 -.250E+00   0.289E-07 0.687E-06 -.228E-05
   0.473E+01 0.831E+01 -.456E+01   -.368E+01 -.837E+01 0.411E+01   -.212E+01 -.213E+01 0.171E+01   0.401E-06 0.742E-06 -.211E-05
 -----------------------------------------------------------------------------------------------
   0.276E+00 0.469E+00 0.187E+00   0.169E-13 -.124E-12 -.146E-12   -.276E+00 -.469E+00 -.187E+00   0.107E-05 -.954E-07 0.662E-06
 
 
 POSITION                                       TOTAL-FORCE (eV/Angst)
 -----------------------------------------------------------------------------------
     10.95576     10.94630      0.05858        -1.030900     -0.722438     -0.671811
     10.97515      2.72330     13.48825        -0.818135      0.439226      2.435211
     11.08926     16.29637      5.64916        -1.125163      1.151189     -2.422218
     10.96933     18.96941      8.26291        -0.414284      1.934054     -0.707588
      2.83599     10.87522     13.57380        -2.165233      0.326782     -0.064357
     13.58035     13.59890      5.49064         1.042871     -1.230738     -0.023559
     13.59500     16.35664      8.15870         1.231202     -0.422693      0.572501
      2.74084      8.24712     10.84860        -0.148474     -1.129593      0.504978
     16.43104     21.79553     16.42550        -1.234686      0.746554     -0.433067
     16.43636     13.60364      8.30310        -0.971267      0.333778      0.489610
      5.71248      5.44120     10.85445        -2.462168      0.201729      1.071190
     16.44100     19.07925     13.82318        -1.191324      0.795938     -2.020785
      8.30611     11.04507     19.00958        -2.526381     -2.172958     -0.437670
      8.21559      2.70809     10.88690        -0.221406     -1.661521      0.926874
     19.12078     16.28718     13.68101         0.312067      1.032078     -0.424842
     19.17905     19.12759     16.47546        -0.996625      1.051639     -1.384270
     13.56775     13.57495     21.83168         1.390772      0.381541      1.009056
      2.84069      5.41913      2.92609        -1.788575      0.806984     -0.378023
     13.57467      8.25434     16.40274         1.017890     -0.314717      0.379481
     13.52173     10.98143     19.17138         0.735430     -0.745613     -0.752027
      5.32285      2.60715      2.83355         1.553138      1.391521     -0.581036
      5.42861      5.33236      5.53180        -0.256157      0.941241     -0.274234
      5.49877      8.28029      8.27465        -1.435414     -1.265697     -1.768705
      5.44311     10.99964     10.90566        -0.294634     -0.761636     -0.929980
      8.02955      2.57961      5.51893         0.880043      1.475511     -0.585379
      8.29481      5.55714      8.07620        -0.013522     -0.335840      1.369636
      8.11282      8.18546     10.85522         0.844259      0.080783      1.494321
      8.20833     11.03355     13.65462        -0.188086     -1.514009     -0.362520
     10.86091     13.62501     19.06913         0.351823     -0.060226      0.835780
     10.90917      5.38819     10.88162         0.054798      0.706782      0.668184
     10.84884      8.26242     13.82951         1.091060     -0.352639     -1.446652
     10.94954     10.94325     16.31612        -0.793167     -0.791131      0.491116
     16.32628     16.26859     21.80606         1.195824      1.170642      0.944463
     16.32086      8.29200     13.66263         1.257314     -0.395435      0.268007
     16.36254     10.89602     16.31080         1.370833      0.321800      1.699865
     16.29392     13.75755     19.17696         0.394604     -1.677828     -1.003527
      8.29443     16.30449     13.65909        -0.259696      1.882167      0.301206
      8.03584      7.98173      5.36921         1.922434      2.347749      0.065222
      8.08549     10.89825      8.29968         1.875087      1.404891     -1.256840
      8.31727     13.69206     10.86703        -1.023885     -0.889673     -0.200284
     11.17101     16.32776     16.32427        -1.550809      1.059563      1.239989
     10.98001      8.13501      8.19690         0.159873      2.382634     -0.108854
     10.97999     10.95793     10.90531         0.793784     -0.707336     -0.201422
     10.91715     13.82533     13.64566        -0.527325     -1.328454      1.073678
     13.59442      5.31352      8.29963         1.205542      2.123347     -1.462967
     13.73525      8.13698     10.87313         0.184930     -0.584859      1.383348
     13.53757     10.97397     13.56041         1.389549      0.263626      0.452798
     13.62678     13.55057     16.29055         0.712548     -0.756952      2.603184
     19.20629     19.26395     21.77930         0.351019     -1.153402      1.427566
     19.14394     10.88423     13.45254        -0.798180      0.790663      1.467973
      8.35840     13.76272      5.49497        -0.597137     -2.217419     -0.878418
     19.07448     16.38678     19.09863         1.384775      0.818160     -0.618404
     10.92822     19.14964     13.60878         1.560396     -1.351110      1.023037
     10.93993     10.85956      5.37730         0.012243      1.122262     -0.221067
     11.05554     13.79693      8.27820        -1.091649     -2.284579     -1.228650
     11.27933     16.37835     11.02392        -3.547598     -0.148795     -0.707238
     13.73076      8.23631      5.50318        -0.151869      0.029045     -1.066704
     13.54932     10.91867      8.17787         1.071567     -1.342602     -0.512581
     13.72358     13.52657     11.02444        -0.528825     -0.497557     -1.177613
     13.75487     16.38660     13.61576        -0.762754      0.050289      1.224722
     16.30466      8.21534      8.25896         0.514959     -0.867785     -0.575700
     16.53513     10.93706     10.80692        -0.943234     -1.413342      1.148495
     16.37635     13.61398     13.66799        -0.326227      1.543211      0.619962
     16.53458     16.31510     16.52101        -1.149946      0.978870     -0.523459
      1.29631      1.33162      1.38650         1.696913     -0.359454     -0.678864
      1.38288      3.99180      4.23263        -0.683939      0.882576     -1.910291
      1.36412      6.79144      6.85159         0.663710      0.992764      0.050496
      1.37397      9.57652      9.58280        -1.107533     -0.378359     -0.231644
      3.93565      1.28711      4.01653         0.989405     -0.021103      2.225250
      4.04768      3.92221      6.81818         0.459869      0.666072      0.862225
      4.10005      6.77586      9.60443         0.714429     -0.061199     -0.693373
      3.98728      9.64374     12.13010         2.176703     -1.202967      0.714438
      6.68190      1.32437      6.88756         0.772722     -0.174552     -0.178040
      7.02598      4.06051      9.64088        -0.768442      0.967142     -2.620516
      6.76925      6.78863     12.43635         1.016855      0.188959     -0.973042
      6.74455      9.52251     15.07098         2.264516      0.708728      0.002667
      9.42345      1.26279      9.51832         2.500480      1.196743      1.432917
      9.46971      3.98010     12.26327         1.285864      1.277280     -0.014249
      9.37841      6.90261     15.01703         1.797176     -1.681653      0.322308
      9.49951      9.56695     17.70817         2.246390      0.110848      0.694669
      4.13274      4.18334      1.59771        -0.142223     -1.694624     -2.214833
      4.12056      6.85320      4.15552         0.287263      0.453002      0.690518
      4.03027      9.69190      6.85425         0.156275     -1.041647      0.076222
      4.03326     12.23162      9.44051         0.408331      1.131069      1.338390
      6.83700      4.17835      4.09227        -0.269674     -1.856301      0.130501
      6.82426      6.78437      6.77330        -1.522284     -0.342073      1.379435
      6.81199      9.56145      9.51588        -0.373513      0.230396      1.909023
      6.70071     12.26593     12.31441         1.323143      1.287716      0.084195
      9.49435      4.03211      6.83368         0.609328      0.170875     -1.360119
      9.62982      6.94764      9.56191        -0.705838     -1.480008      0.087907
      9.71310      9.58068     12.22713        -1.974353     -0.227720      0.584902
      9.55289     12.30185     15.07578        -0.126273      1.008431     -0.455208
     12.33382      4.04589      9.57671        -1.948321     -1.083234      0.239755
     12.40003      6.83289     12.27728        -1.190412     -0.772710      1.229342
     12.34585      9.66284     15.02252        -0.567482     -0.771353     -0.145057
     12.21626     12.18318     17.74400        -0.035104      1.444295     -0.178285
      6.95234      6.87063      1.37032        -1.055291     -0.292749     -0.478646
      6.96507      9.64697      4.13980        -1.215401     -0.752571     -1.203920
      6.91794     12.37682      6.90584        -1.203954      0.107695     -0.674750
      6.81892     15.00840      9.40961         0.185537      0.066147      1.848861
      9.66269      6.94066      4.09408        -0.084956     -2.225740      0.084678
      9.54198      9.75334      6.80802        -0.593645     -2.575221      0.454588
      9.72753     12.22962      9.48121        -1.323358      0.685657      0.117481
      9.58670     15.04909     12.27757         0.698525      0.580051     -0.918873
     12.42842      6.93339      6.89292        -0.429303     -1.962418     -0.319721
     12.52193      9.51903      9.69417        -2.715073      0.714001     -1.542298
     12.11714     12.35299     12.34232         0.858059      0.158057     -0.268681
     12.41983     14.87167     15.07046        -0.637958      2.100347     -2.080406
     15.00814      6.82991      9.56819         0.269359     -1.830520     -0.341512
     14.93534      9.52984     12.22705         1.078157      1.095902      0.189568
     15.10731     12.32673     15.12865        -0.742830     -0.824605     -2.097927
     14.92252     14.94277     17.77339         0.253565      0.722091     -0.530342
      9.66924      9.51149      1.49988        -1.124120      1.087673     -3.131563
      9.55247     12.20648      3.94646         0.319014      1.014051      0.400528
      9.75362     14.94286      6.76945        -1.277300      0.971794      1.955211
      9.61106     17.77854      9.62282        -0.139371     -1.542489      0.424307
     12.30876      9.59120      3.96277         0.722874     -0.617110      0.950480
     12.29943     12.25220      6.84121        -1.152173      0.506526     -0.137392
     12.32148     14.96715      9.62653         2.215514      0.261672      0.525943
     12.38670     17.75165     12.32143         0.717086      1.517689      0.596978
     15.10884      9.54027      6.85314        -1.180616      0.843456     -0.006031
     15.02343     11.98439      9.50989         0.113846      2.720930      0.412219
     14.92784     15.05275     12.23616         2.503190     -0.348518     -0.403817
     15.03635     17.77374     14.99303         0.188131     -1.135216      1.629532
     17.73818      9.44011      9.50235         1.223715      1.833040     -0.334497
     17.63716     12.35014     12.26977         1.354480     -0.487364     -0.655857
     17.88952     15.02484     15.08767        -1.231892     -0.764089      0.092009
     17.80196     17.97715     17.75840        -1.075686     -2.183780      1.263209
 -----------------------------------------------------------------------------------
    total drift:                                0.000001     -0.000007     -0.000018


--------------------------------------------------------------------------------------------------------



  FREE ENERGIE OF THE ION-ELECTRON SYSTEM (eV)
  ---------------------------------------------------
  free  energy   TOTEN  =      -678.48495133 eV

  energy  without entropy=     -678.48495133  energy(sigma->0) =     -678.48495133
 


--------------------------------------------------------------------------------------------------------


    POTLOK:  cpu time    0.9973: real time    0.9979


--------------------------------------------------------------------------------------------------------


     LOOP+:  cpu time 1728.2393: real time 1728.8139
    4ORBIT:  cpu time    0.0000: real time    0.0000

 total amount of memory used by VASP MPI-rank0   221701. kBytes
=======================================================================

   base      :      30000. kBytes
   nonl-proj :      10690. kBytes
   fftplans  :      66746. kBytes
   grid      :      26864. kBytes
   one-center:         24. kBytes
   wavefun   :      87377. kBytes
 
  
  
 General timing and accounting informations for this job:
 ========================================================
  
                  Total CPU time used (sec):     1752.188
                            User time (sec):     1750.745
                          System time (sec):        1.444
                         Elapsed time (sec):     1753.785
  
                   Maximum memory used (kb):      337736.
                   Average memory used (kb):           0.
  
                          Minor page faults:       173865
                          Major page faults:            0
                 Voluntary context switches:         1339
