<?xml version="1.0" encoding="ISO-8859-1"?>
<modeling>
 <generator>
  <i name="program" type="string">vasp </i>
  <i name="version" type="string">5.4.4.18Apr17-6-g9f103f2a35  </i>
  <i name="subversion" type="string">(build Nov 08 2017 09:05:29) complex            parallel </i>
  <i name="platform" type="string">Intel_17.33 </i>
  <i name="date" type="string">2020 07 18 </i>
  <i name="time" type="string">20:42:35 </i>
 </generator>
 <incar>
  <i type="string" name="SYSTEM">potpaw_PBE@./ARUN.APL1ZEROSTATE</i>
  <i type="string" name="PREC">accurate</i>
  <i type="string" name="ALGO">Normal</i>
  <i type="int" name="NSIM">     4</i>
  <i type="logical" name="ADDGRID"> T  </i>
  <i type="int" name="NELM">   120</i>
  <i type="int" name="NELMIN">     4</i>
  <i name="EDIFF">      0.00000001</i>
  <i type="int" name="NSW">     0</i>
  <i type="int" name="ISYM">     2</i>
  <i name="ENMAX">    500.00000000</i>
  <i type="logical" name="LREAL"> F  </i>
  <i type="logical" name="LPLANE"> T  </i>
  <i type="int" name="ISMEAR">     0</i>
  <i name="SIGMA">      0.01000000</i>
  <i type="logical" name="LWAVE"> F  </i>
  <i type="logical" name="LCHARG"> F  </i>
  <i type="logical" name="LELF"> F  </i>
  <i type="logical" name="LAECHG"> F  </i>
  <v type="int" name="KPOINT_BSE">    -1     0     0     0</v>
  <i type="int" name="NELM">   120</i>
 </incar>
 <structure name="primitive_cell" >
  <crystal>
   <varray name="basis" >
    <v>       0.00000000      10.93733369      10.93733369 </v>
    <v>      10.93733369       0.00000000      10.93733369 </v>
    <v>      10.93733369      10.93733369       0.00000000 </v>
   </varray>
   <i name="volume">   2616.76295363 </i>
   <varray name="rec_basis" >
    <v>      -0.04571498       0.04571498       0.04571498 </v>
    <v>       0.04571498      -0.04571498       0.04571498 </v>
    <v>       0.04571498       0.04571498      -0.04571498 </v>
   </varray>
  </crystal>
  <varray name="positions" >
   <v>       0.00224555       0.00311066      -0.00142581 </v>
   <v>       0.06499800       0.06176988       0.05675189 </v>
   <v>      -0.18694290       0.06309831       0.06252407 </v>
   <v>       0.06135509       0.07577848      -0.19172029 </v>
   <v>       0.06206583      -0.19180597       0.05339143 </v>
   <v>       0.23938217      -0.00615155       0.00960936 </v>
   <v>       0.23739063      -0.00742501      -0.24224566 </v>
   <v>      -0.00163608      -0.00229448       0.24279357 </v>
   <v>      -0.00172402      -0.00699499      -0.23697421 </v>
   <v>      -0.23971052      -0.00745134       0.24374270 </v>
   <v>      -0.00203274       0.24628297      -0.24711615 </v>
   <v>      -0.01196018       0.25301246       0.00628155 </v>
   <v>      -0.25233686       0.24422394       0.00637058 </v>
   <v>       0.24591937      -0.25053022       0.00168129 </v>
   <v>      -0.00189416      -0.25461558       0.24762811 </v>
   <v>      -0.00576622      -0.25618900       0.01561641 </v>
   <v>      -0.25653794       0.01201511      -0.00908931 </v>
   <v>       0.30174051       0.05908456      -0.18570289 </v>
   <v>      -0.18688788       0.29594246       0.06861443 </v>
   <v>       0.05692435       0.30539136      -0.18000158 </v>
   <v>       0.30965794      -0.18842783       0.05424273 </v>
   <v>      -0.19363959       0.05678523       0.31197587 </v>
   <v>       0.05891629      -0.18331849       0.31099950 </v>
   <v>      -0.18671678       0.06653083      -0.18779228 </v>
   <v>      -0.19034574      -0.18732092       0.30425343 </v>
   <v>      -0.19146701       0.31801525      -0.18550018 </v>
   <v>       0.31921659      -0.19739158      -0.19004332 </v>
   <v>       0.05505332      -0.18625422      -0.19194468 </v>
   <v>      -0.18738863      -0.19355444       0.06209406 </v>
   <v>       0.24214901       0.24949753      -0.24925996 </v>
   <v>       0.23812247      -0.25004605      -0.23814783 </v>
   <v>       0.24506159      -0.25015582       0.24758043 </v>
   <v>      -0.24743080       0.24453509       0.25312788 </v>
   <v>      -0.26294031       0.27085712      -0.23958817 </v>
   <v>      -0.25439613      -0.25382155       0.25493739 </v>
   <v>       0.06253762       0.30469334       0.05514271 </v>
   <v>       0.30516647      -0.42370104       0.06608598 </v>
   <v>       0.06272324       0.31159821      -0.42813864 </v>
   <v>       0.31185376       0.06664763      -0.42983194 </v>
   <v>       0.05890837       0.06637975      -0.43072727 </v>
   <v>      -0.42783669       0.05452021       0.31396686 </v>
   <v>       0.31276133       0.07422761       0.05220884 </v>
   <v>       0.06269543      -0.43789196       0.30596003 </v>
   <v>      -0.43860893       0.31674166       0.05812575 </v>
   <v>      -0.43866962       0.06511033       0.05961072 </v>
   <v>       0.07535265       0.07072601       0.30713005 </v>
   <v>       0.06994491      -0.44021589       0.05114189 </v>
   <v>       0.00085589      -0.24202116       0.48495889 </v>
   <v>       0.00538747       0.25368387       0.23298437 </v>
   <v>       0.49588957      -0.24503501      -0.00675301 </v>
   <v>       0.25185228       0.25015646      -0.00850577 </v>
   <v>      -0.23927563      -0.00737601       0.49712828 </v>
   <v>       0.25007815      -0.49092571      -0.00629821 </v>
   <v>       0.49826097       0.00414387      -0.23993572 </v>
   <v>      -0.49456736       0.25111846       0.25163431 </v>
   <v>       0.00039898      -0.49724306      -0.24735377 </v>
   <v>       0.49855016      -0.24888618      -0.25382459 </v>
   <v>      -0.49336780      -0.00693031       0.24806195 </v>
   <v>      -0.24917727      -0.24447245      -0.00198803 </v>
   <v>      -0.25724653      -0.49786546      -0.24452762 </v>
   <v>       0.00315418      -0.49855825       0.23269961 </v>
   <v>       0.25754757      -0.00837404      -0.49941027 </v>
   <v>      -0.00939505       0.25824478      -0.49988575 </v>
   <v>       0.25163961       0.01589293       0.24383112 </v>
   <v>       0.24297954       0.24792714       0.48678949 </v>
   <v>       0.49922326       0.24672633      -0.00373641 </v>
   <v>      -0.25876187      -0.25179370       0.49768986 </v>
   <v>      -0.24746625      -0.48868136      -0.00811859 </v>
   <v>       0.00775557      -0.25263889      -0.25662696 </v>
   <v>      -0.24977490      -0.00403841      -0.25198223 </v>
   <v>       0.24405088       0.49435580       0.26403840 </v>
   <v>      -0.18263312       0.30853915       0.30410635 </v>
   <v>       0.32089061       0.30156664      -0.42914336 </v>
   <v>      -0.18656384      -0.18841584      -0.44721892 </v>
   <v>      -0.44122640      -0.17930818      -0.18505338 </v>
   <v>      -0.18016615      -0.19618406      -0.17618343 </v>
   <v>       0.31058689       0.31490449      -0.19036851 </v>
   <v>      -0.18945417      -0.43973382      -0.18549340 </v>
   <v>      -0.18901838       0.31155607      -0.43504416 </v>
   <v>      -0.43928988       0.30932666       0.31349323 </v>
   <v>       0.30675384      -0.18424303       0.31797686 </v>
   <v>       0.29581500      -0.42632575      -0.20008270 </v>
   <v>      -0.18514231      -0.43647993       0.30990043 </v>
   <v>      -0.43589916      -0.19059201       0.31937223 </v>
   <v>      -0.43897699       0.31913000      -0.19257719 </v>
   <v>       0.31184723      -0.19392835      -0.44053443 </v>
   <v>       0.31450694      -0.44026145       0.32071578 </v>
   <v>       0.48380899      -0.49138733       0.01367945 </v>
   <v>      -0.00577363      -0.00049890       0.49321012 </v>
   <v>       0.49574610      -0.00445050      -0.49952335 </v>
   <v>      -0.01799559      -0.48947702      -0.48915751 </v>
   <v>      -0.00387098      -0.49434622      -0.00336431 </v>
   <v>       0.49629424       0.02020817      -0.00631777 </v>
   <v>      -0.45330883       0.07223948      -0.18046629 </v>
   <v>      -0.18403571      -0.43802508       0.05467888 </v>
   <v>      -0.43491436      -0.44633437      -0.18881357 </v>
   <v>      -0.19896845      -0.42313961      -0.44131576 </v>
   <v>      -0.43058677      -0.43235856       0.05127114 </v>
   <v>       0.06390441      -0.43368470      -0.42998517 </v>
   <v>       0.06354217      -0.18872301      -0.43908346 </v>
   <v>      -0.43550806      -0.18127971      -0.43745927 </v>
   <v>       0.05872413      -0.43214197      -0.18645718 </v>
   <v>      -0.43474689       0.06614760      -0.43364068 </v>
   <v>      -0.19545818       0.05577831      -0.43232441 </v>
   <v>      -0.42667748      -0.20031588       0.05778310 </v>
   <v>      -0.24324135       0.49086334      -0.49270885 </v>
   <v>      -0.49199490       0.25083472       0.48842137 </v>
   <v>       0.25359132       0.49411090      -0.25529739 </v>
   <v>      -0.49623958       0.25311483      -0.24230766 </v>
   <v>      -0.48602226      -0.24954599       0.24145474 </v>
   <v>       0.49956698       0.49292550       0.24882930 </v>
   <v>       0.49497566      -0.48701179      -0.25824199 </v>
   <v>       0.24113999      -0.24701010      -0.49717619 </v>
   <v>       0.24466165      -0.49521958       0.49912173 </v>
   <v>      -0.25750561       0.25107731      -0.49062951 </v>
   <v>      -0.24662438       0.49506555       0.25542169 </v>
   <v>      -0.49728148      -0.26289117      -0.49936912 </v>
   <v>       0.30595723       0.31742864       0.05265055 </v>
   <v>       0.06553786       0.30861820       0.31648860 </v>
   <v>       0.30781788       0.31146491       0.31247690 </v>
   <v>       0.31489242       0.06504707       0.31169577 </v>
   <v>       0.24848573       0.25728638       0.23905146 </v>
   <v>      -0.25477620      -0.23470893      -0.25353493 </v>
   <v>       0.30589122      -0.41955320      -0.43556706 </v>
   <v>      -0.45218336       0.31905046      -0.42966250 </v>
   <v>      -0.42498916      -0.44655286      -0.44557737 </v>
   <v>      -0.44709054      -0.43498331       0.32305193 </v>
   <v>       0.49752739       0.49954451      -0.49564448 </v>
  </varray>
 </structure>
 <varray name="primitive_index" >
  <v type="int" >        1 </v>
  <v type="int" >       65 </v>
  <v type="int" >       68 </v>
  <v type="int" >      113 </v>
  <v type="int" >       77 </v>
  <v type="int" >        2 </v>
  <v type="int" >       50 </v>
  <v type="int" >       17 </v>
  <v type="int" >       49 </v>
  <v type="int" >       20 </v>
  <v type="int" >       53 </v>
  <v type="int" >        5 </v>
  <v type="int" >        8 </v>
  <v type="int" >       14 </v>
  <v type="int" >       29 </v>
  <v type="int" >       13 </v>
  <v type="int" >        4 </v>
  <v type="int" >      114 </v>
  <v type="int" >       72 </v>
  <v type="int" >      117 </v>
  <v type="int" >       78 </v>
  <v type="int" >       84 </v>
  <v type="int" >       93 </v>
  <v type="int" >      116 </v>
  <v type="int" >       96 </v>
  <v type="int" >      120 </v>
  <v type="int" >      126 </v>
  <v type="int" >      125 </v>
  <v type="int" >       80 </v>
  <v type="int" >       54 </v>
  <v type="int" >       62 </v>
  <v type="int" >       30 </v>
  <v type="int" >       24 </v>
  <v type="int" >       56 </v>
  <v type="int" >       32 </v>
  <v type="int" >       69 </v>
  <v type="int" >       74 </v>
  <v type="int" >      101 </v>
  <v type="int" >       98 </v>
  <v type="int" >       97 </v>
  <v type="int" >       83 </v>
  <v type="int" >       66 </v>
  <v type="int" >       89 </v>
  <v type="int" >       71 </v>
  <v type="int" >       67 </v>
  <v type="int" >       81 </v>
  <v type="int" >       73 </v>
  <v type="int" >       45 </v>
  <v type="int" >       21 </v>
  <v type="int" >       15 </v>
  <v type="int" >        6 </v>
  <v type="int" >       36 </v>
  <v type="int" >       10 </v>
  <v type="int" >       51 </v>
  <v type="int" >       23 </v>
  <v type="int" >       57 </v>
  <v type="int" >       63 </v>
  <v type="int" >       19 </v>
  <v type="int" >       16 </v>
  <v type="int" >       60 </v>
  <v type="int" >       25 </v>
  <v type="int" >       34 </v>
  <v type="int" >       37 </v>
  <v type="int" >       18 </v>
  <v type="int" >       38 </v>
  <v type="int" >        7 </v>
  <v type="int" >       48 </v>
  <v type="int" >       12 </v>
  <v type="int" >       61 </v>
  <v type="int" >       52 </v>
  <v type="int" >       26 </v>
  <v type="int" >       88 </v>
  <v type="int" >      102 </v>
  <v type="int" >      112 </v>
  <v type="int" >      127 </v>
  <v type="int" >      128 </v>
  <v type="int" >      118 </v>
  <v type="int" >      124 </v>
  <v type="int" >      104 </v>
  <v type="int" >       87 </v>
  <v type="int" >       94 </v>
  <v type="int" >      122 </v>
  <v type="int" >       92 </v>
  <v type="int" >       95 </v>
  <v type="int" >      119 </v>
  <v type="int" >      110 </v>
  <v type="int" >       90 </v>
  <v type="int" >       11 </v>
  <v type="int" >       33 </v>
  <v type="int" >       35 </v>
  <v type="int" >       41 </v>
  <v type="int" >        9 </v>
  <v type="int" >        3 </v>
  <v type="int" >      115 </v>
  <v type="int" >       76 </v>
  <v type="int" >      123 </v>
  <v type="int" >      108 </v>
  <v type="int" >       75 </v>
  <v type="int" >      105 </v>
  <v type="int" >      109 </v>
  <v type="int" >      111 </v>
  <v type="int" >      121 </v>
  <v type="int" >       99 </v>
  <v type="int" >      100 </v>
  <v type="int" >       79 </v>
  <v type="int" >       44 </v>
  <v type="int" >       39 </v>
  <v type="int" >       58 </v>
  <v type="int" >       55 </v>
  <v type="int" >       31 </v>
  <v type="int" >       27 </v>
  <v type="int" >       59 </v>
  <v type="int" >       46 </v>
  <v type="int" >       42 </v>
  <v type="int" >       40 </v>
  <v type="int" >       28 </v>
  <v type="int" >       47 </v>
  <v type="int" >       70 </v>
  <v type="int" >       85 </v>
  <v type="int" >       86 </v>
  <v type="int" >       82 </v>
  <v type="int" >       22 </v>
  <v type="int" >       64 </v>
  <v type="int" >      106 </v>
  <v type="int" >      103 </v>
  <v type="int" >      107 </v>
  <v type="int" >       91 </v>
  <v type="int" >       43 </v>
 </varray>
 <kpoints>
  <generation param="Gamma">
   <v type="int" name="divisions">       2        2        2 </v>
   <v name="usershift">      0.00000000       0.00000000       0.00000000 </v>
   <v name="genvec1">      0.50000000       0.00000000       0.00000000 </v>
   <v name="genvec2">      0.00000000       0.50000000       0.00000000 </v>
   <v name="genvec3">      0.00000000       0.00000000       0.50000000 </v>
   <v name="shift">      0.00000000       0.00000000       0.00000000 </v>
  </generation>
  <varray name="kpointlist" >
   <v>       0.00000000       0.00000000       0.00000000 </v>
   <v>       0.50000000       0.00000000       0.00000000 </v>
   <v>       0.00000000       0.50000000       0.00000000 </v>
   <v>       0.50000000       0.50000000       0.00000000 </v>
   <v>       0.00000000       0.00000000       0.50000000 </v>
   <v>       0.50000000       0.00000000       0.50000000 </v>
   <v>       0.00000000       0.50000000       0.50000000 </v>
   <v>       0.50000000       0.50000000       0.50000000 </v>
  </varray>
  <varray name="weights" >
   <v>       0.12500000 </v>
   <v>       0.12500000 </v>
   <v>       0.12500000 </v>
   <v>       0.12500000 </v>
   <v>       0.12500000 </v>
   <v>       0.12500000 </v>
   <v>       0.12500000 </v>
   <v>       0.12500000 </v>
  </varray>
 </kpoints>
 <parameters>
  <separator name="general" >
   <i type="string" name="SYSTEM">potpaw_PBE@./ARUN.APL1ZEROSTATE</i>
   <i type="logical" name="LCOMPAT"> F  </i>
  </separator>
  <separator name="electronic" >
   <i type="string" name="PREC">accura</i>
   <i name="ENMAX">    500.00000000</i>
   <i name="ENAUG">    322.06900000</i>
   <i name="EDIFF">      0.00000001</i>
   <i type="int" name="IALGO">    38</i>
   <i type="int" name="IWAVPR">    10</i>
   <i type="int" name="NBANDS">   322</i>
   <i name="NELECT">    512.00000000</i>
   <i type="int" name="TURBO">     0</i>
   <i type="int" name="IRESTART">     0</i>
   <i type="int" name="NREBOOT">     0</i>
   <i type="int" name="NMIN">     0</i>
   <i name="EREF">      0.00000000</i>
   <separator name="electronic smearing" >
    <i type="int" name="ISMEAR">     0</i>
    <i name="SIGMA">      0.01000000</i>
    <i name="KSPACING">      0.50000000</i>
    <i type="logical" name="KGAMMA"> T  </i>
   </separator>
   <separator name="electronic projectors" >
    <i type="logical" name="LREAL"> F  </i>
    <v name="ROPT">      0.00000000</v>
    <i type="int" name="LMAXPAW">  -100</i>
    <i type="int" name="LMAXMIX">     2</i>
    <i type="logical" name="NLSPLINE"> F  </i>
   </separator>
   <separator name="electronic startup" >
    <i type="int" name="ISTART">     0</i>
    <i type="int" name="ICHARG">     2</i>
    <i type="int" name="INIWAV">     1</i>
   </separator>
   <separator name="electronic spin" >
    <i type="int" name="ISPIN">     1</i>
    <i type="logical" name="LNONCOLLINEAR"> F  </i>
    <v name="MAGMOM">      1.00000000      1.00000000      1.00000000      1.00000000      1.00000000      1.00000000      1.00000000      1.00000000      1.00000000      1.00000000      1.00000000      1.00000000      1.00000000      1.00000000      1.00000000      1.00000000      1.00000000      1.00000000      1.00000000      1.00000000
      1.00000000      1.00000000      1.00000000      1.00000000      1.00000000      1.00000000      1.00000000      1.00000000      1.00000000      1.00000000      1.00000000      1.00000000      1.00000000      1.00000000      1.00000000      1.00000000      1.00000000      1.00000000      1.00000000      1.00000000
      1.00000000      1.00000000      1.00000000      1.00000000      1.00000000      1.00000000      1.00000000      1.00000000      1.00000000      1.00000000      1.00000000      1.00000000      1.00000000      1.00000000      1.00000000      1.00000000      1.00000000      1.00000000      1.00000000      1.00000000
      1.00000000      1.00000000      1.00000000      1.00000000      1.00000000      1.00000000      1.00000000      1.00000000      1.00000000      1.00000000      1.00000000      1.00000000      1.00000000      1.00000000      1.00000000      1.00000000      1.00000000      1.00000000      1.00000000      1.00000000
      1.00000000      1.00000000      1.00000000      1.00000000      1.00000000      1.00000000      1.00000000      1.00000000      1.00000000      1.00000000      1.00000000      1.00000000      1.00000000      1.00000000      1.00000000      1.00000000      1.00000000      1.00000000      1.00000000      1.00000000
      1.00000000      1.00000000      1.00000000      1.00000000      1.00000000      1.00000000      1.00000000      1.00000000      1.00000000      1.00000000      1.00000000      1.00000000      1.00000000      1.00000000      1.00000000      1.00000000      1.00000000      1.00000000      1.00000000      1.00000000
      1.00000000      1.00000000      1.00000000      1.00000000      1.00000000      1.00000000      1.00000000      1.00000000</v>
    <i name="NUPDOWN">     -1.00000000</i>
    <i type="logical" name="LSORBIT"> F  </i>
    <v name="SAXIS">      0.00000000      0.00000000      1.00000000</v>
    <i type="logical" name="LSPIRAL"> F  </i>
    <v name="QSPIRAL">      0.00000000      0.00000000      0.00000000</v>
    <i type="logical" name="LZEROZ"> F  </i>
   </separator>
   <separator name="electronic exchange-correlation" >
    <i type="logical" name="LASPH"> F  </i>
    <i type="logical" name="LMETAGGA"> F  </i>
   </separator>
   <separator name="electronic convergence" >
    <i type="int" name="NELM">   120</i>
    <i type="int" name="NELMDL">    -5</i>
    <i type="int" name="NELMIN">     4</i>
    <i name="ENINI">    500.00000000</i>
    <separator name="electronic convergence detail" >
     <i type="logical" name="LDIAG"> T  </i>
     <i type="logical" name="LSUBROT"> F  </i>
     <i name="WEIMIN">      0.00000000</i>
     <i name="EBREAK">      0.00000000</i>
     <i name="DEPER">      0.30000000</i>
     <i type="int" name="NRMM">     4</i>
     <i name="TIME">      0.40000000</i>
    </separator>
   </separator>
   <separator name="electronic mixer" >
    <i name="AMIX">      0.40000000</i>
    <i name="BMIX">      1.00000000</i>
    <i name="AMIN">      0.10000000</i>
    <i name="AMIX_MAG">      1.60000000</i>
    <i name="BMIX_MAG">      1.00000000</i>
    <separator name="electronic mixer details" >
     <i type="int" name="IMIX">     4</i>
     <i type="logical" name="MIXFIRST"> F  </i>
     <i type="int" name="MAXMIX">   -45</i>
     <i name="WC">    100.00000000</i>
     <i type="int" name="INIMIX">     1</i>
     <i type="int" name="MIXPRE">     1</i>
     <i type="int" name="MREMOVE">     5</i>
    </separator>
   </separator>
   <separator name="electronic dipolcorrection" >
    <i type="logical" name="LDIPOL"> F  </i>
    <i type="logical" name="LMONO"> F  </i>
    <i type="int" name="IDIPOL">     0</i>
    <i name="EPSILON">      1.00000000</i>
    <v name="DIPOL">   -100.00000000   -100.00000000   -100.00000000</v>
    <i name="EFIELD">      0.00000000</i>
   </separator>
  </separator>
  <separator name="grids" >
   <i type="int" name="NGX">   120</i>
   <i type="int" name="NGY">   120</i>
   <i type="int" name="NGZ">   120</i>
   <i type="int" name="NGXF">   240</i>
   <i type="int" name="NGYF">   240</i>
   <i type="int" name="NGZF">   240</i>
   <i type="logical" name="ADDGRID"> T  </i>
  </separator>
  <separator name="ionic" >
   <i type="int" name="NSW">     0</i>
   <i type="int" name="IBRION">    -1</i>
   <i type="int" name="MDALGO">     0</i>
   <i type="int" name="ISIF">     2</i>
   <i name="PSTRESS">      0.00000000</i>
   <i name="EDIFFG">      0.00000010</i>
   <i type="int" name="NFREE">     0</i>
   <i name="POTIM">      0.50000000</i>
   <i name="SMASS">     -3.00000000</i>
   <i name="SCALEE">      1.00000000</i>
  </separator>
  <separator name="ionic md" >
   <i name="TEBEG">      0.00010000</i>
   <i name="TEEND">      0.00010000</i>
   <i type="int" name="NBLOCK">     1</i>
   <i type="int" name="KBLOCK">     1</i>
   <i type="int" name="NPACO">   256</i>
   <i name="APACO">     16.00000000</i>
  </separator>
  <separator name="symmetry" >
   <i type="int" name="ISYM">     2</i>
   <i name="SYMPREC">      0.00001000</i>
  </separator>
  <separator name="dos" >
   <i type="int" name="LORBIT">     0</i>
   <v name="RWIGS">     -1.00000000</v>
   <i type="int" name="NEDOS">   301</i>
   <i name="EMIN">     10.00000000</i>
   <i name="EMAX">    -10.00000000</i>
   <i name="EFERMI">      0.00000000</i>
  </separator>
  <separator name="writing" >
   <i type="int" name="NWRITE">     2</i>
   <i type="logical" name="LWAVE"> F  </i>
   <i type="logical" name="LDOWNSAMPLE"> F  </i>
   <i type="logical" name="LCHARG"> F  </i>
   <i type="logical" name="LPARD"> F  </i>
   <i type="logical" name="LVTOT"> F  </i>
   <i type="logical" name="LVHAR"> F  </i>
   <i type="logical" name="LELF"> F  </i>
   <i type="logical" name="LOPTICS"> F  </i>
   <v name="STM">      0.00000000      0.00000000      0.00000000      0.00000000      0.00000000      0.00000000      0.00000000</v>
  </separator>
  <separator name="performance" >
   <i type="int" name="NPAR">     2</i>
   <i type="int" name="NSIM">     4</i>
   <i type="int" name="NBLK">    -1</i>
   <i type="logical" name="LPLANE"> T  </i>
   <i type="logical" name="LSCALAPACK"> T  </i>
   <i type="logical" name="LSCAAWARE"> F  </i>
   <i type="logical" name="LSCALU"> F  </i>
   <i type="logical" name="LASYNC"> F  </i>
   <i type="logical" name="LORBITALREAL"> F  </i>
  </separator>
  <separator name="miscellaneous" >
   <i type="int" name="IDIOT">     3</i>
   <i type="int" name="ISPECIAL">     0</i>
   <i type="logical" name="LMUSIC"> F  </i>
   <v name="POMASS">     28.08500000</v>
   <v name="DARWINR">      0.00000000</v>
   <v name="DARWINV">      1.00000000</v>
   <i type="logical" name="LCORR"> T  </i>
  </separator>
  <i type="logical" name="GGA_COMPAT"> T  </i>
  <i type="logical" name="LBERRY"> F  </i>
  <i type="int" name="ICORELEVEL">     0</i>
  <i type="logical" name="LDAU"> F  </i>
  <i type="int" name="I_CONSTRAINED_M">     0</i>
  <separator name="electronic exchange-correlation" >
   <i type="string" name="GGA">--</i>
   <i type="int" name="VOSKOWN">     0</i>
   <i type="logical" name="LHFCALC"> F  </i>
   <i type="string" name="PRECFOCK"></i>
   <i type="logical" name="LSYMGRAD"> F  </i>
   <i type="logical" name="LHFONE"> F  </i>
   <i type="logical" name="LRHFCALC"> F  </i>
   <i type="logical" name="LTHOMAS"> F  </i>
   <i type="logical" name="LMODELHF"> F  </i>
   <i name="ENCUT4O">     -1.00000000</i>
   <i type="int" name="EXXOEP">     0</i>
   <i type="int" name="FOURORBIT">     0</i>
   <i name="AEXX">      0.00000000</i>
   <i name="HFALPHA">      0.00000000</i>
   <i name="MCALPHA">      0.00000000</i>
   <i name="ALDAX">      1.00000000</i>
   <i name="AGGAX">      1.00000000</i>
   <i name="ALDAC">      1.00000000</i>
   <i name="AGGAC">      1.00000000</i>
   <i type="int" name="NKREDX">     1</i>
   <i type="int" name="NKREDY">     1</i>
   <i type="int" name="NKREDZ">     1</i>
   <i type="logical" name="SHIFTRED"> F  </i>
   <i type="logical" name="ODDONLY"> F  </i>
   <i type="logical" name="EVENONLY"> F  </i>
   <i type="int" name="LMAXFOCK">     0</i>
   <i type="int" name="NMAXFOCKAE">     0</i>
   <i type="logical" name="LFOCKAEDFT"> F  </i>
   <i name="HFSCREEN">      0.00000000</i>
   <i name="HFSCREENC">      0.00000000</i>
   <i type="int" name="NBANDSGWLOW">     0</i>
  </separator>
  <separator name="vdW DFT" >
   <i type="logical" name="LUSE_VDW"> F  </i>
   <i name="Zab_VDW">     -0.84910000</i>
   <i name="PARAM1">      0.12340000</i>
   <i name="PARAM2">      1.00000000</i>
   <i name="PARAM3">      0.00000000</i>
  </separator>
  <separator name="model GW" >
   <i type="int" name="MODEL_GW">     0</i>
   <i name="MODEL_EPS0">     12.26607635</i>
   <i name="MODEL_ALPHA">      1.00000000</i>
  </separator>
  <separator name="linear response parameters" >
   <i type="logical" name="LEPSILON"> F  </i>
   <i type="logical" name="LRPA"> F  </i>
   <i type="logical" name="LNABLA"> F  </i>
   <i type="logical" name="LVEL"> F  </i>
   <i type="int" name="KINTER">     0</i>
   <i name="CSHIFT">      0.10000000</i>
   <i name="OMEGAMAX">     -1.00000000</i>
   <i name="DEG_THRESHOLD">      0.00200000</i>
   <i name="RTIME">     -0.10000000</i>
   <i name="WPLASMAI">      0.00000000</i>
   <v name="DFIELD">      0.00000000      0.00000000      0.00000000</v>
   <v name="WPLASMA">      0.00000000      0.00000000      0.00000000      0.00000000      0.00000000      0.00000000      0.00000000      0.00000000      0.00000000</v>
  </separator>
  <separator name="orbital magnetization" >
   <i type="logical" name="NUCIND"> F  </i>
   <v name="MAGPOS">      0.00000000      0.00000000      0.00000000</v>
   <i type="logical" name="LNICSALL"> T  </i>
   <i type="logical" name="ORBITALMAG"> F  </i>
   <i type="logical" name="LMAGBLOCH"> F  </i>
   <i type="logical" name="LCHIMAG"> F  </i>
   <i type="logical" name="LGAUGE"> T  </i>
   <i type="int" name="MAGATOM">     0</i>
   <v name="MAGDIPOL">      0.00000000      0.00000000      0.00000000</v>
   <v name="AVECCONST">      0.00000000      0.00000000      0.00000000</v>
  </separator>
  <separator name="response functions" >
   <i type="logical" name="LADDER"> F  </i>
   <i type="logical" name="LRPAFORCE"> F  </i>
   <i type="logical" name="LFXC"> F  </i>
   <i type="logical" name="LHARTREE"> T  </i>
   <i type="int" name="IBSE">     0</i>
   <v type="int" name="KPOINT">    -1     0     0     0</v>
   <i type="logical" name="LTCTE"> F  </i>
   <i type="logical" name="LTETE"> F  </i>
   <i type="logical" name="LTRIPLET"> F  </i>
   <i type="logical" name="LFXCEPS"> F  </i>
   <i type="logical" name="LFXHEG"> F  </i>
   <i type="int" name="NATURALO">     2</i>
   <i type="logical" name="L2ORDER"> F  </i>
   <i type="logical" name="LMP2LT"> F  </i>
   <i type="logical" name="LUSEW"> F  </i>
   <i name="ENCUTGW">     -2.00000000</i>
   <i name="ENCUTGWSOFT">     -2.00000000</i>
   <i name="ENCUTLF">     -1.00000000</i>
   <i type="int" name="LMAXMP2">    -1</i>
   <i name="SCISSOR">      0.00000000</i>
   <i type="int" name="NOMEGA">     0</i>
   <i type="int" name="NOMEGAR">     0</i>
   <i type="int" name="NBANDSGW">    -1</i>
   <i type="int" name="NBANDSO">    -1</i>
   <i type="int" name="NBANDSV">    -1</i>
   <i type="int" name="NELM">   120</i>
   <i type="int" name="NELMHF">     1</i>
   <i type="int" name="DIM">     3</i>
   <i type="int" name="ANTIRES">     0</i>
   <i name="OMEGAMAX">    -30.00000000</i>
   <i name="OMEGAMIN">    -30.00000000</i>
   <i name="OMEGATL">   -200.00000000</i>
   <i type="int" name="OMEGAGRID">   140</i>
   <i name="CSHIFT">     -0.10000000</i>
   <i type="logical" name="SELFENERGY"> F  </i>
   <i type="logical" name="LSPECTRAL"> F  </i>
   <i type="logical" name="LSPECTRALGW"> F  </i>
   <i type="logical" name="LSINGLES"> F  </i>
   <i type="logical" name="LFERMIGW"> F  </i>
   <i type="logical" name="ODDONLYGW"> F  </i>
   <i type="logical" name="EVENONLYGW"> F  </i>
   <i type="int" name="NKREDLFX">     1</i>
   <i type="int" name="NKREDLFY">     1</i>
   <i type="int" name="NKREDLFZ">     1</i>
   <i type="int" name="MAXMEM">  2800</i>
   <i type="int" name="TELESCOPE">     0</i>
   <i type="int" name="TAUPAR">     1</i>
   <i type="int" name="OMEGAPAR">    -1</i>
   <i name="LAMBDA">      1.00000000</i>
  </separator>
  <separator name="External order field" >
   <i name="OFIELD_KAPPA">      0.00000000</i>
   <v name="OFIELD_K">      0.00000000      0.00000000      0.00000000</v>
   <i name="OFIELD_Q6_NEAR">      0.00000000</i>
   <i name="OFIELD_Q6_FAR">      0.00000000</i>
   <i name="OFIELD_A">      0.00000000</i>
  </separator>
 </parameters>
 <atominfo>
  <atoms>     128 </atoms>
  <types>       1 </types>
  <array name="atoms" >
   <dimension dim="1">ion</dimension>
   <field type="string">element</field>
   <field type="int">atomtype</field>
   <set>
    <rc><c>Si</c><c>   1</c></rc>
    <rc><c>Si</c><c>   1</c></rc>
    <rc><c>Si</c><c>   1</c></rc>
    <rc><c>Si</c><c>   1</c></rc>
    <rc><c>Si</c><c>   1</c></rc>
    <rc><c>Si</c><c>   1</c></rc>
    <rc><c>Si</c><c>   1</c></rc>
    <rc><c>Si</c><c>   1</c></rc>
    <rc><c>Si</c><c>   1</c></rc>
    <rc><c>Si</c><c>   1</c></rc>
    <rc><c>Si</c><c>   1</c></rc>
    <rc><c>Si</c><c>   1</c></rc>
    <rc><c>Si</c><c>   1</c></rc>
    <rc><c>Si</c><c>   1</c></rc>
    <rc><c>Si</c><c>   1</c></rc>
    <rc><c>Si</c><c>   1</c></rc>
    <rc><c>Si</c><c>   1</c></rc>
    <rc><c>Si</c><c>   1</c></rc>
    <rc><c>Si</c><c>   1</c></rc>
    <rc><c>Si</c><c>   1</c></rc>
    <rc><c>Si</c><c>   1</c></rc>
    <rc><c>Si</c><c>   1</c></rc>
    <rc><c>Si</c><c>   1</c></rc>
    <rc><c>Si</c><c>   1</c></rc>
    <rc><c>Si</c><c>   1</c></rc>
    <rc><c>Si</c><c>   1</c></rc>
    <rc><c>Si</c><c>   1</c></rc>
    <rc><c>Si</c><c>   1</c></rc>
    <rc><c>Si</c><c>   1</c></rc>
    <rc><c>Si</c><c>   1</c></rc>
    <rc><c>Si</c><c>   1</c></rc>
    <rc><c>Si</c><c>   1</c></rc>
    <rc><c>Si</c><c>   1</c></rc>
    <rc><c>Si</c><c>   1</c></rc>
    <rc><c>Si</c><c>   1</c></rc>
    <rc><c>Si</c><c>   1</c></rc>
    <rc><c>Si</c><c>   1</c></rc>
    <rc><c>Si</c><c>   1</c></rc>
    <rc><c>Si</c><c>   1</c></rc>
    <rc><c>Si</c><c>   1</c></rc>
    <rc><c>Si</c><c>   1</c></rc>
    <rc><c>Si</c><c>   1</c></rc>
    <rc><c>Si</c><c>   1</c></rc>
    <rc><c>Si</c><c>   1</c></rc>
    <rc><c>Si</c><c>   1</c></rc>
    <rc><c>Si</c><c>   1</c></rc>
    <rc><c>Si</c><c>   1</c></rc>
    <rc><c>Si</c><c>   1</c></rc>
    <rc><c>Si</c><c>   1</c></rc>
    <rc><c>Si</c><c>   1</c></rc>
    <rc><c>Si</c><c>   1</c></rc>
    <rc><c>Si</c><c>   1</c></rc>
    <rc><c>Si</c><c>   1</c></rc>
    <rc><c>Si</c><c>   1</c></rc>
    <rc><c>Si</c><c>   1</c></rc>
    <rc><c>Si</c><c>   1</c></rc>
    <rc><c>Si</c><c>   1</c></rc>
    <rc><c>Si</c><c>   1</c></rc>
    <rc><c>Si</c><c>   1</c></rc>
    <rc><c>Si</c><c>   1</c></rc>
    <rc><c>Si</c><c>   1</c></rc>
    <rc><c>Si</c><c>   1</c></rc>
    <rc><c>Si</c><c>   1</c></rc>
    <rc><c>Si</c><c>   1</c></rc>
    <rc><c>Si</c><c>   1</c></rc>
    <rc><c>Si</c><c>   1</c></rc>
    <rc><c>Si</c><c>   1</c></rc>
    <rc><c>Si</c><c>   1</c></rc>
    <rc><c>Si</c><c>   1</c></rc>
    <rc><c>Si</c><c>   1</c></rc>
    <rc><c>Si</c><c>   1</c></rc>
    <rc><c>Si</c><c>   1</c></rc>
    <rc><c>Si</c><c>   1</c></rc>
    <rc><c>Si</c><c>   1</c></rc>
    <rc><c>Si</c><c>   1</c></rc>
    <rc><c>Si</c><c>   1</c></rc>
    <rc><c>Si</c><c>   1</c></rc>
    <rc><c>Si</c><c>   1</c></rc>
    <rc><c>Si</c><c>   1</c></rc>
    <rc><c>Si</c><c>   1</c></rc>
    <rc><c>Si</c><c>   1</c></rc>
    <rc><c>Si</c><c>   1</c></rc>
    <rc><c>Si</c><c>   1</c></rc>
    <rc><c>Si</c><c>   1</c></rc>
    <rc><c>Si</c><c>   1</c></rc>
    <rc><c>Si</c><c>   1</c></rc>
    <rc><c>Si</c><c>   1</c></rc>
    <rc><c>Si</c><c>   1</c></rc>
    <rc><c>Si</c><c>   1</c></rc>
    <rc><c>Si</c><c>   1</c></rc>
    <rc><c>Si</c><c>   1</c></rc>
    <rc><c>Si</c><c>   1</c></rc>
    <rc><c>Si</c><c>   1</c></rc>
    <rc><c>Si</c><c>   1</c></rc>
    <rc><c>Si</c><c>   1</c></rc>
    <rc><c>Si</c><c>   1</c></rc>
    <rc><c>Si</c><c>   1</c></rc>
    <rc><c>Si</c><c>   1</c></rc>
    <rc><c>Si</c><c>   1</c></rc>
    <rc><c>Si</c><c>   1</c></rc>
    <rc><c>Si</c><c>   1</c></rc>
    <rc><c>Si</c><c>   1</c></rc>
    <rc><c>Si</c><c>   1</c></rc>
    <rc><c>Si</c><c>   1</c></rc>
    <rc><c>Si</c><c>   1</c></rc>
    <rc><c>Si</c><c>   1</c></rc>
    <rc><c>Si</c><c>   1</c></rc>
    <rc><c>Si</c><c>   1</c></rc>
    <rc><c>Si</c><c>   1</c></rc>
    <rc><c>Si</c><c>   1</c></rc>
    <rc><c>Si</c><c>   1</c></rc>
    <rc><c>Si</c><c>   1</c></rc>
    <rc><c>Si</c><c>   1</c></rc>
    <rc><c>Si</c><c>   1</c></rc>
    <rc><c>Si</c><c>   1</c></rc>
    <rc><c>Si</c><c>   1</c></rc>
    <rc><c>Si</c><c>   1</c></rc>
    <rc><c>Si</c><c>   1</c></rc>
    <rc><c>Si</c><c>   1</c></rc>
    <rc><c>Si</c><c>   1</c></rc>
    <rc><c>Si</c><c>   1</c></rc>
    <rc><c>Si</c><c>   1</c></rc>
    <rc><c>Si</c><c>   1</c></rc>
    <rc><c>Si</c><c>   1</c></rc>
    <rc><c>Si</c><c>   1</c></rc>
    <rc><c>Si</c><c>   1</c></rc>
    <rc><c>Si</c><c>   1</c></rc>
    <rc><c>Si</c><c>   1</c></rc>
   </set>
  </array>
  <array name="atomtypes" >
   <dimension dim="1">type</dimension>
   <field type="int">atomspertype</field>
   <field type="string">element</field>
   <field>mass</field>
   <field>valence</field>
   <field type="string">pseudopotential</field>
   <set>
    <rc><c> 128</c><c>Si</c><c>     28.08500000</c><c>      4.00000000</c><c> PAW_PBE Si 05Jan2001                   </c></rc>
   </set>
  </array>
 </atominfo>
 <structure name="initialpos" >
  <crystal>
   <varray name="basis" >
    <v>       0.00000000      10.93733369      10.93733369 </v>
    <v>      10.93733369       0.00000000      10.93733369 </v>
    <v>      10.93733369      10.93733369       0.00000000 </v>
   </varray>
   <i name="volume">   2616.76295363 </i>
   <varray name="rec_basis" >
    <v>      -0.04571498       0.04571498       0.04571498 </v>
    <v>       0.04571498      -0.04571498       0.04571498 </v>
    <v>       0.04571498       0.04571498      -0.04571498 </v>
   </varray>
  </crystal>
  <varray name="positions" >
   <v>       0.00224555       0.00311066       0.99857419 </v>
   <v>       0.23938217       0.99384845       0.00960936 </v>
   <v>       0.49629424       0.02020817       0.99368223 </v>
   <v>       0.74346206       0.01201511       0.99091069 </v>
   <v>       0.98803982       0.25301246       0.00628155 </v>
   <v>       0.25185228       0.25015646       0.99149423 </v>
   <v>       0.49922326       0.24672633       0.99626359 </v>
   <v>       0.74766314       0.24422394       0.00637058 </v>
   <v>       0.99612902       0.50565378       0.99663569 </v>
   <v>       0.25007815       0.50907429       0.99370179 </v>
   <v>       0.48380899       0.50861267       0.01367945 </v>
   <v>       0.75253375       0.51131864       0.99188141 </v>
   <v>       0.99423378       0.74381100       0.01561641 </v>
   <v>       0.24591937       0.74946978       0.00168129 </v>
   <v>       0.49588957       0.75496499       0.99324699 </v>
   <v>       0.75082273       0.75552755       0.99801197 </v>
   <v>       0.99836392       0.99770552       0.24279357 </v>
   <v>       0.25163961       0.01589293       0.24383112 </v>
   <v>       0.50663220       0.99306969       0.24806195 </v>
   <v>       0.76028948       0.99254866       0.24374270 </v>
   <v>       0.00538747       0.25368387       0.23298437 </v>
   <v>       0.24848573       0.25728638       0.23905146 </v>
   <v>       0.50543264       0.25111846       0.25163431 </v>
   <v>       0.75256920       0.24453509       0.25312788 </v>
   <v>       0.00315418       0.50144175       0.23269961 </v>
   <v>       0.24405088       0.49435580       0.26403840 </v>
   <v>       0.49956698       0.49292550       0.24882930 </v>
   <v>       0.75337562       0.49506555       0.25542169 </v>
   <v>       0.99810584       0.74538442       0.24762811 </v>
   <v>       0.24506159       0.74984418       0.24758043 </v>
   <v>       0.51397774       0.75045401       0.24145474 </v>
   <v>       0.74560387       0.74617845       0.25493739 </v>
   <v>       0.99422637       0.99950110       0.49321012 </v>
   <v>       0.25754757       0.99162596       0.50058973 </v>
   <v>       0.49574610       0.99554950       0.50047665 </v>
   <v>       0.76072437       0.99262399       0.49712828 </v>
   <v>       0.99060495       0.25824478       0.50011425 </v>
   <v>       0.24297954       0.24792714       0.48678949 </v>
   <v>       0.50800510       0.25083472       0.48842137 </v>
   <v>       0.74249439       0.25107731       0.50937049 </v>
   <v>       0.98200441       0.51052298       0.51084249 </v>
   <v>       0.24466165       0.50478042       0.49912173 </v>
   <v>       0.49752739       0.49954451       0.50435552 </v>
   <v>       0.75675865       0.49086334       0.50729115 </v>
   <v>       0.00085589       0.75797884       0.48495889 </v>
   <v>       0.24113999       0.75298990       0.50282381 </v>
   <v>       0.50271852       0.73710883       0.50063088 </v>
   <v>       0.74123813       0.74820630       0.49768986 </v>
   <v>       0.99827598       0.99300501       0.76302579 </v>
   <v>       0.23739063       0.99257499       0.75775434 </v>
   <v>       0.49826097       0.00414387       0.76006428 </v>
   <v>       0.75022510       0.99596159       0.74801777 </v>
   <v>       0.99796726       0.24628297       0.75288385 </v>
   <v>       0.24214901       0.24949753       0.75074004 </v>
   <v>       0.50376042       0.25311483       0.75769234 </v>
   <v>       0.73705969       0.27085712       0.76041183 </v>
   <v>       0.00039898       0.50275694       0.75264623 </v>
   <v>       0.25359132       0.49411090       0.74470261 </v>
   <v>       0.49497566       0.51298821       0.74175801 </v>
   <v>       0.74275347       0.50213454       0.75547238 </v>
   <v>       0.00775557       0.74736111       0.74337304 </v>
   <v>       0.23812247       0.74995395       0.76185217 </v>
   <v>       0.49855016       0.75111382       0.74617541 </v>
   <v>       0.74522380       0.76529107       0.74646507 </v>
   <v>       0.06499800       0.06176988       0.05675189 </v>
   <v>       0.31276133       0.07422761       0.05220884 </v>
   <v>       0.56133038       0.06511033       0.05961072 </v>
   <v>       0.81305710       0.06309831       0.06252407 </v>
   <v>       0.06253762       0.30469334       0.05514271 </v>
   <v>       0.30595723       0.31742864       0.05265055 </v>
   <v>       0.56139107       0.31674166       0.05812575 </v>
   <v>       0.81311212       0.29594246       0.06861443 </v>
   <v>       0.06994491       0.55978411       0.05114189 </v>
   <v>       0.30516647       0.57629896       0.06608598 </v>
   <v>       0.56941323       0.56764144       0.05127114 </v>
   <v>       0.81596429       0.56197492       0.05467888 </v>
   <v>       0.06206583       0.80819403       0.05339143 </v>
   <v>       0.30965794       0.81157217       0.05424273 </v>
   <v>       0.57332252       0.79968412       0.05778310 </v>
   <v>       0.81261137       0.80644556       0.06209406 </v>
   <v>       0.07535265       0.07072601       0.30713005 </v>
   <v>       0.31489242       0.06504707       0.31169577 </v>
   <v>       0.57216331       0.05452021       0.31396686 </v>
   <v>       0.80636041       0.05678523       0.31197587 </v>
   <v>       0.06553786       0.30861820       0.31648860 </v>
   <v>       0.30781788       0.31146491       0.31247690 </v>
   <v>       0.56071012       0.30932666       0.31349323 </v>
   <v>       0.81736688       0.30853915       0.30410635 </v>
   <v>       0.06269543       0.56210804       0.30596003 </v>
   <v>       0.31450694       0.55973855       0.32071578 </v>
   <v>       0.55290946       0.56501669       0.32305193 </v>
   <v>       0.81485769       0.56352007       0.30990043 </v>
   <v>       0.05891629       0.81668151       0.31099950 </v>
   <v>       0.30675384       0.81575697       0.31797686 </v>
   <v>       0.56410084       0.80940799       0.31937223 </v>
   <v>       0.80965426       0.81267908       0.30425343 </v>
   <v>       0.05890837       0.06637975       0.56927273 </v>
   <v>       0.31185376       0.06664763       0.57016806 </v>
   <v>       0.56525311       0.06614760       0.56635932 </v>
   <v>       0.80454182       0.05577831       0.56767559 </v>
   <v>       0.06272324       0.31159821       0.57186136 </v>
   <v>       0.32089061       0.30156664       0.57085664 </v>
   <v>       0.54781664       0.31905046       0.57033750 </v>
   <v>       0.81098162       0.31155607       0.56495584 </v>
   <v>       0.06390441       0.56631530       0.57001483 </v>
   <v>       0.30589122       0.58044680       0.56443294 </v>
   <v>       0.57501084       0.55344714       0.55442263 </v>
   <v>       0.80103155       0.57686039       0.55868424 </v>
   <v>       0.06354217       0.81127699       0.56091654 </v>
   <v>       0.31184723       0.80607165       0.55946557 </v>
   <v>       0.56449194       0.81872029       0.56254073 </v>
   <v>       0.81343616       0.81158416       0.55278108 </v>
   <v>       0.06135509       0.07577848       0.80827971 </v>
   <v>       0.30174051       0.05908456       0.81429711 </v>
   <v>       0.54669117       0.07223948       0.81953371 </v>
   <v>       0.81328322       0.06653083       0.81220772 </v>
   <v>       0.05692435       0.30539136       0.81999842 </v>
   <v>       0.31058689       0.31490449       0.80963149 </v>
   <v>       0.56102301       0.31913000       0.80742281 </v>
   <v>       0.80853299       0.31801525       0.81449982 </v>
   <v>       0.05872413       0.56785803       0.81354282 </v>
   <v>       0.29581500       0.57367425       0.79991730 </v>
   <v>       0.56508564       0.55366563       0.81118643 </v>
   <v>       0.81054583       0.56026618       0.81450660 </v>
   <v>       0.05505332       0.81374578       0.80805532 </v>
   <v>       0.31921659       0.80260842       0.80995668 </v>
   <v>       0.55877360       0.82069182       0.81494662 </v>
   <v>       0.81983385       0.80381594       0.82381657 </v>
  </varray>
 </structure>
 <calculation>
  <scstep>
   <time name="dav">   70.65   70.67</time>
   <time name="total">   71.65   71.68</time>
   <energy>
    <i name="alphaZ">    210.77028614 </i>
    <i name="ewald"> -14463.37158857 </i>
    <i name="hartreedc">   -763.71214431 </i>
    <i name="XCdc">  -1195.30256885 </i>
    <i name="pawpsdc">   4221.13331941 </i>
    <i name="pawaedc">  -1969.18571412 </i>
    <i name="eentropy">     -0.00246348 </i>
    <i name="bandstr">   2151.49193742 </i>
    <i name="atom">  13192.48085998 </i>
    <i name="e_fr_energy">   1384.30192364 </i>
    <i name="e_wo_entrp">   1384.30438712 </i>
    <i name="e_0_energy">   1384.30315538 </i>
   </energy>
  </scstep>
  <scstep>
   <time name="dav">   80.72   80.75</time>
   <time name="total">   80.72   80.75</time>
   <energy>
    <i name="e_fr_energy">   -536.53238940 </i>
    <i name="e_wo_entrp">   -536.53238939 </i>
    <i name="e_0_energy">   -536.53238939 </i>
   </energy>
  </scstep>
  <scstep>
   <time name="dav">   82.67   82.69</time>
   <time name="total">   82.68   82.70</time>
   <energy>
    <i name="e_fr_energy">   -686.06144790 </i>
    <i name="e_wo_entrp">   -686.06144790 </i>
    <i name="e_0_energy">   -686.06144790 </i>
   </energy>
  </scstep>
  <scstep>
   <time name="dav">   81.09   81.12</time>
   <time name="total">   81.09   81.12</time>
   <energy>
    <i name="e_fr_energy">   -690.25028369 </i>
    <i name="e_wo_entrp">   -690.25028369 </i>
    <i name="e_0_energy">   -690.25028369 </i>
   </energy>
  </scstep>
  <scstep>
   <time name="dav">   82.71   82.75</time>
   <time name="total">   85.92   85.96</time>
   <energy>
    <i name="e_fr_energy">   -690.39657048 </i>
    <i name="e_wo_entrp">   -690.39657048 </i>
    <i name="e_0_energy">   -690.39657048 </i>
   </energy>
  </scstep>
  <scstep>
   <time name="dav">   78.07   78.10</time>
   <time name="total">   82.27   82.30</time>
   <energy>
    <i name="e_fr_energy">   -681.93820140 </i>
    <i name="e_wo_entrp">   -681.93820140 </i>
    <i name="e_0_energy">   -681.93820140 </i>
   </energy>
  </scstep>
  <scstep>
   <time name="dav">   77.46   77.49</time>
   <time name="total">   81.66   81.69</time>
   <energy>
    <i name="e_fr_energy">   -678.40189249 </i>
    <i name="e_wo_entrp">   -678.40189249 </i>
    <i name="e_0_energy">   -678.40189249 </i>
   </energy>
  </scstep>
  <scstep>
   <time name="dav">   77.39   77.41</time>
   <time name="total">   81.58   81.61</time>
   <energy>
    <i name="e_fr_energy">   -678.45822275 </i>
    <i name="e_wo_entrp">   -678.45822275 </i>
    <i name="e_0_energy">   -678.45822275 </i>
   </energy>
  </scstep>
  <scstep>
   <time name="dav">   79.18   79.21</time>
   <time name="total">   83.38   83.41</time>
   <energy>
    <i name="e_fr_energy">   -678.48082651 </i>
    <i name="e_wo_entrp">   -678.48082651 </i>
    <i name="e_0_energy">   -678.48082651 </i>
   </energy>
  </scstep>
  <scstep>
   <time name="dav">   79.20   79.22</time>
   <time name="total">   83.41   83.44</time>
   <energy>
    <i name="e_fr_energy">   -678.48340079 </i>
    <i name="e_wo_entrp">   -678.48340079 </i>
    <i name="e_0_energy">   -678.48340079 </i>
   </energy>
  </scstep>
  <scstep>
   <time name="dav">   77.25   77.28</time>
   <time name="total">   81.46   81.49</time>
   <energy>
    <i name="e_fr_energy">   -678.48482811 </i>
    <i name="e_wo_entrp">   -678.48482811 </i>
    <i name="e_0_energy">   -678.48482811 </i>
   </energy>
  </scstep>
  <scstep>
   <time name="dav">   80.55   80.57</time>
   <time name="total">   84.77   84.79</time>
   <energy>
    <i name="e_fr_energy">   -678.48491548 </i>
    <i name="e_wo_entrp">   -678.48491548 </i>
    <i name="e_0_energy">   -678.48491548 </i>
   </energy>
  </scstep>
  <scstep>
   <time name="dav">   76.90   76.92</time>
   <time name="total">   81.10   81.12</time>
   <energy>
    <i name="e_fr_energy">   -678.48494209 </i>
    <i name="e_wo_entrp">   -678.48494209 </i>
    <i name="e_0_energy">   -678.48494209 </i>
   </energy>
  </scstep>
  <scstep>
   <time name="dav">   80.81   80.83</time>
   <time name="total">   85.02   85.04</time>
   <energy>
    <i name="e_fr_energy">   -678.48494901 </i>
    <i name="e_wo_entrp">   -678.48494901 </i>
    <i name="e_0_energy">   -678.48494901 </i>
   </energy>
  </scstep>
  <scstep>
   <time name="dav">   81.51   81.54</time>
   <time name="total">   85.73   85.76</time>
   <energy>
    <i name="e_fr_energy">   -678.48495162 </i>
    <i name="e_wo_entrp">   -678.48495162 </i>
    <i name="e_0_energy">   -678.48495162 </i>
   </energy>
  </scstep>
  <scstep>
   <time name="dav">   78.72   78.74</time>
   <time name="total">   82.89   82.91</time>
   <energy>
    <i name="e_fr_energy">   -678.48495133 </i>
    <i name="e_wo_entrp">   -678.48495133 </i>
    <i name="e_0_energy">   -678.48495133 </i>
   </energy>
  </scstep>
  <scstep>
   <time name="dav">   72.77   72.80</time>
   <time name="total">   76.93   76.96</time>
   <energy>
    <i name="e_fr_energy">   -678.48495124 </i>
    <i name="e_wo_entrp">   -678.48495124 </i>
    <i name="e_0_energy">   -678.48495124 </i>
   </energy>
  </scstep>
  <scstep>
   <time name="dav">   52.36   52.39</time>
   <time name="total">   56.52   56.54</time>
   <energy>
    <i name="e_fr_energy">   -678.48495138 </i>
    <i name="e_wo_entrp">   -678.48495138 </i>
    <i name="e_0_energy">   -678.48495138 </i>
   </energy>
  </scstep>
  <scstep>
   <time name="dav">   51.49   51.50</time>
   <time name="total">   55.63   55.65</time>
   <energy>
    <i name="e_fr_energy">   -678.48495132 </i>
    <i name="e_wo_entrp">   -678.48495132 </i>
    <i name="e_0_energy">   -678.48495132 </i>
   </energy>
  </scstep>
  <scstep>
   <time name="dav">   50.56   50.57</time>
   <time name="total">   54.70   54.71</time>
   <energy>
    <i name="e_fr_energy">   -678.48495133 </i>
    <i name="e_wo_entrp">   -678.48495133 </i>
    <i name="e_0_energy">   -678.48495133 </i>
   </energy>
  </scstep>
  <scstep>
   <time name="dav">   50.30   50.31</time>
   <time name="total">   51.30   51.31</time>
   <energy>
    <i name="alphaZ">    210.77028614 </i>
    <i name="ewald"> -14463.37158857 </i>
    <i name="hartreedc">  -1008.29351195 </i>
    <i name="XCdc">  -1155.86555531 </i>
    <i name="pawpsdc">   4731.01014327 </i>
    <i name="pawaedc">  -2492.73973694 </i>
    <i name="eentropy">     -0.00000000 </i>
    <i name="bandstr">    307.52415204 </i>
    <i name="atom">  13192.48085998 </i>
    <i name="e_fr_energy">   -678.48495133 </i>
    <i name="e_wo_entrp">   -678.48495133 </i>
    <i name="e_0_energy">   -678.48495133 </i>
   </energy>
  </scstep>
  <structure>
   <crystal>
    <varray name="basis" >
     <v>       0.00000000      10.93733369      10.93733369 </v>
     <v>      10.93733369       0.00000000      10.93733369 </v>
     <v>      10.93733369      10.93733369       0.00000000 </v>
    </varray>
    <i name="volume">   2616.76295363 </i>
    <varray name="rec_basis" >
     <v>      -0.04571498       0.04571498       0.04571498 </v>
     <v>       0.04571498      -0.04571498       0.04571498 </v>
     <v>       0.04571498       0.04571498      -0.04571498 </v>
    </varray>
   </crystal>
   <varray name="positions" >
    <v>       0.00224555       0.00311066       0.99857419 </v>
    <v>       0.23938217       0.99384845       0.00960936 </v>
    <v>       0.49629424       0.02020817       0.99368223 </v>
    <v>       0.74346206       0.01201511       0.99091069 </v>
    <v>       0.98803982       0.25301246       0.00628155 </v>
    <v>       0.25185228       0.25015646       0.99149423 </v>
    <v>       0.49922326       0.24672633       0.99626359 </v>
    <v>       0.74766314       0.24422394       0.00637058 </v>
    <v>       0.99612902       0.50565378       0.99663569 </v>
    <v>       0.25007815       0.50907429       0.99370179 </v>
    <v>       0.48380899       0.50861267       0.01367945 </v>
    <v>       0.75253375       0.51131864       0.99188141 </v>
    <v>       0.99423378       0.74381100       0.01561641 </v>
    <v>       0.24591937       0.74946978       0.00168129 </v>
    <v>       0.49588957       0.75496499       0.99324699 </v>
    <v>       0.75082273       0.75552755       0.99801197 </v>
    <v>       0.99836392       0.99770552       0.24279357 </v>
    <v>       0.25163961       0.01589293       0.24383112 </v>
    <v>       0.50663220       0.99306969       0.24806195 </v>
    <v>       0.76028948       0.99254866       0.24374270 </v>
    <v>       0.00538747       0.25368387       0.23298437 </v>
    <v>       0.24848573       0.25728638       0.23905146 </v>
    <v>       0.50543264       0.25111846       0.25163431 </v>
    <v>       0.75256920       0.24453509       0.25312788 </v>
    <v>       0.00315418       0.50144175       0.23269961 </v>
    <v>       0.24405088       0.49435580       0.26403840 </v>
    <v>       0.49956698       0.49292550       0.24882930 </v>
    <v>       0.75337562       0.49506555       0.25542169 </v>
    <v>       0.99810584       0.74538442       0.24762811 </v>
    <v>       0.24506159       0.74984418       0.24758043 </v>
    <v>       0.51397774       0.75045401       0.24145474 </v>
    <v>       0.74560387       0.74617845       0.25493739 </v>
    <v>       0.99422637       0.99950110       0.49321012 </v>
    <v>       0.25754757       0.99162596       0.50058973 </v>
    <v>       0.49574610       0.99554950       0.50047665 </v>
    <v>       0.76072437       0.99262399       0.49712828 </v>
    <v>       0.99060495       0.25824478       0.50011425 </v>
    <v>       0.24297954       0.24792714       0.48678949 </v>
    <v>       0.50800510       0.25083472       0.48842137 </v>
    <v>       0.74249439       0.25107731       0.50937049 </v>
    <v>       0.98200441       0.51052298       0.51084249 </v>
    <v>       0.24466165       0.50478042       0.49912173 </v>
    <v>       0.49752739       0.49954451       0.50435552 </v>
    <v>       0.75675865       0.49086334       0.50729115 </v>
    <v>       0.00085589       0.75797884       0.48495889 </v>
    <v>       0.24113999       0.75298990       0.50282381 </v>
    <v>       0.50271852       0.73710883       0.50063088 </v>
    <v>       0.74123813       0.74820630       0.49768986 </v>
    <v>       0.99827598       0.99300501       0.76302579 </v>
    <v>       0.23739063       0.99257499       0.75775434 </v>
    <v>       0.49826097       0.00414387       0.76006428 </v>
    <v>       0.75022510       0.99596159       0.74801777 </v>
    <v>       0.99796726       0.24628297       0.75288385 </v>
    <v>       0.24214901       0.24949753       0.75074004 </v>
    <v>       0.50376042       0.25311483       0.75769234 </v>
    <v>       0.73705969       0.27085712       0.76041183 </v>
    <v>       0.00039898       0.50275694       0.75264623 </v>
    <v>       0.25359132       0.49411090       0.74470261 </v>
    <v>       0.49497566       0.51298821       0.74175801 </v>
    <v>       0.74275347       0.50213454       0.75547238 </v>
    <v>       0.00775557       0.74736111       0.74337304 </v>
    <v>       0.23812247       0.74995395       0.76185217 </v>
    <v>       0.49855016       0.75111382       0.74617541 </v>
    <v>       0.74522380       0.76529107       0.74646507 </v>
    <v>       0.06499800       0.06176988       0.05675189 </v>
    <v>       0.31276133       0.07422761       0.05220884 </v>
    <v>       0.56133038       0.06511033       0.05961072 </v>
    <v>       0.81305710       0.06309831       0.06252407 </v>
    <v>       0.06253762       0.30469334       0.05514271 </v>
    <v>       0.30595723       0.31742864       0.05265055 </v>
    <v>       0.56139107       0.31674166       0.05812575 </v>
    <v>       0.81311212       0.29594246       0.06861443 </v>
    <v>       0.06994491       0.55978411       0.05114189 </v>
    <v>       0.30516647       0.57629896       0.06608598 </v>
    <v>       0.56941323       0.56764144       0.05127114 </v>
    <v>       0.81596429       0.56197492       0.05467888 </v>
    <v>       0.06206583       0.80819403       0.05339143 </v>
    <v>       0.30965794       0.81157217       0.05424273 </v>
    <v>       0.57332252       0.79968412       0.05778310 </v>
    <v>       0.81261137       0.80644556       0.06209406 </v>
    <v>       0.07535265       0.07072601       0.30713005 </v>
    <v>       0.31489242       0.06504707       0.31169577 </v>
    <v>       0.57216331       0.05452021       0.31396686 </v>
    <v>       0.80636041       0.05678523       0.31197587 </v>
    <v>       0.06553786       0.30861820       0.31648860 </v>
    <v>       0.30781788       0.31146491       0.31247690 </v>
    <v>       0.56071012       0.30932666       0.31349323 </v>
    <v>       0.81736688       0.30853915       0.30410635 </v>
    <v>       0.06269543       0.56210804       0.30596003 </v>
    <v>       0.31450694       0.55973855       0.32071578 </v>
    <v>       0.55290946       0.56501669       0.32305193 </v>
    <v>       0.81485769       0.56352007       0.30990043 </v>
    <v>       0.05891629       0.81668151       0.31099950 </v>
    <v>       0.30675384       0.81575697       0.31797686 </v>
    <v>       0.56410084       0.80940799       0.31937223 </v>
    <v>       0.80965426       0.81267908       0.30425343 </v>
    <v>       0.05890837       0.06637975       0.56927273 </v>
    <v>       0.31185376       0.06664763       0.57016806 </v>
    <v>       0.56525311       0.06614760       0.56635932 </v>
    <v>       0.80454182       0.05577831       0.56767559 </v>
    <v>       0.06272324       0.31159821       0.57186136 </v>
    <v>       0.32089061       0.30156664       0.57085664 </v>
    <v>       0.54781664       0.31905046       0.57033750 </v>
    <v>       0.81098162       0.31155607       0.56495584 </v>
    <v>       0.06390441       0.56631530       0.57001483 </v>
    <v>       0.30589122       0.58044680       0.56443294 </v>
    <v>       0.57501084       0.55344714       0.55442263 </v>
    <v>       0.80103155       0.57686039       0.55868424 </v>
    <v>       0.06354217       0.81127699       0.56091654 </v>
    <v>       0.31184723       0.80607165       0.55946557 </v>
    <v>       0.56449194       0.81872029       0.56254073 </v>
    <v>       0.81343616       0.81158416       0.55278108 </v>
    <v>       0.06135509       0.07577848       0.80827971 </v>
    <v>       0.30174051       0.05908456       0.81429711 </v>
    <v>       0.54669117       0.07223948       0.81953371 </v>
    <v>       0.81328322       0.06653083       0.81220772 </v>
    <v>       0.05692435       0.30539136       0.81999842 </v>
    <v>       0.31058689       0.31490449       0.80963149 </v>
    <v>       0.56102301       0.31913000       0.80742281 </v>
    <v>       0.80853299       0.31801525       0.81449982 </v>
    <v>       0.05872413       0.56785803       0.81354282 </v>
    <v>       0.29581500       0.57367425       0.79991730 </v>
    <v>       0.56508564       0.55366563       0.81118643 </v>
    <v>       0.81054583       0.56026618       0.81450660 </v>
    <v>       0.05505332       0.81374578       0.80805532 </v>
    <v>       0.31921659       0.80260842       0.80995668 </v>
    <v>       0.55877360       0.82069182       0.81494662 </v>
    <v>       0.81983385       0.80381594       0.82381657 </v>
   </varray>
  </structure>
  <varray name="forces" >
   <v>      -1.03089957      -0.72243780      -0.67181060 </v>
   <v>      -0.81813550       0.43922649       2.43521058 </v>
   <v>      -1.12516279       1.15118902      -2.42221816 </v>
   <v>      -0.41428443       1.93405444      -0.70758751 </v>
   <v>      -2.16523349       0.32678153      -0.06435652 </v>
   <v>       1.04287056      -1.23073828      -0.02355917 </v>
   <v>       1.23120222      -0.42269281       0.57250062 </v>
   <v>      -0.14847357      -1.12959339       0.50497845 </v>
   <v>      -1.23468575       0.74655373      -0.43306747 </v>
   <v>      -0.97126748       0.33377817       0.48960977 </v>
   <v>      -2.46216789       0.20172897       1.07118966 </v>
   <v>      -1.19132357       0.79593766      -2.02078453 </v>
   <v>      -2.52638086      -2.17295802      -0.43766964 </v>
   <v>      -0.22140606      -1.66152089       0.92687356 </v>
   <v>       0.31206652       1.03207828      -0.42484213 </v>
   <v>      -0.99662486       1.05163868      -1.38426997 </v>
   <v>       1.39077224       0.38154142       1.00905603 </v>
   <v>      -1.78857537       0.80698376      -0.37802278 </v>
   <v>       1.01788989      -0.31471666       0.37948135 </v>
   <v>       0.73543044      -0.74561343      -0.75202671 </v>
   <v>       1.55313803       1.39152088      -0.58103568 </v>
   <v>      -0.25615652       0.94124104      -0.27423394 </v>
   <v>      -1.43541362      -1.26569723      -1.76870455 </v>
   <v>      -0.29463410      -0.76163648      -0.92997995 </v>
   <v>       0.88004320       1.47551073      -0.58537884 </v>
   <v>      -0.01352215      -0.33583977       1.36963553 </v>
   <v>       0.84425948       0.08078258       1.49432060 </v>
   <v>      -0.18808631      -1.51400871      -0.36251990 </v>
   <v>       0.35182280      -0.06022558       0.83578030 </v>
   <v>       0.05479779       0.70678200       0.66818431 </v>
   <v>       1.09106041      -0.35263931      -1.44665233 </v>
   <v>      -0.79316740      -0.79113119       0.49111571 </v>
   <v>       1.19582449       1.17064202       0.94446324 </v>
   <v>       1.25731436      -0.39543454       0.26800692 </v>
   <v>       1.37083254       0.32180050       1.69986535 </v>
   <v>       0.39460368      -1.67782825      -1.00352704 </v>
   <v>      -0.25969575       1.88216684       0.30120598 </v>
   <v>       1.92243425       2.34774889       0.06522217 </v>
   <v>       1.87508681       1.40489092      -1.25683973 </v>
   <v>      -1.02388540      -0.88967275      -0.20028383 </v>
   <v>      -1.55080867       1.05956347       1.23998915 </v>
   <v>       0.15987338       2.38263364      -0.10885421 </v>
   <v>       0.79378402      -0.70733567      -0.20142192 </v>
   <v>      -0.52732484      -1.32845407       1.07367823 </v>
   <v>       1.20554151       2.12334669      -1.46296671 </v>
   <v>       0.18492972      -0.58485878       1.38334802 </v>
   <v>       1.38954888       0.26362599       0.45279784 </v>
   <v>       0.71254831      -0.75695200       2.60318361 </v>
   <v>       0.35101948      -1.15340152       1.42756612 </v>
   <v>      -0.79818028       0.79066292       1.46797332 </v>
   <v>      -0.59713700      -2.21741860      -0.87841848 </v>
   <v>       1.38477458       0.81815953      -0.61840434 </v>
   <v>       1.56039619      -1.35111034       1.02303675 </v>
   <v>       0.01224318       1.12226248      -0.22106669 </v>
   <v>      -1.09164936      -2.28457910      -1.22865038 </v>
   <v>      -3.54759836      -0.14879519      -0.70723847 </v>
   <v>      -0.15186927       0.02904483      -1.06670447 </v>
   <v>       1.07156674      -1.34260191      -0.51258077 </v>
   <v>      -0.52882549      -0.49755658      -1.17761251 </v>
   <v>      -0.76275416       0.05028901       1.22472250 </v>
   <v>       0.51495867      -0.86778477      -0.57570006 </v>
   <v>      -0.94323402      -1.41334245       1.14849474 </v>
   <v>      -0.32622652       1.54321109       0.61996200 </v>
   <v>      -1.14994580       0.97887023      -0.52345858 </v>
   <v>       1.69691326      -0.35945435      -0.67886387 </v>
   <v>      -0.68393904       0.88257618      -1.91029116 </v>
   <v>       0.66370964       0.99276428       0.05049557 </v>
   <v>      -1.10753327      -0.37835921      -0.23164444 </v>
   <v>       0.98940459      -0.02110270       2.22524977 </v>
   <v>       0.45986928       0.66607193       0.86222487 </v>
   <v>       0.71442877      -0.06119867      -0.69337270 </v>
   <v>       2.17670342      -1.20296733       0.71443809 </v>
   <v>       0.77272180      -0.17455213      -0.17804006 </v>
   <v>      -0.76844181       0.96714167      -2.62051626 </v>
   <v>       1.01685501       0.18895948      -0.97304153 </v>
   <v>       2.26451568       0.70872814       0.00266736 </v>
   <v>       2.50047966       1.19674341       1.43291732 </v>
   <v>       1.28586389       1.27727992      -0.01424855 </v>
   <v>       1.79717557      -1.68165274       0.32230754 </v>
   <v>       2.24639035       0.11084808       0.69466872 </v>
   <v>      -0.14222271      -1.69462411      -2.21483254 </v>
   <v>       0.28726298       0.45300210       0.69051779 </v>
   <v>       0.15627464      -1.04164684       0.07622226 </v>
   <v>       0.40833134       1.13106884       1.33838994 </v>
   <v>      -0.26967363      -1.85630129       0.13050054 </v>
   <v>      -1.52228434      -0.34207342       1.37943452 </v>
   <v>      -0.37351284       0.23039566       1.90902275 </v>
   <v>       1.32314311       1.28771614       0.08419471 </v>
   <v>       0.60932785       0.17087525      -1.36011885 </v>
   <v>      -0.70583782      -1.48000814       0.08790683 </v>
   <v>      -1.97435345      -0.22772049       0.58490190 </v>
   <v>      -0.12627344       1.00843137      -0.45520786 </v>
   <v>      -1.94832108      -1.08323427       0.23975478 </v>
   <v>      -1.19041200      -0.77271041       1.22934175 </v>
   <v>      -0.56748210      -0.77135274      -0.14505695 </v>
   <v>      -0.03510435       1.44429471      -0.17828471 </v>
   <v>      -1.05529083      -0.29274891      -0.47864584 </v>
   <v>      -1.21540094      -0.75257139      -1.20392033 </v>
   <v>      -1.20395445       0.10769458      -0.67474996 </v>
   <v>       0.18553719       0.06614662       1.84886092 </v>
   <v>      -0.08495633      -2.22573983       0.08467832 </v>
   <v>      -0.59364536      -2.57522108       0.45458809 </v>
   <v>      -1.32335832       0.68565665       0.11748076 </v>
   <v>       0.69852486       0.58005091      -0.91887326 </v>
   <v>      -0.42930334      -1.96241776      -0.31972129 </v>
   <v>      -2.71507295       0.71400141      -1.54229818 </v>
   <v>       0.85805940       0.15805722      -0.26868146 </v>
   <v>      -0.63795845       2.10034726      -2.08040606 </v>
   <v>       0.26935857      -1.83051978      -0.34151230 </v>
   <v>       1.07815736       1.09590169       0.18956793 </v>
   <v>      -0.74283042      -0.82460529      -2.09792667 </v>
   <v>       0.25356464       0.72209092      -0.53034159 </v>
   <v>      -1.12411953       1.08767263      -3.13156266 </v>
   <v>       0.31901369       1.01405103       0.40052831 </v>
   <v>      -1.27729966       0.97179403       1.95521082 </v>
   <v>      -0.13937061      -1.54248908       0.42430747 </v>
   <v>       0.72287398      -0.61710982       0.95047976 </v>
   <v>      -1.15217318       0.50652621      -0.13739244 </v>
   <v>       2.21551427       0.26167244       0.52594300 </v>
   <v>       0.71708591       1.51768886       0.59697827 </v>
   <v>      -1.18061573       0.84345643      -0.00603106 </v>
   <v>       0.11384614       2.72092957       0.41221910 </v>
   <v>       2.50319004      -0.34851765      -0.40381731 </v>
   <v>       0.18813055      -1.13521568       1.62953230 </v>
   <v>       1.22371512       1.83304034      -0.33449725 </v>
   <v>       1.35447997      -0.48736376      -0.65585681 </v>
   <v>      -1.23189249      -0.76408947       0.09200946 </v>
   <v>      -1.07568625      -2.18377997       1.26320858 </v>
  </varray>
  <varray name="stress" >
   <v>      11.36590444      -1.28465533       0.66653258 </v>
   <v>      -1.28465533      13.25638282       2.75980999 </v>
   <v>       0.66653258       2.75981000      14.02460306 </v>
  </varray>
  <energy>
   <i name="e_fr_energy">   -678.48495133 </i>
   <i name="e_wo_entrp">   -678.48495133 </i>
   <i name="e_0_energy">     -0.00000000 </i>
  </energy>
  <time name="totalsc"> 1728.24 1728.81</time>
  <eigenvalues>
   <array>
    <dimension dim="1">band</dimension>
    <dimension dim="2">kpoint</dimension>
    <dimension dim="3">spin</dimension>
    <field>eigene</field>
    <field>occ</field>
    <set>
     <set comment="spin 1">
      <set comment="kpoint 1">
       <r>   -6.3208    1.0000 </r>
       <r>   -5.7096    1.0000 </r>
       <r>   -5.6847    1.0000 </r>
       <r>   -5.6700    1.0000 </r>
       <r>   -5.5524    1.0000 </r>
       <r>   -5.5501    1.0000 </r>
       <r>   -5.4953    1.0000 </r>
       <r>   -5.4389    1.0000 </r>
       <r>   -5.4166    1.0000 </r>
       <r>   -5.3128    1.0000 </r>
       <r>   -5.2529    1.0000 </r>
       <r>   -5.1904    1.0000 </r>
       <r>   -5.1650    1.0000 </r>
       <r>   -5.1519    1.0000 </r>
       <r>   -5.0785    1.0000 </r>
       <r>   -4.5167    1.0000 </r>
       <r>   -4.4471    1.0000 </r>
       <r>   -4.4184    1.0000 </r>
       <r>   -4.3959    1.0000 </r>
       <r>   -4.3840    1.0000 </r>
       <r>   -4.3485    1.0000 </r>
       <r>   -4.3306    1.0000 </r>
       <r>   -4.2656    1.0000 </r>
       <r>   -4.2412    1.0000 </r>
       <r>   -4.2228    1.0000 </r>
       <r>   -4.2160    1.0000 </r>
       <r>   -4.1270    1.0000 </r>
       <r>   -4.1199    1.0000 </r>
       <r>   -4.0396    1.0000 </r>
       <r>   -4.0222    1.0000 </r>
       <r>   -3.9609    1.0000 </r>
       <r>   -3.9159    1.0000 </r>
       <r>   -3.8494    1.0000 </r>
       <r>   -3.8032    1.0000 </r>
       <r>   -3.7883    1.0000 </r>
       <r>   -3.7455    1.0000 </r>
       <r>   -3.7241    1.0000 </r>
       <r>   -3.6913    1.0000 </r>
       <r>   -3.6598    1.0000 </r>
       <r>   -3.6379    1.0000 </r>
       <r>   -3.6048    1.0000 </r>
       <r>   -3.5596    1.0000 </r>
       <r>   -3.5367    1.0000 </r>
       <r>   -3.5135    1.0000 </r>
       <r>   -3.4997    1.0000 </r>
       <r>   -3.4923    1.0000 </r>
       <r>   -3.4657    1.0000 </r>
       <r>   -3.4242    1.0000 </r>
       <r>   -3.4188    1.0000 </r>
       <r>   -3.3955    1.0000 </r>
       <r>   -3.3409    1.0000 </r>
       <r>   -3.3223    1.0000 </r>
       <r>   -3.2861    1.0000 </r>
       <r>   -3.2008    1.0000 </r>
       <r>   -3.1720    1.0000 </r>
       <r>   -2.3568    1.0000 </r>
       <r>   -2.2870    1.0000 </r>
       <r>   -2.2563    1.0000 </r>
       <r>   -2.2341    1.0000 </r>
       <r>   -2.1970    1.0000 </r>
       <r>   -2.1566    1.0000 </r>
       <r>   -2.1486    1.0000 </r>
       <r>   -2.1093    1.0000 </r>
       <r>   -2.0633    1.0000 </r>
       <r>   -2.0557    1.0000 </r>
       <r>   -2.0401    1.0000 </r>
       <r>   -2.0218    1.0000 </r>
       <r>   -1.9783    1.0000 </r>
       <r>   -1.9419    1.0000 </r>
       <r>   -1.9093    1.0000 </r>
       <r>   -1.8797    1.0000 </r>
       <r>   -1.7847    1.0000 </r>
       <r>   -1.7282    1.0000 </r>
       <r>   -1.4059    1.0000 </r>
       <r>   -1.3240    1.0000 </r>
       <r>   -1.3102    1.0000 </r>
       <r>   -1.2633    1.0000 </r>
       <r>   -1.0594    1.0000 </r>
       <r>   -1.0039    1.0000 </r>
       <r>   -0.9695    1.0000 </r>
       <r>   -0.9299    1.0000 </r>
       <r>   -0.8977    1.0000 </r>
       <r>   -0.8879    1.0000 </r>
       <r>   -0.8414    1.0000 </r>
       <r>   -0.8270    1.0000 </r>
       <r>   -0.8056    1.0000 </r>
       <r>   -0.7810    1.0000 </r>
       <r>   -0.7574    1.0000 </r>
       <r>   -0.7411    1.0000 </r>
       <r>   -0.7048    1.0000 </r>
       <r>   -0.6717    1.0000 </r>
       <r>   -0.6558    1.0000 </r>
       <r>   -0.6418    1.0000 </r>
       <r>   -0.6013    1.0000 </r>
       <r>   -0.5712    1.0000 </r>
       <r>   -0.5589    1.0000 </r>
       <r>   -0.5196    1.0000 </r>
       <r>   -0.5087    1.0000 </r>
       <r>   -0.4980    1.0000 </r>
       <r>   -0.3777    1.0000 </r>
       <r>   -0.3589    1.0000 </r>
       <r>    0.0112    1.0000 </r>
       <r>    0.0225    1.0000 </r>
       <r>    0.0766    1.0000 </r>
       <r>    0.0890    1.0000 </r>
       <r>    0.1096    1.0000 </r>
       <r>    0.1332    1.0000 </r>
       <r>    0.1688    1.0000 </r>
       <r>    0.2072    1.0000 </r>
       <r>    0.2786    1.0000 </r>
       <r>    0.3241    1.0000 </r>
       <r>    0.3518    1.0000 </r>
       <r>    0.4142    1.0000 </r>
       <r>    1.3712    1.0000 </r>
       <r>    1.4091    1.0000 </r>
       <r>    1.4605    1.0000 </r>
       <r>    1.4896    1.0000 </r>
       <r>    1.5239    1.0000 </r>
       <r>    1.5538    1.0000 </r>
       <r>    1.5791    1.0000 </r>
       <r>    1.5995    1.0000 </r>
       <r>    1.6150    1.0000 </r>
       <r>    1.6185    1.0000 </r>
       <r>    1.6374    1.0000 </r>
       <r>    1.6616    1.0000 </r>
       <r>    1.6900    1.0000 </r>
       <r>    1.7080    1.0000 </r>
       <r>    1.7194    1.0000 </r>
       <r>    1.7381    1.0000 </r>
       <r>    1.7602    1.0000 </r>
       <r>    1.7764    1.0000 </r>
       <r>    1.7812    1.0000 </r>
       <r>    1.8067    1.0000 </r>
       <r>    1.8119    1.0000 </r>
       <r>    1.8160    1.0000 </r>
       <r>    1.8450    1.0000 </r>
       <r>    1.8624    1.0000 </r>
       <r>    1.8769    1.0000 </r>
       <r>    1.8990    1.0000 </r>
       <r>    1.9107    1.0000 </r>
       <r>    1.9166    1.0000 </r>
       <r>    1.9231    1.0000 </r>
       <r>    1.9334    1.0000 </r>
       <r>    1.9717    1.0000 </r>
       <r>    1.9753    1.0000 </r>
       <r>    1.9803    1.0000 </r>
       <r>    2.0037    1.0000 </r>
       <r>    2.0188    1.0000 </r>
       <r>    2.0297    1.0000 </r>
       <r>    2.0363    1.0000 </r>
       <r>    2.0541    1.0000 </r>
       <r>    2.0739    1.0000 </r>
       <r>    2.1011    1.0000 </r>
       <r>    2.1250    1.0000 </r>
       <r>    2.1379    1.0000 </r>
       <r>    2.1587    1.0000 </r>
       <r>    2.1636    1.0000 </r>
       <r>    2.1862    1.0000 </r>
       <r>    2.1967    1.0000 </r>
       <r>    2.2102    1.0000 </r>
       <r>    2.2262    1.0000 </r>
       <r>    2.2387    1.0000 </r>
       <r>    2.2655    1.0000 </r>
       <r>    2.2724    1.0000 </r>
       <r>    2.2821    1.0000 </r>
       <r>    2.2990    1.0000 </r>
       <r>    2.3121    1.0000 </r>
       <r>    2.3416    1.0000 </r>
       <r>    2.3585    1.0000 </r>
       <r>    2.3819    1.0000 </r>
       <r>    2.4001    1.0000 </r>
       <r>    2.4312    1.0000 </r>
       <r>    2.4894    1.0000 </r>
       <r>    2.5677    1.0000 </r>
       <r>    2.5840    1.0000 </r>
       <r>    2.7175    1.0000 </r>
       <r>    2.7507    1.0000 </r>
       <r>    2.7897    1.0000 </r>
       <r>    2.8414    1.0000 </r>
       <r>    2.8783    1.0000 </r>
       <r>    2.8813    1.0000 </r>
       <r>    3.1372    1.0000 </r>
       <r>    3.2026    1.0000 </r>
       <r>    3.2296    1.0000 </r>
       <r>    3.2588    1.0000 </r>
       <r>    3.2808    1.0000 </r>
       <r>    3.2832    1.0000 </r>
       <r>    3.3273    1.0000 </r>
       <r>    3.3465    1.0000 </r>
       <r>    3.3660    1.0000 </r>
       <r>    3.3732    1.0000 </r>
       <r>    3.3927    1.0000 </r>
       <r>    3.3995    1.0000 </r>
       <r>    3.4254    1.0000 </r>
       <r>    3.4457    1.0000 </r>
       <r>    3.4706    1.0000 </r>
       <r>    3.5014    1.0000 </r>
       <r>    3.5065    1.0000 </r>
       <r>    3.5226    1.0000 </r>
       <r>    3.5377    1.0000 </r>
       <r>    3.5550    1.0000 </r>
       <r>    3.5594    1.0000 </r>
       <r>    3.5801    1.0000 </r>
       <r>    3.6189    1.0000 </r>
       <r>    3.6568    1.0000 </r>
       <r>    3.6802    1.0000 </r>
       <r>    3.6871    1.0000 </r>
       <r>    3.7151    1.0000 </r>
       <r>    3.7507    1.0000 </r>
       <r>    3.7592    1.0000 </r>
       <r>    3.8033    1.0000 </r>
       <r>    3.8235    1.0000 </r>
       <r>    3.8728    1.0000 </r>
       <r>    3.8981    1.0000 </r>
       <r>    3.9194    1.0000 </r>
       <r>    3.9402    1.0000 </r>
       <r>    4.0215    1.0000 </r>
       <r>    4.1247    1.0000 </r>
       <r>    4.1569    1.0000 </r>
       <r>    4.1949    1.0000 </r>
       <r>    4.2248    1.0000 </r>
       <r>    4.2449    1.0000 </r>
       <r>    4.2713    1.0000 </r>
       <r>    4.2865    1.0000 </r>
       <r>    4.3167    1.0000 </r>
       <r>    4.3304    1.0000 </r>
       <r>    4.3486    1.0000 </r>
       <r>    4.3814    1.0000 </r>
       <r>    4.4159    1.0000 </r>
       <r>    4.4354    1.0000 </r>
       <r>    4.4913    1.0000 </r>
       <r>    4.5087    1.0000 </r>
       <r>    4.5313    1.0000 </r>
       <r>    4.5493    1.0000 </r>
       <r>    4.5796    1.0000 </r>
       <r>    4.6174    1.0000 </r>
       <r>    4.7223    1.0000 </r>
       <r>    4.7349    1.0000 </r>
       <r>    4.7908    1.0000 </r>
       <r>    4.8312    1.0000 </r>
       <r>    4.8848    1.0000 </r>
       <r>    4.8996    1.0000 </r>
       <r>    4.9274    1.0000 </r>
       <r>    4.9632    1.0000 </r>
       <r>    4.9760    1.0000 </r>
       <r>    5.0042    1.0000 </r>
       <r>    5.0542    1.0000 </r>
       <r>    5.0840    1.0000 </r>
       <r>    5.1236    1.0000 </r>
       <r>    5.1762    1.0000 </r>
       <r>    5.1968    1.0000 </r>
       <r>    5.2376    1.0000 </r>
       <r>    5.3089    1.0000 </r>
       <r>    5.6692    1.0000 </r>
       <r>    5.7806    1.0000 </r>
       <r>    5.9280    1.0000 </r>
       <r>    6.1258    0.0000 </r>
       <r>    6.1758    0.0000 </r>
       <r>    6.2206    0.0000 </r>
       <r>    6.2356    0.0000 </r>
       <r>    6.2902    0.0000 </r>
       <r>    6.3293    0.0000 </r>
       <r>    6.5324    0.0000 </r>
       <r>    6.5612    0.0000 </r>
       <r>    6.6114    0.0000 </r>
       <r>    6.6315    0.0000 </r>
       <r>    6.6963    0.0000 </r>
       <r>    6.7141    0.0000 </r>
       <r>    6.7389    0.0000 </r>
       <r>    6.7862    0.0000 </r>
       <r>    6.8335    0.0000 </r>
       <r>    6.8475    0.0000 </r>
       <r>    6.8838    0.0000 </r>
       <r>    6.9352    0.0000 </r>
       <r>    6.9410    0.0000 </r>
       <r>    6.9525    0.0000 </r>
       <r>    6.9721    0.0000 </r>
       <r>    6.9772    0.0000 </r>
       <r>    6.9905    0.0000 </r>
       <r>    7.0170    0.0000 </r>
       <r>    7.0287    0.0000 </r>
       <r>    7.0400    0.0000 </r>
       <r>    7.0671    0.0000 </r>
       <r>    7.0795    0.0000 </r>
       <r>    7.0928    0.0000 </r>
       <r>    7.1201    0.0000 </r>
       <r>    7.1463    0.0000 </r>
       <r>    7.1730    0.0000 </r>
       <r>    7.1741    0.0000 </r>
       <r>    7.1819    0.0000 </r>
       <r>    7.2214    0.0000 </r>
       <r>    7.2235    0.0000 </r>
       <r>    7.2778    0.0000 </r>
       <r>    7.3071    0.0000 </r>
       <r>    7.3300    0.0000 </r>
       <r>    7.3791    0.0000 </r>
       <r>    7.3999    0.0000 </r>
       <r>    7.4645    0.0000 </r>
       <r>    7.5009    0.0000 </r>
       <r>    7.5319    0.0000 </r>
       <r>    7.5390    0.0000 </r>
       <r>    7.5514    0.0000 </r>
       <r>    7.5787    0.0000 </r>
       <r>    7.6652    0.0000 </r>
       <r>    7.7704    0.0000 </r>
       <r>    7.8280    0.0000 </r>
       <r>    7.8921    0.0000 </r>
       <r>    7.8965    0.0000 </r>
       <r>    7.9359    0.0000 </r>
       <r>    7.9513    0.0000 </r>
       <r>    8.0004    0.0000 </r>
       <r>    8.0064    0.0000 </r>
       <r>    8.0199    0.0000 </r>
       <r>    8.0556    0.0000 </r>
       <r>    8.0701    0.0000 </r>
       <r>    8.1012    0.0000 </r>
       <r>    8.1407    0.0000 </r>
       <r>    8.2140    0.0000 </r>
       <r>    8.2232    0.0000 </r>
       <r>    8.5302    0.0000 </r>
       <r>    8.5544    0.0000 </r>
       <r>    8.6116    0.0000 </r>
      </set>
      <set comment="kpoint 2">
       <r>   -6.1522    1.0000 </r>
       <r>   -6.1095    1.0000 </r>
       <r>   -5.7339    1.0000 </r>
       <r>   -5.6990    1.0000 </r>
       <r>   -5.6331    1.0000 </r>
       <r>   -5.5760    1.0000 </r>
       <r>   -5.5197    1.0000 </r>
[...]
       <r>    -3.1253    53.4591    99.9370 </r>
       <r>    -3.0705    30.5302   101.6086 </r>
       <r>    -3.0158    46.6761   104.1643 </r>
       <r>    -2.9610    50.8500   106.9485 </r>
       <r>    -2.9063    38.6240   109.0632 </r>
       <r>    -2.8515    31.0503   110.7633 </r>
       <r>    -2.7968    31.6809   112.4979 </r>
       <r>    -2.7420    44.5570   114.9375 </r>
       <r>    -2.6873    23.0798   116.2011 </r>
       <r>    -2.6325    35.8421   118.1636 </r>
       <r>    -2.5778    37.1333   120.1967 </r>
       <r>    -2.5230    28.4521   121.7545 </r>
       <r>    -2.4683     7.0796   122.1422 </r>
       <r>    -2.4135    11.1012   122.7500 </r>
       <r>    -2.3588     1.7963   122.8484 </r>
       <r>    -2.3040     2.8072   123.0021 </r>
       <r>    -2.2492    12.6065   123.6923 </r>
       <r>    -2.1945    19.0178   124.7335 </r>
       <r>    -2.1397    33.0640   126.5439 </r>
       <r>    -2.0850    28.1746   128.0865 </r>
       <r>    -2.0302    35.1577   130.0114 </r>
       <r>    -1.9755    15.6569   130.8687 </r>
       <r>    -1.9207    20.8945   132.0127 </r>
       <r>    -1.8660    12.1626   132.6787 </r>
       <r>    -1.8112     1.3030   132.7500 </r>
       <r>    -1.7565     4.5656   133.0000 </r>
       <r>    -1.7017     4.5759   133.2505 </r>
       <r>    -1.6470     9.3207   133.7609 </r>
       <r>    -1.5922    27.8574   135.2861 </r>
       <r>    -1.5375    41.6240   137.5652 </r>
       <r>    -1.4827    39.6444   139.7358 </r>
       <r>    -1.4280    34.4150   141.6201 </r>
       <r>    -1.3732    39.8106   143.7998 </r>
       <r>    -1.3185    41.2351   146.0575 </r>
       <r>    -1.2637    79.0511   150.3857 </r>
       <r>    -1.2090    62.2616   153.7947 </r>
       <r>    -1.1542    67.2018   157.4742 </r>
       <r>    -1.0995    55.8121   160.5300 </r>
       <r>    -1.0447    64.2658   164.0487 </r>
       <r>    -0.9899    60.6568   167.3698 </r>
       <r>    -0.9352    68.3659   171.1130 </r>
       <r>    -0.8804    54.2812   174.0851 </r>
       <r>    -0.8257    63.2407   177.5476 </r>
       <r>    -0.7709    64.3179   181.0692 </r>
       <r>    -0.7162    38.8374   183.1956 </r>
       <r>    -0.6614    29.7464   184.8243 </r>
       <r>    -0.6067    42.0961   187.1292 </r>
       <r>    -0.5519    33.3096   188.9530 </r>
       <r>    -0.4972    29.5832   190.5727 </r>
       <r>    -0.4424     6.3492   190.9203 </r>
       <r>    -0.3877    29.5170   192.5365 </r>
       <r>    -0.3329    53.7380   195.4787 </r>
       <r>    -0.2782    38.3193   197.5769 </r>
       <r>    -0.2234    56.0500   200.6457 </r>
       <r>    -0.1687    64.2072   204.1612 </r>
       <r>    -0.1139    46.8400   206.7258 </r>
       <r>    -0.0592    38.7361   208.8467 </r>
       <r>    -0.0044    38.7271   210.9671 </r>
       <r>     0.0503    26.7037   212.4292 </r>
       <r>     0.1051    21.8817   213.6273 </r>
       <r>     0.1598    11.8374   214.2754 </r>
       <r>     0.2146     8.3538   214.7328 </r>
       <r>     0.2693    17.5065   215.6913 </r>
       <r>     0.3241    17.7142   216.6612 </r>
       <r>     0.3789    31.8549   218.4054 </r>
       <r>     0.4336    24.5297   219.7484 </r>
       <r>     0.4884    23.4430   221.0320 </r>
       <r>     0.5431    23.5422   222.3210 </r>
       <r>     0.5979    28.1202   223.8607 </r>
       <r>     0.6526    20.9774   225.0092 </r>
       <r>     0.7074    12.6439   225.7015 </r>
       <r>     0.7621    14.9455   226.5198 </r>
       <r>     0.8169    19.6562   227.5960 </r>
       <r>     0.8716     5.7666   227.9117 </r>
       <r>     0.9264    14.0532   228.6812 </r>
       <r>     0.9811    24.2965   230.0115 </r>
       <r>     1.0359    29.8234   231.6444 </r>
       <r>     1.0906    36.2015   233.6265 </r>
       <r>     1.1454    19.4808   234.6931 </r>
       <r>     1.2001    24.5360   236.0365 </r>
       <r>     1.2549    23.0082   237.2963 </r>
       <r>     1.3096    25.8930   238.7139 </r>
       <r>     1.3644    31.2052   240.4225 </r>
       <r>     1.4191    48.8257   243.0958 </r>
       <r>     1.4739    77.7876   247.3549 </r>
       <r>     1.5286    71.9904   251.2965 </r>
       <r>     1.5834    79.5193   255.6504 </r>
       <r>     1.6381    85.0852   260.3090 </r>
       <r>     1.6929    73.0548   264.3089 </r>
       <r>     1.7477    49.8206   267.0367 </r>
       <r>     1.8024    44.6892   269.4836 </r>
       <r>     1.8572    46.6467   272.0376 </r>
       <r>     1.9119    26.0100   273.4617 </r>
       <r>     1.9667    23.4019   274.7431 </r>
       <r>     2.0214    40.3387   276.9517 </r>
       <r>     2.0762    76.2254   281.1252 </r>
       <r>     2.1309    88.9506   285.9954 </r>
       <r>     2.1857    97.3432   291.3252 </r>
       <r>     2.2404   111.7903   297.4459 </r>
       <r>     2.2952   121.3926   304.0925 </r>
       <r>     2.3499   109.3152   310.0777 </r>
       <r>     2.4047    92.3309   315.1331 </r>
       <r>     2.4594    74.9378   319.2361 </r>
       <r>     2.5142    49.5699   321.9502 </r>
       <r>     2.5689    27.0508   323.4313 </r>
       <r>     2.6237    63.1384   326.8883 </r>
       <r>     2.6784    67.7588   330.5982 </r>
       <r>     2.7332    79.4395   334.9477 </r>
       <r>     2.7879    91.7798   339.9729 </r>
       <r>     2.8427    89.6101   344.8792 </r>
       <r>     2.8974    91.6404   349.8968 </r>
       <r>     2.9522    99.2531   355.3311 </r>
       <r>     3.0069    90.3005   360.2753 </r>
       <r>     3.0617    88.7530   365.1347 </r>
       <r>     3.1165    91.8078   370.1614 </r>
       <r>     3.1712    73.4851   374.1849 </r>
       <r>     3.2260    85.2759   378.8539 </r>
       <r>     3.2807    89.1204   383.7335 </r>
       <r>     3.3355    87.4177   388.5198 </r>
       <r>     3.3902    91.5300   393.5312 </r>
       <r>     3.4450   103.7322   399.2108 </r>
       <r>     3.4997    84.1239   403.8168 </r>
       <r>     3.5545    82.0969   408.3118 </r>
       <r>     3.6092    75.0494   412.4210 </r>
       <r>     3.6640    68.5600   416.1748 </r>
       <r>     3.7187    62.0249   419.5708 </r>
       <r>     3.7735    91.4989   424.5806 </r>
       <r>     3.8282    80.1972   428.9715 </r>
       <r>     3.8830    89.3997   433.8664 </r>
       <r>     3.9377    85.2020   438.5313 </r>
       <r>     3.9925    53.9246   441.4839 </r>
       <r>     4.0472    72.4333   445.4498 </r>
       <r>     4.1020    70.7239   449.3221 </r>
       <r>     4.1567    74.6808   453.4111 </r>
       <r>     4.2115    76.1319   457.5795 </r>
       <r>     4.2662    55.1042   460.5965 </r>
       <r>     4.3210    62.4118   464.0137 </r>
       <r>     4.3757    75.1331   468.1274 </r>
       <r>     4.4305    77.6059   472.3766 </r>
       <r>     4.4853    64.8415   475.9268 </r>
       <r>     4.5400    67.6679   479.6318 </r>
       <r>     4.5948    59.2508   482.8759 </r>
       <r>     4.6495    53.8288   485.8232 </r>
       <r>     4.7043    42.3598   488.1425 </r>
       <r>     4.7590    29.9378   489.7816 </r>
       <r>     4.8138    21.7751   490.9739 </r>
       <r>     4.8685    23.5886   492.2654 </r>
       <r>     4.9233    42.1722   494.5744 </r>
       <r>     4.9780    37.2732   496.6152 </r>
       <r>     5.0328    57.4304   499.7597 </r>
       <r>     5.0875    30.5433   501.4320 </r>
       <r>     5.1423    20.5900   502.5594 </r>
       <r>     5.1970    19.5156   503.6279 </r>
       <r>     5.2518     6.6946   503.9944 </r>
       <r>     5.3065     6.6621   504.3592 </r>
       <r>     5.3613    10.7149   504.9459 </r>
       <r>     5.4160    29.6455   506.5690 </r>
       <r>     5.4708    24.6953   507.9211 </r>
       <r>     5.5255     8.7861   508.4022 </r>
       <r>     5.5803    22.0210   509.6079 </r>
       <r>     5.6350    11.6910   510.2480 </r>
       <r>     5.6898     6.7373   510.6169 </r>
       <r>     5.7446     7.8546   511.0470 </r>
       <r>     5.7993    12.7270   511.7438 </r>
       <r>     5.8541     0.1134   511.7500 </r>
       <r>     5.9088     0.0152   511.7508 </r>
       <r>     5.9636     4.5508   512.0000 </r>
       <r>     6.0183     0.0000   512.0000 </r>
       <r>     6.0731     0.0000   512.0000 </r>
       <r>     6.1278     9.0011   512.4928 </r>
       <r>     6.1826    17.6544   513.4594 </r>
       <r>     6.2373    21.1407   514.6169 </r>
       <r>     6.2921     7.6441   515.0355 </r>
       <r>     6.3468    23.7813   516.3376 </r>
       <r>     6.4016    23.7232   517.6365 </r>
       <r>     6.4563    27.2598   519.1290 </r>
       <r>     6.5111    17.9578   520.1122 </r>
       <r>     6.5658    19.0752   521.1566 </r>
       <r>     6.6206    16.2139   522.0444 </r>
       <r>     6.6753    12.0675   522.7051 </r>
       <r>     6.7301    41.8907   524.9987 </r>
       <r>     6.7848    35.7651   526.9569 </r>
       <r>     6.8396    26.5073   528.4083 </r>
       <r>     6.8943    29.7982   530.0398 </r>
       <r>     6.9491    37.5311   532.0947 </r>
       <r>     7.0038    51.1448   534.8950 </r>
       <r>     7.0586    39.3457   537.0493 </r>
       <r>     7.1134    36.3433   539.0392 </r>
       <r>     7.1681    17.0708   539.9739 </r>
       <r>     7.2229    46.2156   542.5043 </r>
       <r>     7.2776    68.5912   546.2598 </r>
       <r>     7.3324    72.9372   550.2533 </r>
       <r>     7.3871    67.1965   553.9325 </r>
       <r>     7.4419    82.1734   558.4317 </r>
       <r>     7.4966    78.7675   562.7445 </r>
       <r>     7.5514    99.0654   568.1685 </r>
       <r>     7.6061    86.4771   572.9033 </r>
       <r>     7.6609    76.4296   577.0880 </r>
       <r>     7.7156    96.3789   582.3650 </r>
       <r>     7.7704    80.4859   586.7718 </r>
       <r>     7.8251    99.4795   592.2186 </r>
       <r>     7.8799    84.6288   596.8522 </r>
       <r>     7.9346    97.5399   602.1928 </r>
       <r>     7.9894    88.2355   607.0239 </r>
       <r>     8.0441    96.2756   612.2952 </r>
       <r>     8.0989    84.4841   616.9209 </r>
       <r>     8.1536    70.9873   620.8076 </r>
       <r>     8.2084    77.1885   625.0339 </r>
       <r>     8.2631    92.9088   630.1208 </r>
       <r>     8.3179    77.4983   634.3640 </r>
       <r>     8.3726    75.8350   638.5162 </r>
       <r>     8.4274    61.1282   641.8631 </r>
       <r>     8.4822    25.3276   643.2498 </r>
       <r>     8.5369     3.8241   643.4592 </r>
       <r>     8.5917     5.3218   643.7506 </r>
       <r>     8.6464     4.5549   644.0000 </r>
       <r>     8.7012     0.0000   644.0000 </r>
       <r>     8.7559     0.0000   644.0000 </r>
       <r>     8.8107     0.0000   644.0000 </r>
       <r>     8.8654     0.0000   644.0000 </r>
       <r>     8.9202     0.0000   644.0000 </r>
       <r>     8.9749     0.0000   644.0000 </r>
       <r>     9.0297     0.0000   644.0000 </r>
       <r>     9.0844     0.0000   644.0000 </r>
       <r>     9.1392     0.0000   644.0000 </r>
       <r>     9.1939     0.0000   644.0000 </r>
       <r>     9.2487     0.0000   644.0000 </r>
       <r>     9.3034     0.0000   644.0000 </r>
       <r>     9.3582     0.0000   644.0000 </r>
      </set>
     </set>
    </array>
   </total>
  </dos>
 </calculation>
 <structure name="finalpos" >
  <crystal>
   <varray name="basis" >
    <v>       0.00000000      10.93733369      10.93733369 </v>
    <v>      10.93733369       0.00000000      10.93733369 </v>
    <v>      10.93733369      10.93733369       0.00000000 </v>
   </varray>
   <i name="volume">   2616.76295363 </i>
   <varray name="rec_basis" >
    <v>      -0.04571498       0.04571498       0.04571498 </v>
    <v>       0.04571498      -0.04571498       0.04571498 </v>
    <v>       0.04571498       0.04571498      -0.04571498 </v>
   </varray>
  </crystal>
  <varray name="positions" >
   <v>       0.00224555       0.00311066       0.99857419 </v>
   <v>       0.23938217       0.99384845       0.00960936 </v>
   <v>       0.49629424       0.02020817       0.99368223 </v>
   <v>       0.74346206       0.01201511       0.99091069 </v>
   <v>       0.98803982       0.25301246       0.00628155 </v>
   <v>       0.25185228       0.25015646       0.99149423 </v>
   <v>       0.49922326       0.24672633       0.99626359 </v>
   <v>       0.74766314       0.24422394       0.00637058 </v>
   <v>       0.99612902       0.50565378       0.99663569 </v>
   <v>       0.25007815       0.50907429       0.99370179 </v>
   <v>       0.48380899       0.50861267       0.01367945 </v>
   <v>       0.75253375       0.51131864       0.99188141 </v>
   <v>       0.99423378       0.74381100       0.01561641 </v>
   <v>       0.24591937       0.74946978       0.00168129 </v>
   <v>       0.49588957       0.75496499       0.99324699 </v>
   <v>       0.75082273       0.75552755       0.99801197 </v>
   <v>       0.99836392       0.99770552       0.24279357 </v>
   <v>       0.25163961       0.01589293       0.24383112 </v>
   <v>       0.50663220       0.99306969       0.24806195 </v>
   <v>       0.76028948       0.99254866       0.24374270 </v>
   <v>       0.00538747       0.25368387       0.23298437 </v>
   <v>       0.24848573       0.25728638       0.23905146 </v>
   <v>       0.50543264       0.25111846       0.25163431 </v>
   <v>       0.75256920       0.24453509       0.25312788 </v>
   <v>       0.00315418       0.50144175       0.23269961 </v>
   <v>       0.24405088       0.49435580       0.26403840 </v>
   <v>       0.49956698       0.49292550       0.24882930 </v>
   <v>       0.75337562       0.49506555       0.25542169 </v>
   <v>       0.99810584       0.74538442       0.24762811 </v>
   <v>       0.24506159       0.74984418       0.24758043 </v>
   <v>       0.51397774       0.75045401       0.24145474 </v>
   <v>       0.74560387       0.74617845       0.25493739 </v>
   <v>       0.99422637       0.99950110       0.49321012 </v>
   <v>       0.25754757       0.99162596       0.50058973 </v>
   <v>       0.49574610       0.99554950       0.50047665 </v>
   <v>       0.76072437       0.99262399       0.49712828 </v>
   <v>       0.99060495       0.25824478       0.50011425 </v>
   <v>       0.24297954       0.24792714       0.48678949 </v>
   <v>       0.50800510       0.25083472       0.48842137 </v>
   <v>       0.74249439       0.25107731       0.50937049 </v>
   <v>       0.98200441       0.51052298       0.51084249 </v>
   <v>       0.24466165       0.50478042       0.49912173 </v>
   <v>       0.49752739       0.49954451       0.50435552 </v>
   <v>       0.75675865       0.49086334       0.50729115 </v>
   <v>       0.00085589       0.75797884       0.48495889 </v>
   <v>       0.24113999       0.75298990       0.50282381 </v>
   <v>       0.50271852       0.73710883       0.50063088 </v>
   <v>       0.74123813       0.74820630       0.49768986 </v>
   <v>       0.99827598       0.99300501       0.76302579 </v>
   <v>       0.23739063       0.99257499       0.75775434 </v>
   <v>       0.49826097       0.00414387       0.76006428 </v>
   <v>       0.75022510       0.99596159       0.74801777 </v>
   <v>       0.99796726       0.24628297       0.75288385 </v>
   <v>       0.24214901       0.24949753       0.75074004 </v>
   <v>       0.50376042       0.25311483       0.75769234 </v>
   <v>       0.73705969       0.27085712       0.76041183 </v>
   <v>       0.00039898       0.50275694       0.75264623 </v>
   <v>       0.25359132       0.49411090       0.74470261 </v>
   <v>       0.49497566       0.51298821       0.74175801 </v>
   <v>       0.74275347       0.50213454       0.75547238 </v>
   <v>       0.00775557       0.74736111       0.74337304 </v>
   <v>       0.23812247       0.74995395       0.76185217 </v>
   <v>       0.49855016       0.75111382       0.74617541 </v>
   <v>       0.74522380       0.76529107       0.74646507 </v>
   <v>       0.06499800       0.06176988       0.05675189 </v>
   <v>       0.31276133       0.07422761       0.05220884 </v>
   <v>       0.56133038       0.06511033       0.05961072 </v>
   <v>       0.81305710       0.06309831       0.06252407 </v>
   <v>       0.06253762       0.30469334       0.05514271 </v>
   <v>       0.30595723       0.31742864       0.05265055 </v>
   <v>       0.56139107       0.31674166       0.05812575 </v>
   <v>       0.81311212       0.29594246       0.06861443 </v>
   <v>       0.06994491       0.55978411       0.05114189 </v>
   <v>       0.30516647       0.57629896       0.06608598 </v>
   <v>       0.56941323       0.56764144       0.05127114 </v>
   <v>       0.81596429       0.56197492       0.05467888 </v>
   <v>       0.06206583       0.80819403       0.05339143 </v>
   <v>       0.30965794       0.81157217       0.05424273 </v>
   <v>       0.57332252       0.79968412       0.05778310 </v>
   <v>       0.81261137       0.80644556       0.06209406 </v>
   <v>       0.07535265       0.07072601       0.30713005 </v>
   <v>       0.31489242       0.06504707       0.31169577 </v>
   <v>       0.57216331       0.05452021       0.31396686 </v>
   <v>       0.80636041       0.05678523       0.31197587 </v>
   <v>       0.06553786       0.30861820       0.31648860 </v>
   <v>       0.30781788       0.31146491       0.31247690 </v>
   <v>       0.56071012       0.30932666       0.31349323 </v>
   <v>       0.81736688       0.30853915       0.30410635 </v>
   <v>       0.06269543       0.56210804       0.30596003 </v>
   <v>       0.31450694       0.55973855       0.32071578 </v>
   <v>       0.55290946       0.56501669       0.32305193 </v>
   <v>       0.81485769       0.56352007       0.30990043 </v>
   <v>       0.05891629       0.81668151       0.31099950 </v>
   <v>       0.30675384       0.81575697       0.31797686 </v>
   <v>       0.56410084       0.80940799       0.31937223 </v>
   <v>       0.80965426       0.81267908       0.30425343 </v>
   <v>       0.05890837       0.06637975       0.56927273 </v>
   <v>       0.31185376       0.06664763       0.57016806 </v>
   <v>       0.56525311       0.06614760       0.56635932 </v>
   <v>       0.80454182       0.05577831       0.56767559 </v>
   <v>       0.06272324       0.31159821       0.57186136 </v>
   <v>       0.32089061       0.30156664       0.57085664 </v>
   <v>       0.54781664       0.31905046       0.57033750 </v>
   <v>       0.81098162       0.31155607       0.56495584 </v>
   <v>       0.06390441       0.56631530       0.57001483 </v>
   <v>       0.30589122       0.58044680       0.56443294 </v>
   <v>       0.57501084       0.55344714       0.55442263 </v>
   <v>       0.80103155       0.57686039       0.55868424 </v>
   <v>       0.06354217       0.81127699       0.56091654 </v>
   <v>       0.31184723       0.80607165       0.55946557 </v>
   <v>       0.56449194       0.81872029       0.56254073 </v>
   <v>       0.81343616       0.81158416       0.55278108 </v>
   <v>       0.06135509       0.07577848       0.80827971 </v>
   <v>       0.30174051       0.05908456       0.81429711 </v>
   <v>       0.54669117       0.07223948       0.81953371 </v>
   <v>       0.81328322       0.06653083       0.81220772 </v>
   <v>       0.05692435       0.30539136       0.81999842 </v>
   <v>       0.31058689       0.31490449       0.80963149 </v>
   <v>       0.56102301       0.31913000       0.80742281 </v>
   <v>       0.80853299       0.31801525       0.81449982 </v>
   <v>       0.05872413       0.56785803       0.81354282 </v>
   <v>       0.29581500       0.57367425       0.79991730 </v>
   <v>       0.56508564       0.55366563       0.81118643 </v>
   <v>       0.81054583       0.56026618       0.81450660 </v>
   <v>       0.05505332       0.81374578       0.80805532 </v>
   <v>       0.31921659       0.80260842       0.80995668 </v>
   <v>       0.55877360       0.82069182       0.81494662 </v>
   <v>       0.81983385       0.80381594       0.82381657 </v>
  </varray>
 </structure>
</modeling>
