potpaw_PBE@./ARUN.APL1ZEROSTATE         
           1
     0.000000   10.937334   10.937334
    10.937334    0.000000   10.937334
    10.937334   10.937334    0.000000
   Si
 128
Direct configuration=     1
   0.00224555  0.00311066  0.99857419
   0.23938217  0.99384845  0.00960936
   0.49629424  0.02020817  0.99368223
   0.74346206  0.01201511  0.99091069
   0.98803982  0.25301246  0.00628155
   0.25185228  0.25015646  0.99149423
   0.49922326  0.24672633  0.99626359
   0.74766314  0.24422394  0.00637058
   0.99612902  0.50565378  0.99663569
   0.25007815  0.50907429  0.99370179
   0.48380899  0.50861267  0.01367945
   0.75253375  0.51131864  0.99188141
   0.99423378  0.74381100  0.01561641
   0.24591937  0.74946978  0.00168129
   0.49588957  0.75496499  0.99324699
   0.75082273  0.75552755  0.99801197
   0.99836392  0.99770552  0.24279357
   0.25163961  0.01589293  0.24383112
   0.50663220  0.99306969  0.24806195
   0.76028948  0.99254866  0.24374270
   0.00538747  0.25368387  0.23298437
   0.24848573  0.25728638  0.23905146
   0.50543264  0.25111846  0.25163431
   0.75256920  0.24453509  0.25312788
   0.00315418  0.50144175  0.23269961
   0.24405088  0.49435580  0.26403840
   0.49956698  0.49292550  0.24882930
   0.75337562  0.49506555  0.25542169
   0.99810584  0.74538442  0.24762811
   0.24506159  0.74984418  0.24758043
   0.51397774  0.75045401  0.24145474
   0.74560387  0.74617845  0.25493739
   0.99422637  0.99950110  0.49321012
   0.25754757  0.99162596  0.50058973
   0.49574610  0.99554950  0.50047665
   0.76072437  0.99262399  0.49712828
   0.99060495  0.25824478  0.50011425
   0.24297954  0.24792714  0.48678949
   0.50800510  0.25083472  0.48842137
   0.74249439  0.25107731  0.50937049
   0.98200441  0.51052298  0.51084249
   0.24466165  0.50478042  0.49912173
   0.49752739  0.49954451  0.50435552
   0.75675865  0.49086334  0.50729115
   0.00085589  0.75797884  0.48495889
   0.24113999  0.75298990  0.50282381
   0.50271852  0.73710883  0.50063088
   0.74123813  0.74820630  0.49768986
   0.99827598  0.99300501  0.76302579
   0.23739063  0.99257499  0.75775434
   0.49826097  0.00414387  0.76006428
   0.75022510  0.99596159  0.74801777
   0.99796726  0.24628297  0.75288385
   0.24214901  0.24949753  0.75074004
   0.50376042  0.25311483  0.75769234
   0.73705969  0.27085712  0.76041183
   0.00039898  0.50275694  0.75264623
   0.25359132  0.49411090  0.74470261
   0.49497566  0.51298821  0.74175801
   0.74275347  0.50213454  0.75547238
   0.00775557  0.74736111  0.74337304
   0.23812247  0.74995395  0.76185217
   0.49855016  0.75111382  0.74617541
   0.74522380  0.76529107  0.74646507
   0.06499800  0.06176988  0.05675189
   0.31276133  0.07422761  0.05220884
   0.56133038  0.06511033  0.05961072
   0.81305710  0.06309831  0.06252407
   0.06253762  0.30469334  0.05514271
   0.30595723  0.31742864  0.05265055
   0.56139107  0.31674166  0.05812575
   0.81311212  0.29594246  0.06861443
   0.06994491  0.55978411  0.05114189
   0.30516647  0.57629896  0.06608598
   0.56941323  0.56764144  0.05127114
   0.81596429  0.56197492  0.05467888
   0.06206583  0.80819403  0.05339143
   0.30965794  0.81157217  0.05424273
   0.57332252  0.79968412  0.05778310
   0.81261137  0.80644556  0.06209406
   0.07535265  0.07072601  0.30713005
   0.31489242  0.06504707  0.31169577
   0.57216331  0.05452021  0.31396686
   0.80636041  0.05678523  0.31197587
   0.06553786  0.30861820  0.31648860
   0.30781788  0.31146491  0.31247690
   0.56071012  0.30932666  0.31349323
   0.81736688  0.30853915  0.30410635
   0.06269543  0.56210804  0.30596003
   0.31450694  0.55973855  0.32071578
   0.55290946  0.56501669  0.32305193
   0.81485769  0.56352007  0.30990043
   0.05891629  0.81668151  0.31099950
   0.30675384  0.81575697  0.31797686
   0.56410084  0.80940799  0.31937223
   0.80965426  0.81267908  0.30425343
   0.05890837  0.06637975  0.56927273
   0.31185376  0.06664763  0.57016806
   0.56525311  0.06614760  0.56635932
   0.80454182  0.05577831  0.56767559
   0.06272324  0.31159821  0.57186136
   0.32089061  0.30156664  0.57085664
   0.54781664  0.31905046  0.57033750
   0.81098162  0.31155607  0.56495584
   0.06390441  0.56631530  0.57001483
   0.30589122  0.58044680  0.56443294
   0.57501084  0.55344714  0.55442263
   0.80103155  0.57686039  0.55868424
   0.06354217  0.81127699  0.56091654
   0.31184723  0.80607165  0.55946557
   0.56449194  0.81872029  0.56254073
   0.81343616  0.81158416  0.55278108
   0.06135509  0.07577848  0.80827971
   0.30174051  0.05908456  0.81429711
   0.54669117  0.07223948  0.81953371
   0.81328322  0.06653083  0.81220772
   0.05692435  0.30539136  0.81999842
   0.31058689  0.31490449  0.80963149
   0.56102301  0.31913000  0.80742281
   0.80853299  0.31801525  0.81449982
   0.05872413  0.56785803  0.81354282
   0.29581500  0.57367425  0.79991730
   0.56508564  0.55366563  0.81118643
   0.81054583  0.56026618  0.81450660
   0.05505332  0.81374578  0.80805532
   0.31921659  0.80260842  0.80995668
   0.55877360  0.82069182  0.81494662
   0.81983385  0.80381594  0.82381657
