 128 128   0   0
  0.2044346E+02  0.1546773E-08  0.1546773E-08  0.1546773E-08  0.5000000E-15
  1.000000000000000E-004
  CAR 
 potpaw_PBE@./ARUN.APL1ZEROSTATE         
      9.37173227     -7.02735094  301      5.88009414      1.00000000
     -7.027  0.0000E+00  0.0000E+00
     -6.973  0.0000E+00  0.0000E+00
     -6.918  0.0000E+00  0.0000E+00
     -6.863  0.0000E+00  0.0000E+00
     -6.809  0.0000E+00  0.0000E+00
     -6.754  0.0000E+00  0.0000E+00
     -6.699  0.0000E+00  0.0000E+00
     -6.645  0.0000E+00  0.0000E+00
     -6.590  0.0000E+00  0.0000E+00
     -6.535  0.0000E+00  0.0000E+00
     -6.481  0.0000E+00  0.0000E+00
     -6.426  0.0000E+00  0.0000E+00
     -6.371  0.0000E+00  0.0000E+00
     -6.317  0.1984E-05  0.1085E-06
     -6.262  0.4562E+01  0.2494E+00
     -6.207  0.1129E-01  0.2500E+00
     -6.153  0.3172E-01  0.2517E+00
     -6.098  0.1422E+02  0.1029E+01
     -6.043  0.2974E+02  0.2655E+01
     -5.989  0.1967E+02  0.3730E+01
     -5.934  0.3624E+00  0.3750E+01
     -5.879  0.0000E+00  0.3750E+01
     -5.825  0.3858E+00  0.3771E+01
     -5.770  0.2122E+02  0.4931E+01
     -5.715  0.1972E+02  0.6009E+01
     -5.661  0.2477E+02  0.7363E+01
     -5.606  0.3491E+02  0.9271E+01
     -5.551  0.2966E+02  0.1089E+02
     -5.497  0.2936E+02  0.1250E+02
     -5.442  0.3146E+02  0.1422E+02
     -5.387  0.9648E+01  0.1474E+02
     -5.333  0.1062E+01  0.1480E+02
     -5.278  0.3611E+01  0.1500E+02
     -5.223  0.7191E+01  0.1539E+02
     -5.169  0.8970E+01  0.1588E+02
     -5.114  0.5844E+02  0.1908E+02
     -5.059  0.4180E+02  0.2136E+02
     -5.005  0.5543E+02  0.2439E+02
     -4.950  0.3414E+02  0.2626E+02
     -4.895  0.3473E+02  0.2816E+02
     -4.841  0.1442E+02  0.2895E+02
     -4.786  0.1759E+02  0.2991E+02
     -4.731  0.3366E+02  0.3175E+02
     -4.677  0.4662E+02  0.3430E+02
     -4.622  0.2744E+02  0.3580E+02
     -4.567  0.4352E+02  0.3818E+02
     -4.513  0.1976E+02  0.3926E+02
     -4.458  0.3437E+02  0.4113E+02
     -4.403  0.2773E+02  0.4265E+02
     -4.349  0.1385E+02  0.4341E+02
     -4.294  0.1965E+02  0.4448E+02
     -4.240  0.5164E+02  0.4730E+02
     -4.185  0.7446E+02  0.5137E+02
     -4.130  0.6181E+02  0.5475E+02
     -4.076  0.6423E+02  0.5826E+02
     -4.021  0.5272E+02  0.6115E+02
     -3.966  0.4217E+02  0.6345E+02
     -3.912  0.5039E+02  0.6620E+02
     -3.857  0.3652E+02  0.6820E+02
     -3.802  0.5405E+02  0.7116E+02
     -3.748  0.4320E+02  0.7352E+02
     -3.693  0.5515E+02  0.7653E+02
     -3.638  0.4120E+02  0.7878E+02
     -3.584  0.2221E+02  0.8000E+02
     -3.529  0.4972E+02  0.8272E+02
     -3.474  0.5225E+02  0.8557E+02
     -3.420  0.5682E+02  0.8868E+02
     -3.365  0.4593E+02  0.9119E+02
     -3.310  0.5135E+02  0.9400E+02
     -3.256  0.3410E+02  0.9586E+02
     -3.201  0.2037E+02  0.9697E+02
     -3.146  0.2848E+02  0.9853E+02
     -3.092  0.5797E+02  0.1017E+03
     -3.037  0.4821E+02  0.1043E+03
     -2.982  0.5554E+02  0.1074E+03
     -2.928  0.3485E+02  0.1093E+03
     -2.873  0.2671E+02  0.1107E+03
     -2.818  0.3359E+02  0.1126E+03
     -2.764  0.2924E+02  0.1142E+03
     -2.709  0.2620E+02  0.1156E+03
     -2.654  0.4910E+02  0.1183E+03
     -2.600  0.2901E+02  0.1199E+03
     -2.545  0.3425E+02  0.1217E+03
     -2.490  0.9264E+01  0.1223E+03
     -2.436  0.9130E+01  0.1227E+03
     -2.381  0.1342E-01  0.1228E+03
     -2.326  0.4573E+01  0.1230E+03
     -2.272  0.6922E+01  0.1234E+03
     -2.217  0.1409E+02  0.1241E+03
     -2.162  0.3364E+02  0.1260E+03
     -2.108  0.2581E+02  0.1274E+03
     -2.053  0.2844E+02  0.1290E+03
     -1.998  0.2946E+02  0.1306E+03
     -1.944  0.2215E+02  0.1318E+03
     -1.889  0.1526E+02  0.1326E+03
     -1.834  0.2798E+01  0.1328E+03
     -1.780  0.4398E+01  0.1330E+03
     -1.725  0.4595E+01  0.1333E+03
     -1.670  0.1057E+02  0.1338E+03
     -1.616  0.1270E+02  0.1345E+03
     -1.561  0.3320E+02  0.1363E+03
     -1.506  0.2840E+02  0.1379E+03
     -1.452  0.4297E+02  0.1402E+03
     -1.397  0.3673E+02  0.1422E+03
     -1.342  0.5328E+02  0.1452E+03
     -1.288  0.5701E+02  0.1483E+03
     -1.233  0.6454E+02  0.1518E+03
     -1.178  0.5972E+02  0.1551E+03
     -1.124  0.6969E+02  0.1589E+03
     -1.069  0.4984E+02  0.1616E+03
     -1.014  0.5250E+02  0.1645E+03
     -0.960  0.7124E+02  0.1684E+03
     -0.905  0.6918E+02  0.1721E+03
     -0.850  0.7645E+02  0.1763E+03
     -0.796  0.5345E+02  0.1792E+03
     -0.741  0.4285E+02  0.1816E+03
     -0.686  0.4569E+02  0.1841E+03
     -0.632  0.4155E+02  0.1864E+03
     -0.577  0.4814E+02  0.1890E+03
     -0.522  0.2805E+02  0.1905E+03
     -0.468  0.5211E+01  0.1908E+03
     -0.413  0.2035E+02  0.1919E+03
     -0.358  0.4122E+02  0.1942E+03
     -0.304  0.5282E+02  0.1971E+03
     -0.249  0.4918E+02  0.1998E+03
     -0.194  0.5594E+02  0.2028E+03
     -0.140  0.4315E+02  0.2052E+03
     -0.085  0.4227E+02  0.2075E+03
     -0.030  0.4751E+02  0.2101E+03
      0.024  0.2585E+02  0.2115E+03
      0.079  0.3405E+02  0.2133E+03
      0.134  0.1189E+02  0.2140E+03
      0.188  0.5656E+01  0.2143E+03
      0.243  0.8073E+01  0.2147E+03
      0.298  0.2071E+02  0.2159E+03
      0.352  0.2171E+02  0.2171E+03
      0.407  0.3461E+02  0.2190E+03
      0.462  0.2808E+02  0.2205E+03
      0.516  0.1889E+02  0.2215E+03
      0.571  0.2304E+02  0.2228E+03
      0.626  0.1778E+02  0.2238E+03
      0.680  0.2864E+02  0.2253E+03
      0.735  0.1905E+02  0.2264E+03
      0.790  0.1176E+02  0.2270E+03
      0.844  0.1352E+02  0.2277E+03
      0.899  0.7187E+00  0.2278E+03
      0.954  0.2107E+02  0.2289E+03
      1.008  0.3265E+02  0.2307E+03
      1.063  0.1878E+02  0.2318E+03
      1.118  0.2383E+02  0.2331E+03
      1.172  0.2688E+02  0.2345E+03
      1.227  0.2416E+02  0.2358E+03
      1.282  0.2666E+02  0.2373E+03
      1.336  0.3971E+02  0.2395E+03
      1.391  0.2785E+02  0.2410E+03
      1.446  0.3296E+02  0.2428E+03
      1.500  0.8747E+02  0.2476E+03
      1.555  0.9806E+02  0.2529E+03
      1.609  0.9006E+02  0.2579E+03
      1.664  0.7230E+02  0.2618E+03
      1.719  0.6634E+02  0.2654E+03
      1.773  0.6644E+02  0.2691E+03
      1.828  0.4572E+02  0.2716E+03
      1.883  0.2525E+02  0.2730E+03
      1.937  0.1912E+02  0.2740E+03
      1.992  0.1660E+02  0.2749E+03
      2.047  0.3156E+02  0.2766E+03
      2.101  0.7119E+02  0.2805E+03
      2.156  0.1042E+03  0.2862E+03
      2.211  0.1172E+03  0.2926E+03
      2.265  0.1313E+03  0.2998E+03
      2.320  0.1220E+03  0.3065E+03
      2.375  0.1298E+03  0.3136E+03
      2.429  0.9299E+02  0.3186E+03
      2.484  0.5855E+02  0.3219E+03
      2.539  0.3533E+02  0.3238E+03
      2.593  0.1871E+02  0.3248E+03
      2.648  0.4242E+02  0.3271E+03
      2.703  0.7300E+02  0.3311E+03
      2.757  0.9091E+02  0.3361E+03
      2.812  0.9820E+02  0.3415E+03
      2.867  0.8594E+02  0.3461E+03
      2.921  0.9054E+02  0.3511E+03
      2.976  0.1046E+03  0.3568E+03
      3.031  0.1177E+03  0.3632E+03
      3.085  0.8967E+02  0.3682E+03
      3.140  0.7116E+02  0.3720E+03
      3.195  0.5682E+02  0.3751E+03
      3.249  0.9033E+02  0.3801E+03
      3.304  0.1054E+03  0.3858E+03
      3.359  0.1088E+03  0.3918E+03
      3.413  0.8400E+02  0.3964E+03
      3.468  0.7756E+02  0.4006E+03
      3.523  0.9642E+02  0.4059E+03
      3.577  0.7989E+02  0.4103E+03
      3.632  0.7358E+02  0.4143E+03
      3.687  0.6083E+02  0.4176E+03
      3.741  0.9012E+02  0.4225E+03
      3.796  0.9046E+02  0.4275E+03
      3.851  0.9211E+02  0.4325E+03
      3.905  0.7102E+02  0.4364E+03
      3.960  0.7942E+02  0.4407E+03
      4.015  0.6805E+02  0.4445E+03
      4.069  0.5448E+02  0.4474E+03
      4.124  0.7308E+02  0.4514E+03
      4.179  0.6222E+02  0.4548E+03
      4.233  0.7135E+02  0.4587E+03
      4.288  0.7537E+02  0.4629E+03
      4.343  0.8228E+02  0.4674E+03
      4.397  0.7600E+02  0.4715E+03
      4.452  0.6169E+02  0.4749E+03
      4.507  0.7476E+02  0.4790E+03
      4.561  0.6058E+02  0.4823E+03
      4.616  0.5297E+02  0.4852E+03
      4.671  0.5291E+02  0.4881E+03
      4.725  0.3016E+02  0.4897E+03
      4.780  0.2980E+02  0.4913E+03
      4.835  0.1684E+02  0.4923E+03
      4.889  0.4138E+02  0.4945E+03
      4.944  0.5059E+02  0.4973E+03
      4.999  0.5031E+02  0.5000E+03
      5.053  0.2935E+02  0.5016E+03
      5.108  0.2459E+02  0.5030E+03
      5.163  0.1103E+02  0.5036E+03
      5.217  0.1060E+02  0.5042E+03
      5.272  0.1446E+01  0.5043E+03
      5.327  0.5237E+01  0.5045E+03
      5.381  0.2738E+02  0.5060E+03
      5.436  0.2200E+02  0.5072E+03
      5.491  0.2630E+02  0.5087E+03
      5.545  0.2187E+02  0.5099E+03
      5.600  0.2163E+02  0.5111E+03
      5.655  0.3639E+01  0.5113E+03
      5.709  0.4558E+01  0.5115E+03
      5.764  0.3564E+01  0.5117E+03
      5.819  0.5590E+01  0.5120E+03
      5.873  0.8470E-02  0.5120E+03
      5.928  0.0000E+00  0.5120E+03
      5.983  0.0000E+00  0.5120E+03
      6.037  0.0000E+00  0.5120E+03
      6.092  0.4697E-10  0.5120E+03
      6.147  0.3904E+01  0.5122E+03
      6.201  0.2340E+02  0.5135E+03
      6.256  0.9664E+01  0.5140E+03
      6.311  0.1321E+02  0.5147E+03
      6.365  0.2381E+02  0.5160E+03
      6.420  0.2172E+02  0.5172E+03
      6.475  0.3247E+02  0.5190E+03
      6.529  0.3207E+02  0.5208E+03
      6.584  0.9021E+01  0.5213E+03
      6.639  0.7238E+01  0.5216E+03
      6.693  0.2576E+02  0.5231E+03
      6.748  0.3237E+02  0.5248E+03
      6.803  0.3212E+02  0.5266E+03
      6.857  0.3039E+02  0.5282E+03
      6.912  0.3496E+02  0.5302E+03
      6.967  0.3395E+02  0.5320E+03
      7.021  0.3815E+02  0.5341E+03
      7.076  0.5605E+02  0.5372E+03
      7.131  0.3143E+02  0.5389E+03
      7.185  0.2544E+02  0.5403E+03
      7.240  0.3544E+02  0.5422E+03
      7.295  0.5470E+02  0.5452E+03
      7.349  0.7429E+02  0.5493E+03
      7.404  0.6473E+02  0.5528E+03
      7.459  0.9576E+02  0.5580E+03
      7.513  0.9609E+02  0.5633E+03
      7.568  0.9741E+02  0.5686E+03
      7.622  0.7876E+02  0.5729E+03
      7.677  0.8108E+02  0.5773E+03
      7.732  0.9035E+02  0.5823E+03
      7.786  0.8771E+02  0.5871E+03
      7.841  0.9313E+02  0.5922E+03
      7.896  0.7988E+02  0.5965E+03
      7.950  0.1160E+03  0.6029E+03
      8.005  0.8959E+02  0.6078E+03
      8.060  0.7733E+02  0.6120E+03
      8.114  0.8393E+02  0.6166E+03
      8.169  0.8626E+02  0.6213E+03
      8.224  0.9732E+02  0.6266E+03
      8.278  0.7447E+02  0.6307E+03
      8.333  0.7829E+02  0.6350E+03
      8.388  0.8409E+02  0.6396E+03
      8.442  0.5390E+02  0.6425E+03
      8.497  0.1106E+02  0.6431E+03
      8.552  0.6894E+01  0.6435E+03
      8.606  0.2265E+01  0.6436E+03
      8.661  0.6882E+01  0.6440E+03
      8.716  0.0000E+00  0.6440E+03
      8.770  0.0000E+00  0.6440E+03
      8.825  0.0000E+00  0.6440E+03
      8.880  0.0000E+00  0.6440E+03
      8.934  0.0000E+00  0.6440E+03
      8.989  0.0000E+00  0.6440E+03
      9.044  0.0000E+00  0.6440E+03
      9.098  0.0000E+00  0.6440E+03
      9.153  0.0000E+00  0.6440E+03
      9.208  0.0000E+00  0.6440E+03
      9.262  0.0000E+00  0.6440E+03
      9.317  0.0000E+00  0.6440E+03
      9.372  0.0000E+00  0.6440E+03
