 vasp.5.4.4.18Apr17-6-g9f103f2a35 (build Nov 08 2017 09:05:29) complex          
  
 executed on          Intel_17.33 date 2020.07.19  00:02:02
 running on   32 total cores
 distrk:  each k-point on   32 cores,    1 groups
 distr:  one band on NCORES_PER_BAND=  16 cores,    2 groups


--------------------------------------------------------------------------------------------------------


 INCAR:
 POTCAR:   PAW_PBE Si 05Jan2001                   

 ----------------------------------------------------------------------------- 
|                                                                             |
|           W    W    AA    RRRRR   N    N  II  N    N   GGGG   !!!           |
|           W    W   A  A   R    R  NN   N  II  NN   N  G    G  !!!           |
|           W    W  A    A  R    R  N N  N  II  N N  N  G       !!!           |
|           W WW W  AAAAAA  RRRRR   N  N N  II  N  N N  G  GGG   !            |
|           WW  WW  A    A  R   R   N   NN  II  N   NN  G    G                |
|           W    W  A    A  R    R  N    N  II  N    N   GGGG   !!!           |
|                                                                             |
|      For optimal performance we recommend to set                            |
|        NCORE= 4 - approx SQRT( number of cores)                             |
|      NCORE specifies how many cores store one orbital (NPAR=cpu/NCORE).     |
|      This setting can  greatly improve the performance of VASP for DFT.     |
|      The default,   NCORE=1            might be grossly inefficient         |
|      on modern multi-core architectures or massively parallel machines.     |
|      Do your own testing !!!!                                               |
|      Unfortunately you need to use the default for GW and RPA calculations. |
|      (for HF NCORE is supported but not extensively tested yet)             |
|                                                                             |
 ----------------------------------------------------------------------------- 

 POTCAR:   PAW_PBE Si 05Jan2001                   
   VRHFIN =Si: s2p2                                                             
   LEXCH  = PE                                                                  
   EATOM  =   103.0669 eV,    7.5752 Ry                                         
                                                                                
   TITEL  = PAW_PBE Si 05Jan2001                                                
   LULTRA =        F    use ultrasoft PP ?                                      
   IUNSCR =        1    unscreen: 0-lin 1-nonlin 2-no                           
   RPACOR =    1.500    partial core radius                                     
   POMASS =   28.085; ZVAL   =    4.000    mass and valenz                      
   RCORE  =    1.900    outmost cutoff radius                                   
   RWIGS  =    2.480; RWIGS  =    1.312    wigner-seitz radius (au A)           
   ENMAX  =  245.345; ENMIN  =  184.009 eV                                      
   ICORE  =        2    local potential                                         
   LCOR   =        T    correct aug charges                                     
   LPAW   =        T    paw PP                                                  
   EAUG   =  322.069                                                            
   DEXC   =    -.007                                                            
   RMAX   =    2.944    core radius for proj-oper                               
   RAUG   =    1.300    factor for augmentation sphere                          
   RDEP   =    1.993    radius for radial grids                                 
   QCUT   =   -4.246; QGAM   =    8.493    optimization parameters              
                                                                                
   Description                                                                  
     l     E      TYP  RCUT    TYP  RCUT                                        
     0   .000     23  1.900                                                     
     0   .000     23  1.900                                                     
     1   .000     23  1.900                                                     
     1   .000     23  1.900                                                     
     2   .000      7  1.900                                                     
  local pseudopotential read in
  partial core-charges read in
  atomic valenz-charges read in
  non local Contribution for L=           0  read in
    real space projection operators read in
  non local Contribution for L=           0  read in
    real space projection operators read in
  non local Contribution for L=           1  read in
    real space projection operators read in
  non local Contribution for L=           1  read in
    real space projection operators read in
    PAW grid and wavefunctions read in
 
   number of l-projection  operators is LMAX  =           4
   number of lm-projection operators is LMMAX =           8
 

 ----------------------------------------------------------------------------- 
|                                                                             |
|  ADVICE TO THIS USER RUNNING 'VASP/VAMP'   (HEAR YOUR MASTER'S VOICE ...):  |
|                                                                             |
|      You have a (more or less) 'large supercell' and for larger cells       |
|      it might be more efficient to use real space projection operators      |
|      So try LREAL= Auto  in the INCAR   file.                               |
|      Mind: If you want to do a very accurate calculations keep the          |
|      reciprocal projection scheme          (i.e. LREAL=.FALSE.)             |
|                                                                             |
 ----------------------------------------------------------------------------- 

 PAW_PBE Si 05Jan2001                   :
 energy of atom  1       EATOM= -103.0669
 kinetic energy error for atom=    0.0006 (will be added to EATOM!!)
 
 
 POSCAR: kk                                      
  positions in direct lattice
  No initial velocities read in
 exchange correlation table for  LEXCH =        8
   RHO(1)=    0.500       N(1)  =     2000
   RHO(2)=  100.500       N(2)  =     4000
 


--------------------------------------------------------------------------------------------------------


 ion  position               nearest neighbor table
   1  0.010  0.996  0.997-  65 2.31 113 2.34  77 2.37  68 2.58
   2  0.246  0.993  0.003-  65 2.30  78 2.39 114 2.44  66 2.62
   3  0.499  0.995  0.999- 115 2.22  66 2.34  79 2.36  67 2.50
   4  0.748  0.998  0.003-  67 2.23 116 2.25  68 2.34  80 2.34
   5  0.003  0.245  0.998- 117 2.27  65 2.30  72 2.37  69 2.49
   6  0.250  0.247  0.006-  66 2.25  70 2.33  69 2.35 118 2.45
   7  0.499  0.246  0.000-  70 2.23 119 2.29  71 2.34  67 2.35
   8  0.742  0.251  0.995-  68 2.27 120 2.34  71 2.41  72 2.64
   9  0.002  0.490  0.008-  69 2.25 121 2.35  76 2.36  73 2.38
  10  0.253  0.505  0.002-  74 2.23  73 2.33 122 2.41  70 2.44
  11  0.502  0.503  0.988- 123 2.24  71 2.39  74 2.47  75 2.51
  12  0.763  0.487  0.999-  72 2.26 124 2.39  76 2.41  75 2.53
  13  0.996  0.747  0.003- 125 2.34  73 2.37  77 2.40  80 2.56
  14  0.260  0.753  0.996-  78 2.21  77 2.40 126 2.41  74 2.47
  15  0.494  0.752  0.006-  78 2.24  75 2.37  79 2.41 127 2.45
  16  0.753  0.749  1.000-  80 2.23  79 2.32 128 2.36  76 2.42
  17  0.006  0.998  0.243-  81 2.32  65 2.34  93 2.41  84 2.53
  18  0.259  0.995  0.250-  94 2.17  82 2.30  66 2.32  81 2.51
  19  0.492  1.000  0.239-  67 2.29  82 2.29  95 2.44  83 2.54
  20  0.740  0.006  0.247-  83 2.23  96 2.34  68 2.40  84 2.62
  21  0.994  0.246  0.263-  88 2.25  81 2.34  85 2.36  69 2.48
  22  0.245  0.242  0.256-  85 2.21  82 2.25  70 2.59  86 2.59
  23  0.511  0.249  0.249-  87 2.25  71 2.34  83 2.35  86 2.44
  24  0.750  0.244  0.251-  84 2.20  72 2.26  87 2.42  88 2.51
  25  0.010  0.494  0.243-  85 2.23  73 2.30  89 2.33  92 2.42
  26  0.241  0.494  0.261-  89 2.26  86 2.26  90 2.33  74 2.41
  27  0.499  0.503  0.243-  87 2.23  90 2.25  75 2.26  91 2.40
  28  0.757  0.493  0.254-  88 2.28  92 2.33  76 2.38  91 2.50
  29  0.993  0.756  0.249-  96 2.25  93 2.42  77 2.43  89 2.50
  30  0.261  0.754  0.248-  94 2.24  78 2.37  93 2.55  90 2.58
  31  0.502  0.751  0.248-  79 2.32  95 2.40  94 2.44  91 2.53
  32  0.742  0.749  0.249-  80 2.26  95 2.34  92 2.35  96 2.67
  33  0.993  0.010  0.493- 100 2.28  81 2.31  97 2.31 109 2.53
  34  0.256  0.995  0.496- 110 2.21  82 2.36  98 2.37  97 2.37
  35  0.503  0.006  0.496-  98 2.27  99 2.30  83 2.43 111 2.52
  36  0.757  0.995  0.507- 100 2.26 112 2.29  84 2.34  99 2.42
  37  0.012  0.243  0.503- 101 2.19  97 2.36 104 2.48  85 2.57
  38  0.242  0.254  0.499- 101 2.25  86 2.35 102 2.35  98 2.47
  39  0.508  0.247  0.499-  99 2.23 103 2.28 102 2.48  87 2.51
  40  0.748  0.238  0.506- 100 2.31 103 2.36  88 2.42 104 2.67
  41  0.994  0.500  0.511- 108 2.21 105 2.26  89 2.52 101 2.56
  42  0.246  0.489  0.516- 106 2.27 105 2.29 102 2.40  90 2.63
  43  0.504  0.491  0.504-  91 2.29 103 2.31 107 2.33 106 2.40
  44  0.748  0.513  0.488- 108 2.26  92 2.31 107 2.41 104 2.48
  45  0.006  0.751  0.502- 109 2.20  93 2.29 105 2.33 112 2.45
  46  0.267  0.753  0.494- 110 2.30  94 2.35 106 2.46 109 2.53
  47  0.494  0.750  0.506- 110 2.28  95 2.30 107 2.37 111 2.40
  48  0.741  0.747  0.500- 111 2.24  96 2.38 112 2.52 108 2.53
  49  0.989  0.008  0.755- 116 2.27 113 2.42 125 2.56  97 2.57
  50  0.253  1.000  0.741- 114 2.29 126 2.34 113 2.36  98 2.37
  51  0.501  0.992  0.749- 127 2.20 114 2.46  99 2.53 115 2.53
  52  0.749  0.004  0.749- 100 2.28 128 2.42 115 2.48 116 2.59
  53  0.000  0.243  0.751- 113 2.26 101 2.31 117 2.35 120 2.38
  54  0.255  0.249  0.760- 118 2.23 114 2.43 102 2.45 117 2.58
  55  0.504  0.248  0.756- 118 2.29 115 2.33 119 2.37 103 2.42
  56  0.754  0.263  0.741- 104 2.19 120 2.25 116 2.45 119 2.48
  57  0.995  0.498  0.739- 124 2.26 117 2.38 105 2.41 121 2.66
  58  0.247  0.499  0.751- 121 2.32 122 2.34 118 2.44 106 2.47
  59  0.492  0.505  0.754- 122 2.31 123 2.35 119 2.36 107 2.41
  60  0.751  0.506  0.754- 124 2.25 123 2.41 120 2.44 108 2.46
  61  0.994  0.759  0.758- 125 2.27 128 2.32 109 2.57 121 2.57
  62  0.243  0.749  0.759- 125 2.23 126 2.24 122 2.39 110 2.51
  63  0.493  0.746  0.755- 123 2.27 126 2.33 111 2.34 127 2.47
  64  0.763  0.749  0.743- 128 2.29 112 2.29 124 2.37 127 2.57
  65  0.065  0.063  0.058-   5 2.30   2 2.30   1 2.31  17 2.34
  66  0.315  0.069  0.066-   6 2.25  18 2.32   3 2.34   2 2.62
  67  0.571  0.060  0.059-   4 2.23  19 2.29   7 2.35   3 2.50
  68  0.806  0.072  0.057-   8 2.27   4 2.34  20 2.40   1 2.58
  69  0.064  0.312  0.067-   9 2.25   6 2.35  21 2.48   5 2.49
  70  0.323  0.312  0.052-   7 2.23   6 2.33  10 2.44  22 2.59
  71  0.551  0.314  0.065-   7 2.34  23 2.34  11 2.39   8 2.41
  72  0.816  0.308  0.073-  24 2.26  12 2.26   5 2.37   8 2.64
  73  0.069  0.560  0.061-  25 2.30  10 2.33  13 2.37   9 2.38
  74  0.308  0.558  0.070-  10 2.23  26 2.41  11 2.47  14 2.47
  75  0.563  0.564  0.064-  27 2.26  15 2.37  11 2.51  12 2.53
  76  0.815  0.558  0.066-   9 2.36  28 2.38  12 2.41  16 2.42
  77  0.070  0.809  0.057-   1 2.37  13 2.40  14 2.40  29 2.43
  78  0.317  0.804  0.061-  14 2.21  15 2.24  30 2.37   2 2.39
  79  0.570  0.809  0.064-  16 2.32  31 2.32   3 2.36  15 2.41
  80  0.794  0.813  0.070-  16 2.23  32 2.26   4 2.34  13 2.56
  81  0.060  0.061  0.310-  33 2.31  17 2.32  21 2.34  18 2.51
  82  0.312  0.064  0.309-  22 2.25  19 2.29  18 2.30  34 2.36
  83  0.564  0.064  0.304-  20 2.23  23 2.35  35 2.43  19 2.54
  84  0.807  0.071  0.322-  24 2.20  36 2.34  17 2.53  20 2.62
  85  0.071  0.317  0.299-  22 2.21  25 2.23  21 2.36  37 2.57
  86  0.318  0.316  0.314-  26 2.26  38 2.35  23 2.44  22 2.59
  87  0.559  0.326  0.301-  27 2.23  23 2.25  24 2.42  39 2.51
  88  0.816  0.313  0.315-  21 2.25  28 2.28  40 2.42  24 2.51
  89  0.062  0.557  0.312-  26 2.26  25 2.33  29 2.50  41 2.52
  90  0.321  0.550  0.309-  27 2.25  26 2.33  30 2.58  42 2.63
  91  0.560  0.551  0.323-  43 2.29  27 2.40  28 2.50  31 2.53
  92  0.819  0.564  0.306-  44 2.31  28 2.33  32 2.35  25 2.42
  93  0.060  0.808  0.321-  45 2.29  17 2.41  29 2.42  30 2.55
  94  0.309  0.823  0.309-  18 2.17  30 2.24  46 2.35  31 2.44
  95  0.557  0.808  0.324-  47 2.30  32 2.34  31 2.40  19 2.44
  96  0.816  0.822  0.314-  29 2.25  20 2.34  48 2.38  32 2.67
  97  0.069  0.057  0.552-  33 2.31  37 2.36  34 2.37  49 2.57
  98  0.323  0.059  0.554-  35 2.27  34 2.37  50 2.37  38 2.47
  99  0.567  0.070  0.549-  39 2.23  35 2.30  36 2.42  51 2.53
 100  0.814  0.055  0.569-  36 2.26  33 2.28  52 2.28  40 2.31
 101  0.065  0.298  0.568-  37 2.19  38 2.25  53 2.31  41 2.56
 102  0.312  0.299  0.568-  38 2.35  42 2.40  54 2.45  39 2.48
 103  0.561  0.308  0.564-  39 2.28  43 2.31  40 2.36  55 2.42
 104  0.816  0.318  0.568-  56 2.19  44 2.48  37 2.48  40 2.67
 105  0.066  0.567  0.549-  41 2.26  42 2.29  45 2.33  57 2.41
 106  0.314  0.560  0.555-  42 2.27  43 2.40  46 2.46  58 2.47
 107  0.558  0.562  0.563-  43 2.33  47 2.37  44 2.41  59 2.41
 108  0.820  0.546  0.561-  41 2.21  44 2.26  60 2.46  48 2.53
 109  0.067  0.810  0.555-  45 2.20  46 2.53  33 2.53  61 2.57
 110  0.314  0.821  0.560-  34 2.21  47 2.28  46 2.30  62 2.51
 111  0.564  0.807  0.570-  48 2.24  63 2.34  47 2.40  35 2.52
 112  0.812  0.814  0.562-  64 2.29  36 2.29  45 2.45  48 2.52
 113  0.067  0.064  0.812-  53 2.26   1 2.34  50 2.36  49 2.42
 114  0.306  0.059  0.810-  50 2.29  54 2.43   2 2.44  51 2.46
 115  0.553  0.065  0.824-   3 2.22  55 2.33  52 2.48  51 2.53
 116  0.810  0.070  0.826-   4 2.25  49 2.27  56 2.45  52 2.59
 117  0.051  0.310  0.819-   5 2.27  53 2.35  57 2.38  54 2.58
 118  0.323  0.306  0.812-  54 2.23  55 2.29  58 2.44   6 2.45
 119  0.558  0.318  0.819-   7 2.29  59 2.36  55 2.37  56 2.48
 120  0.812  0.313  0.810-  56 2.25   8 2.34  53 2.38  60 2.44
 121  0.064  0.556  0.823-  58 2.32   9 2.35  61 2.57  57 2.66
 122  0.309  0.560  0.813-  59 2.31  58 2.34  62 2.39  10 2.41
 123  0.560  0.566  0.811-  11 2.24  63 2.27  59 2.35  60 2.41
 124  0.817  0.561  0.810-  60 2.25  57 2.26  64 2.37  12 2.39
 125  0.067  0.805  0.817-  62 2.23  61 2.27  13 2.34  49 2.56
 126  0.309  0.815  0.806-  62 2.24  63 2.33  50 2.34  14 2.41
 127  0.559  0.817  0.812-  51 2.20  15 2.45  63 2.47  64 2.57
 128  0.810  0.812  0.812-  64 2.29  61 2.32  16 2.36  52 2.42
 
  LATTYP: Found a face centered cubic cell.
 ALAT       =    21.8746673814
  
  Lattice vectors:
  
 A1 = (   0.0000000000,  10.9373336907,  10.9373336907)
 A2 = (  10.9373336907,   0.0000000000,  10.9373336907)
 A3 = (  10.9373336907,  10.9373336907,   0.0000000000)


Analysis of symmetry for initial positions (statically):
=====================================================================
 Subroutine PRICEL returns:
 Original cell was already a primitive cell.
 

 Routine SETGRP: Setting up the symmetry group for a 
 face centered cubic supercell.


 Subroutine GETGRP returns: Found  1 space group operations
 (whereof  1 operations were pure point group operations)
 out of a pool of 48 trial point group operations.


The static configuration has the point symmetry C_1 .


Analysis of symmetry for dynamics (positions and initial velocities):
=====================================================================
 Subroutine PRICEL returns:
 Original cell was already a primitive cell.
 

 Routine SETGRP: Setting up the symmetry group for a 
 face centered cubic supercell.


 Subroutine GETGRP returns: Found  1 space group operations
 (whereof  1 operations were pure point group operations)
 out of a pool of 48 trial point group operations.


The dynamic configuration has the point symmetry C_1 .


 Subroutine INISYM returns: Found  1 space group operations
 (whereof  1 operations are pure point group operations),
 and found     1 'primitive' translations

 
 
 KPOINTS: KPOINTS File, automatically generated by

Automatic generation of k-mesh.
Space group operators:
 irot       det(A)        alpha          n_x          n_y          n_z        tau_x        tau_y        tau_z
    1     1.000000     0.000001     1.000000     0.000000     0.000000     0.000000     0.000000     0.000000
 
 Subroutine IBZKPT returns following result:
 ===========================================
 
 Found      8 irreducible k-points:
 
 Following reciprocal coordinates:
            Coordinates               Weight
  0.000000  0.000000  0.000000      1.000000
  0.500000  0.000000  0.000000      1.000000
  0.000000  0.500000  0.000000      1.000000
  0.500000  0.500000  0.000000      1.000000
  0.000000  0.000000  0.500000      1.000000
  0.500000  0.000000  0.500000      1.000000
  0.000000  0.500000  0.500000      1.000000
  0.500000  0.500000  0.500000      1.000000
 
 Following cartesian coordinates:
            Coordinates               Weight
  0.000000  0.000000  0.000000      1.000000
 -0.022857  0.022857  0.022857      1.000000
  0.022857 -0.022857  0.022857      1.000000
  0.000000  0.000000  0.045715      1.000000
  0.022857  0.022857 -0.022857      1.000000
  0.000000  0.045715  0.000000      1.000000
  0.045715  0.000000  0.000000      1.000000
  0.022857  0.022857  0.022857      1.000000
 


--------------------------------------------------------------------------------------------------------




 Dimension of arrays:
   k-points           NKPTS =      8   k-points in BZ     NKDIM =      8   number of bands    NBANDS=    322
   number of dos      NEDOS =    301   number of ions     NIONS =    128
   non local maximal  LDIM  =      4   non local SUM 2l+1 LMDIM =      8
   total plane-waves  NPLWV = ******
   max r-space proj   IRMAX =      1   max aug-charges    IRDMAX= 176811
   dimension x,y,z NGX =   120 NGY =  120 NGZ =  120
   dimension x,y,z NGXF=   240 NGYF=  240 NGZF=  240
   support grid    NGXF=   480 NGYF=  480 NGZF=  480
   ions per type =             128
   NGX,Y,Z   is equivalent  to a cutoff of  12.90, 12.90, 12.90 a.u.
   NGXF,Y,Z  is equivalent  to a cutoff of  25.80, 25.80, 25.80 a.u.

 SYSTEM =  potpaw_PBE@./ARUN.APL1ZEROSTATE         
 POSCAR =  kk                                      

 Startparameter for this run:
   NWRITE =      2    write-flag & timer
   PREC   = accura    normal or accurate (medium, high low for compatibility)
   ISTART =      0    job   : 0-new  1-cont  2-samecut
   ICHARG =      2    charge: 1-file 2-atom 10-const
   ISPIN  =      1    spin polarized calculation?
   LNONCOLLINEAR =      F non collinear calculations
   LSORBIT =      F    spin-orbit coupling
   INIWAV =      1    electr: 0-lowe 1-rand  2-diag
   LASPH  =      F    aspherical Exc in radial PAW
   METAGGA=      F    non-selfconsistent MetaGGA calc.

 Electronic Relaxation 1
   ENCUT  =  500.0 eV  36.75 Ry    6.06 a.u.  28.20 28.20 28.20*2*pi/ulx,y,z
   ENINI  =  500.0     initial cutoff
   ENAUG  =  322.1 eV  augmentation charge cutoff
   NELM   =    120;   NELMIN=  4; NELMDL= -5     # of ELM steps 
   EDIFF  = 0.1E-07   stopping-criterion for ELM
   LREAL  =      F    real-space projection
   NLSPLINE    = F    spline interpolate recip. space projectors
   LCOMPAT=      F    compatible to vasp.4.4
   GGA_COMPAT  = T    GGA compatible to vasp.4.4-vasp.4.6
   LMAXPAW     = -100 max onsite density
   LMAXMIX     =    2 max onsite mixed and CHGCAR
   VOSKOWN=      0    Vosko Wilk Nusair interpolation
   ROPT   =    0.00000
 Ionic relaxation
   EDIFFG = 0.1E-06   stopping-criterion for IOM
   NSW    =      0    number of steps for IOM
   NBLOCK =      1;   KBLOCK =      1    inner block; outer block 
   IBRION =     -1    ionic relax: 0-MD 1-quasi-New 2-CG
   NFREE  =      0    steps in history (QN), initial steepest desc. (CG)
   ISIF   =      2    stress and relaxation
   IWAVPR =     10    prediction:  0-non 1-charg 2-wave 3-comb
   ISYM   =      2    0-nonsym 1-usesym 2-fastsym
   LCORR  =      T    Harris-Foulkes like correction to forces

   POTIM  = 0.5000    time-step for ionic-motion
   TEIN   =    0.0    initial temperature
   TEBEG  =    0.0;   TEEND  =   0.0 temperature during run
   SMASS  =  -3.00    Nose mass-parameter (am)
   estimated Nose-frequenzy (Omega)   =  0.10E-29 period in steps =****** mass=  -0.547E-26a.u.
   SCALEE = 1.0000    scale energy and forces
   NPACO  =    256;   APACO  = 16.0  distance and # of slots for P.C.
   PSTRESS=    0.0 pullay stress

  Mass of Ions in am
   POMASS =  28.09
  Ionic Valenz
   ZVAL   =   4.00
  Atomic Wigner-Seitz radii
   RWIGS  =  -1.00
  virtual crystal weights 
   VCA    =   1.00
   NELECT =     512.0000    total number of electrons
   NUPDOWN=      -1.0000    fix difference up-down

 DOS related values:
   EMIN   =  10.00;   EMAX   =-10.00  energy-range for DOS
   EFERMI =   0.00
   ISMEAR =     0;   SIGMA  =   0.01  broadening in eV -4-tet -1-fermi 0-gaus

 Electronic relaxation 2 (details)
   IALGO  =     38    algorithm
   LDIAG  =      T    sub-space diagonalisation (order eigenvalues)
   LSUBROT=      F    optimize rotation matrix (better conditioning)
   TURBO    =      0    0=normal 1=particle mesh
   IRESTART =      0    0=no restart 2=restart with 2 vectors
   NREBOOT  =      0    no. of reboots
   NMIN     =      0    reboot dimension
   EREF     =   0.00    reference energy to select bands
   IMIX   =      4    mixing-type and parameters
     AMIX     =   0.40;   BMIX     =  1.00
     AMIX_MAG =   1.60;   BMIX_MAG =  1.00
     AMIN     =   0.10
     WC   =   100.;   INIMIX=   1;  MIXPRE=   1;  MAXMIX= -45

 Intra band minimization:
   WEIMIN = 0.0000     energy-eigenvalue tresh-hold
   EBREAK =  0.78E-11  absolut break condition
   DEPER  =   0.30     relativ break condition  

   TIME   =   0.40     timestep for ELM

  volume/ion in A,a.u.               =      20.44       137.96
  Fermi-wavevector in a.u.,A,eV,Ry     =   0.950408  1.796010 12.289804  0.903275
  Thomas-Fermi vector in A             =   2.078782
 
 Write flags
   LWAVE        =      F    write WAVECAR
   LDOWNSAMPLE  =      F    k-point downsampling of WAVECAR
   LCHARG       =      F    write CHGCAR
   LVTOT        =      F    write LOCPOT, total local potential
   LVHAR        =      F    write LOCPOT, Hartree potential only
   LELF         =      F    write electronic localiz. function (ELF)
   LORBIT       =      0    0 simple, 1 ext, 2 COOP (PROOUT), +10 PAW based schemes


 Dipole corrections
   LMONO  =      F    monopole corrections only (constant potential shift)
   LDIPOL =      F    correct potential (dipole corrections)
   IDIPOL =      0    1-x, 2-y, 3-z, 4-all directions 
   EPSILON=  1.0000000 bulk dielectric constant

 Exchange correlation treatment:
   GGA     =    --    GGA type
   LEXCH   =     8    internal setting for exchange type
   VOSKOWN=      0    Vosko Wilk Nusair interpolation
   LHFCALC =     F    Hartree Fock is set to
   LHFONE  =     F    Hartree Fock one center treatment
   AEXX    =    0.0000 exact exchange contribution

 Linear response parameters
   LEPSILON=     F    determine dielectric tensor
   LRPA    =     F    only Hartree local field effects (RPA)
   LNABLA  =     F    use nabla operator in PAW spheres
   LVEL    =     F    velocity operator in full k-point grid
   LINTERFAST=   F  fast interpolation
   KINTER  =     0    interpolate to denser k-point grid
   CSHIFT  =0.1000    complex shift for real part using Kramers Kronig
   OMEGAMAX=  -1.0    maximum frequency
   DEG_THRESHOLD= 0.2000000E-02 threshold for treating states as degnerate
   RTIME   =   -0.100 relaxation time in fs
  (WPLASMAI=    0.000 imaginary part of plasma frequency in eV, 0.658/RTIME)
   DFIELD  = 0.0000000 0.0000000 0.0000000 field for delta impulse in time
 
 Orbital magnetization related:
   ORBITALMAG=     F  switch on orbital magnetization
   LCHIMAG   =     F  perturbation theory with respect to B field
   DQ        =  0.001000  dq finite difference perturbation B field
   LLRAUG    =     F  two centre corrections for induced B field



--------------------------------------------------------------------------------------------------------


 Static calculation
 charge density and potential will be updated during run
 non-spin polarized calculation
 Variant of blocked Davidson
 Davidson routine will perform the subspace rotation
 perform sub-space diagonalisation
    after iterative eigenvector-optimisation
 modified Broyden-mixing scheme, WC =      100.0
 initial mixing is a Kerker type mixing with AMIX =  0.4000 and BMIX =      1.0000
 Hartree-type preconditioning will be used
 using additional bands           66
 reciprocal scheme for non local part
 use partial core corrections
 calculate Harris-corrections to forces 
   (improved forces if not selfconsistent)
 use gradient corrections 
 use of overlap-Matrix (Vanderbilt PP)
 Gauss-broadening in eV      SIGMA  =   0.01


--------------------------------------------------------------------------------------------------------


  energy-cutoff  :      500.00
  volume of cell :     2616.76
      direct lattice vectors                 reciprocal lattice vectors
     0.000000000 10.937333691 10.937333691    -0.045714981  0.045714981  0.045714981
    10.937333691  0.000000000 10.937333691     0.045714981 -0.045714981  0.045714981
    10.937333691 10.937333691  0.000000000     0.045714981  0.045714981 -0.045714981

  length of vectors
    15.467725642 15.467725642 15.467725642     0.079180669  0.079180669  0.079180669


 
 k-points in units of 2pi/SCALE and weight: KPOINTS File, automatically generated by
   0.00000000  0.00000000  0.00000000       0.125
  -0.02285749  0.02285749  0.02285749       0.125
   0.02285749 -0.02285749  0.02285749       0.125
   0.00000000  0.00000000  0.04571498       0.125
   0.02285749  0.02285749 -0.02285749       0.125
   0.00000000  0.04571498  0.00000000       0.125
   0.04571498  0.00000000  0.00000000       0.125
   0.02285749  0.02285749  0.02285749       0.125
 
 k-points in reciprocal lattice and weights: KPOINTS File, automatically generated by
   0.00000000  0.00000000  0.00000000       0.125
   0.50000000  0.00000000  0.00000000       0.125
   0.00000000  0.50000000  0.00000000       0.125
   0.50000000  0.50000000  0.00000000       0.125
   0.00000000  0.00000000  0.50000000       0.125
   0.50000000  0.00000000  0.50000000       0.125
   0.00000000  0.50000000  0.50000000       0.125
   0.50000000  0.50000000  0.50000000       0.125
 
 position of ions in fractional coordinates (direct lattice) 
   0.00985375  0.99604606  0.99734855
   0.24619241  0.99314113  0.00339627
   0.49943807  0.99489802  0.99900970
   0.74811102  0.99779213  0.00334900
   0.00260132  0.24512620  0.99764775
   0.25020103  0.24748378  0.00563589
   0.49933085  0.24611788  0.00020802
   0.74198638  0.25144069  0.99514881
   0.00217474  0.49013819  0.00837164
   0.25275877  0.50460207  0.00243724
   0.50224164  0.50282655  0.98766641
   0.76266084  0.48657484  0.99891362
   0.99625357  0.74729100  0.00253742
   0.25956775  0.75297766  0.99553217
   0.49416864  0.75165558  0.00638271
   0.75291099  0.74919548  0.99951070
   0.00584016  0.99842249  0.24306749
   0.25868296  0.99456758  0.24954481
   0.49246664  0.99955888  0.23900838
   0.74043424  0.00580174  0.24672625
   0.99388648  0.24598344  0.26253188
   0.24463712  0.24186049  0.25622218
   0.51133729  0.24927324  0.24867357
   0.74969929  0.24429284  0.25130028
   0.01021671  0.49416120  0.24297921
   0.24108817  0.49440507  0.26053396
   0.49892437  0.50280593  0.24274276
   0.75747780  0.49282944  0.25391758
   0.99345572  0.75550593  0.24894911
   0.26115025  0.75391344  0.24832495
   0.50153083  0.75110402  0.24765032
   0.74166777  0.74929181  0.24934951
   0.99304435  0.00983585  0.49271783
   0.25645075  0.99548829  0.49612182
   0.50268207  0.00602511  0.49611507
   0.75740958  0.99481236  0.50677219
   0.01226695  0.24278314  0.50265591
   0.24175399  0.25361504  0.49859409
   0.50817962  0.24658400  0.49870994
   0.74795915  0.23796395  0.50583245
   0.99371206  0.50046208  0.51099254
   0.24554733  0.48878001  0.51649337
   0.50362615  0.49144034  0.50420716
   0.74834549  0.51340846  0.48825816
   0.00562310  0.75063832  0.50177724
   0.26654800  0.75339368  0.49383700
   0.49408211  0.74955375  0.50640593
   0.74105350  0.74650749  0.50003177
   0.98906594  0.00780669  0.75477152
   0.25314315  0.99979663  0.74138661
   0.50124918  0.99170268  0.74900705
   0.74942768  0.00354934  0.74946435
   0.00032275  0.24276732  0.75139206
   0.25524370  0.24886869  0.76049235
   0.50374312  0.24845356  0.75564799
   0.75376716  0.26300466  0.74135718
   0.99503250  0.49796386  0.73915080
   0.24678985  0.49876380  0.75110617
   0.49205284  0.50539421  0.75403055
   0.75084094  0.50567020  0.75359656
   0.99351871  0.75933376  0.75766565
   0.24340205  0.74934220  0.75887037
   0.49303543  0.74620980  0.75464470
   0.76263347  0.74869127  0.74272603
   0.06464962  0.06332549  0.05808689
   0.31483105  0.06911645  0.06614723
   0.57137729  0.06000639  0.05948532
   0.80560665  0.07157787  0.05692152
   0.06386290  0.31164530  0.06664343
   0.32327233  0.31227562  0.05169864
   0.55141911  0.31401817  0.06487230
   0.81598462  0.30804535  0.07301985
   0.06856460  0.55955538  0.06069324
   0.30794820  0.55817943  0.06997058
   0.56299277  0.56398577  0.06395762
   0.81506575  0.55757379  0.06570644
   0.06966057  0.80876723  0.05712605
   0.31714253  0.80447668  0.06144804
   0.56961363  0.80859163  0.06411487
   0.79365505  0.81323204  0.07032060
   0.05977505  0.06133795  0.31008220
   0.31167181  0.06351924  0.30924953
   0.56410004  0.06383634  0.30400713
   0.80697813  0.07102808  0.32220190
   0.07099249  0.31738727  0.29916685
   0.31792222  0.31603628  0.31360897
   0.55915562  0.32618024  0.30077755
   0.81631172  0.31259065  0.31493478
   0.06218693  0.55747197  0.31207228
   0.32093142  0.54999627  0.30873482
   0.55957681  0.55071814  0.32289420
   0.81853923  0.56391338  0.30550645
   0.05992173  0.80808204  0.32074363
   0.30861233  0.82328471  0.30856116
   0.55704897  0.80828062  0.32434048
   0.81599079  0.82185942  0.31404267
   0.06864900  0.05700509  0.55227562
   0.32326745  0.05892532  0.55361147
   0.56739284  0.07013889  0.54931691
   0.81378725  0.05505433  0.56925420
   0.06452368  0.29813151  0.56826753
   0.31195137  0.29915048  0.56818606
   0.56124763  0.30828488  0.56430467
   0.81604321  0.31833269  0.56810252
   0.06647253  0.56686685  0.54925647
   0.31389588  0.56016300  0.55521694
   0.55822774  0.56190414  0.56312942
   0.81975821  0.54634646  0.56061611
   0.06722586  0.80959971  0.55531022
   0.31412433  0.82096287  0.56028119
   0.56383328  0.80679827  0.56960448
   0.81160142  0.81365996  0.56157884
   0.06701057  0.06392156  0.81180769
   0.30618547  0.05854748  0.81026882
   0.55346648  0.06467911  0.82393521
   0.81041147  0.07043059  0.82606657
   0.05149098  0.31020221  0.81851199
   0.32286611  0.30598552  0.81176189
   0.55761768  0.31829149  0.81900158
   0.81241583  0.31315244  0.81008124
   0.06364188  0.55588676  0.82262532
   0.30905667  0.56001665  0.81262017
   0.56031275  0.56635855  0.81056547
   0.81717963  0.56096069  0.81024199
   0.06661514  0.80539331  0.81739918
   0.30873304  0.81451434  0.80555673
   0.55921091  0.81747749  0.81235814
   0.81027122  0.81184565  0.81247529
 
 position of ions in cartesian coordinates  (Angst):
  21.80242202 11.01610765 11.00186198
  10.89946207  2.72983465 13.55500449
  21.80803403 16.38902321 16.34405242
  10.94981455  8.21896893 19.09552531
  13.59263337 10.94005790  2.70947853
   2.76845424  2.79817372  5.44334482
   2.69414861  5.46362328  8.15322152
  13.63436530 18.99962720 10.86544327
   5.45236831  0.11534923  5.38459076
   5.54565812  2.79116389  8.28350820
  16.30201884 16.29562151 10.99276611
  16.24728298 19.26692767 13.66330756
   8.20112369 10.92411035 19.06972875
  19.12403554 13.72744660 11.07454703
   8.29091776  5.47469719 13.62599527
  19.12618302 19.16682074 16.42903967
  13.57859015  2.72238595 10.98395570
  13.60727236  5.55865671 13.70721934
  13.54662341  8.00038641 16.31878099
   2.76198295 10.79690372  8.16183192
   5.56180172 13.74186689 13.56087099
   5.44769637  5.47806524  5.32098668
   5.44621047  8.31249239  8.31905120
   5.42046734 10.94826634 10.87162368
   8.06235068  2.76928824  5.51654949
   8.25702007  5.48640869  8.04433497
   8.15431484  8.11186096 10.95625860
   8.16742139 11.06196884 13.67502755
  10.98605999 13.58859624 19.12897715
  10.96181574  5.57230032 11.10209038
  10.92370946  8.19404424 13.70048531
  10.92247339 10.83908669 16.30712247
   5.49659737 16.25027680 10.96883549
  16.31423747  8.23113733 13.69287501
   5.49207471 10.92417757  5.56390023
  16.42333123 13.82677783 19.16463608
   8.15311558  5.63188313  2.78956794
   8.22716228  8.09743398  5.41801643
   8.15152846 11.01268706  8.25510154
   8.13514945 13.71313711 10.78337001
  11.06261665 16.45745624 16.34228111
  10.99501048  8.33469350  8.03158320
  10.88972892 11.02300915 10.88337422
  10.95556197 13.52514667 13.80022389
  13.69808690  5.54960687  8.27148351
  13.64137811  8.31658447 11.15544255
  13.73685003 10.94267146 13.60206030
  13.63381588 13.57416376 16.26995101
   8.34057233 19.07293219 10.90312863
  19.04390215 10.87750384 13.70382048
  19.03872318 13.67446968 16.32891269
   8.23596200 16.39388231  8.23556102
  10.87345280  8.22175572  2.65875722
  11.03971852 11.10944411  5.51364541
  10.98219372 13.77438074  8.22702608
  10.98504064 16.35267382 11.12077267
  13.53073590 18.96734147 16.32939946
  13.67024498 10.91432182  8.15436913
  13.77474881 13.62882977 10.90941116
  13.77302066 16.45453495 13.74288162
  16.59192871 19.15328769 19.17153231
  16.49582420 10.96218793 10.85797513
  16.41534647 13.64629394 13.55403867
  16.31212869 16.46461915 16.52986306
   1.32792767  1.34241009  1.39970645
   1.47942400  4.16688665  4.19936192
   1.30692071  6.89995490  6.90565403
   1.40544074  9.43375835  9.59405982
   4.13747014  1.42739130  4.10705853
   3.98090795  4.10118270  6.95120003
   4.14405154  6.74058480  9.46557632
   4.16783723  9.72333855 12.29389081
   6.78386611  1.41373612  6.86995787
   6.87028631  4.13342381  9.47312694
   6.86802644  6.85716563 12.32614039
   6.81702387  9.63329929 15.01301666
   9.47056375  1.38670764  9.60765801
   9.47090759  4.14077137 12.26752352
   9.54508216  6.93130009 15.07389081
   9.66371002  9.44959000 17.57506025
   4.06234612  4.04525218  1.32465335
   4.07709644  6.79122391  4.10358979
   4.02322671  9.49477776  6.86794966
   4.30088748 12.35021874  9.60304688
   6.74345817  4.04855625  4.24783898
   6.88664015  6.90726735  6.93381560
   6.85724657  9.40537602  9.68321379
   6.86345506 12.37282047 12.34718197
   9.51049556  4.09339785  6.77741614
   9.39222855  6.88686982  9.52562684
   9.55498969  9.65187989 12.14366644
   9.50913471 12.29406266 15.12034548
  12.34634307  4.16346407  9.49364691
  12.37937597  6.75023230 12.37993563
  12.38785488  9.64005043 14.93306528
  12.42374019 12.35955304 17.91371427
   6.66390641  6.79125977  1.37432069
   6.69951923  9.59071736  4.18016990
   6.77519475 12.21382723  6.97289728
   6.82827070 15.12678584  9.50281036
   9.47609540  6.92104852  3.96648081
   9.48634919  9.62635681  6.68382485
   9.54380308 12.31054111  9.51036718
   9.69523774 15.13886378 12.40704780
  12.20741316  6.73443348  6.92704415
  12.19928257  9.50577688  9.55987360
  12.30486745 12.26465739 12.25125610
  12.10721900 15.09761449 14.94154261
  14.92847536  6.80888482  9.59013390
  15.10712716  9.56366486 12.41482744
  15.05417621 12.39678700 14.99105462
  15.04144562 15.01893073 17.77602602
   9.57814305  9.61192857  1.43204847
   9.50253375 12.21103310  3.98920601
   9.71907130 15.06510186  6.76086461
   9.80528857 17.89870638  9.63406348
  12.34512384  9.51551276  3.95595908
  12.22517646 12.40980503  6.87796008
  12.43895383 15.05654418  9.58011093
  12.28518161 17.74579184 12.31071573
  15.07724660  9.69340008  6.77599140
  15.01298700 12.26815395  9.50534499
  15.05987752 14.99375257 12.32278000
  14.99730130 17.79965334 15.07318065
  17.74902297  9.66875961  9.53744744
  17.71925788 12.18735908 12.28533139
  17.82605613 15.00130834 15.05730046
  17.76574013 17.74852005 17.74163353
 


--------------------------------------------------------------------------------------------------------


 k-point  1 :   0.0000 0.0000 0.0000  plane waves:   66299
 k-point  2 :   0.5000 0.0000 0.0000  plane waves:   66394
 k-point  3 :   0.0000 0.5000 0.0000  plane waves:   66394
 k-point  4 :   0.5000 0.5000 0.0000  plane waves:   66552
 k-point  5 :   0.0000 0.0000 0.5000  plane waves:   66394
 k-point  6 :   0.5000 0.0000 0.5000  plane waves:   66552
 k-point  7 :   0.0000 0.5000 0.5000  plane waves:   66552
 k-point  8 :   0.5000 0.5000 0.5000  plane waves:   66394

 maximum and minimum number of plane-waves per node :      4207     4110

 maximum number of plane-waves:     66552
 maximum index in each direction: 
   IXMAX=   28   IYMAX=   28   IZMAX=   28
   IXMIN=  -28   IYMIN=  -28   IZMIN=  -28


 parallel 3D FFT for wavefunctions:
    minimum data exchange during FFTs selected (reduces bandwidth)
 parallel 3D FFT for charge:
    minimum data exchange during FFTs selected (reduces bandwidth)


 total amount of memory used by VASP MPI-rank0   221701. kBytes
=======================================================================

   base      :      30000. kBytes
   nonl-proj :      10690. kBytes
   fftplans  :      66746. kBytes
   grid      :      26864. kBytes
   one-center:         24. kBytes
   wavefun   :      87377. kBytes
 
     INWAV:  cpu time    0.0001: real time    0.0005
 Broyden mixing: mesh for mixing (old mesh)
   NGX = 57   NGY = 57   NGZ = 57
  (NGX  =240   NGY  =240   NGZ  =240)
  gives a total of 185193 points

 initial charge density was supplied:
 charge density of overlapping atoms calculated
 number of electron     512.0000000 magnetization 
 keeping initial charge density in first step


--------------------------------------------------------------------------------------------------------


 Maximum index for augmentation-charges         5601 (set IRDMAX)


--------------------------------------------------------------------------------------------------------


 First call to EWALD:  gamma=   0.129
 Maximum number of real-space cells 3x 3x 3
 Maximum number of reciprocal cells 3x 3x 3

    FEWALD:  cpu time    0.0061: real time    0.0061


--------------------------------------- Iteration      1(   1)  ---------------------------------------


    POTLOK:  cpu time    0.4902: real time    0.4989
    SETDIJ:  cpu time    0.5168: real time    0.5173
     EDDAV:  cpu time   70.0751: real time   70.1331
       DOS:  cpu time    0.0028: real time    0.0028
    --------------------------------------------
      LOOP:  cpu time   71.0850: real time   71.1521

 eigenvalue-minimisations  :  5152
 total energy-change (2. order) : 0.1383549E+04  (-0.1908306E+05)
 number of electron     512.0000000 magnetization 
 augmentation part      512.0000000 magnetization 

 Free energy of the ion-electron system (eV)
  ---------------------------------------------------
  alpha Z        PSCENC =       210.77028614
  Ewald energy   TEWEN  =    -14474.03021383
  -Hartree energ DENC   =      -753.72984244
  -exchange      EXHF   =         0.00000000
  -V(xc)+E(xc)   XCENC  =     -1195.31503822
  PAW double counting   =      4221.13331941    -1969.18571412
  entropy T*S    EENTRO =        -0.00065594
  eigenvalues    EBANDS =      2151.42631991
  atomic energy  EATOM  =     13192.48085998
  Solvation  Ediel_sol  =         0.00000000
  ---------------------------------------------------
  free energy    TOTEN  =      1383.54932090 eV

  energy without entropy =     1383.54997684  energy(sigma->0) =     1383.54964887


--------------------------------------------------------------------------------------------------------




--------------------------------------- Iteration      1(   2)  ---------------------------------------


     EDDAV:  cpu time   79.7824: real time   79.8603
       DOS:  cpu time    0.0010: real time    0.0010
    --------------------------------------------
      LOOP:  cpu time   79.7835: real time   79.8614

 eigenvalue-minimisations  :  6112
 total energy-change (2. order) :-0.1921312E+04  (-0.1826281E+04)
 number of electron     512.0000000 magnetization 
 augmentation part      512.0000000 magnetization 

 Free energy of the ion-electron system (eV)
  ---------------------------------------------------
  alpha Z        PSCENC =       210.77028614
  Ewald energy   TEWEN  =    -14474.03021383
  -Hartree energ DENC   =      -753.72984244
  -exchange      EXHF   =         0.00000000
  -V(xc)+E(xc)   XCENC  =     -1195.31503822
  PAW double counting   =      4221.13331941    -1969.18571412
  entropy T*S    EENTRO =        -0.00000000
  eigenvalues    EBANDS =       230.11414530
  atomic energy  EATOM  =     13192.48085998
  Solvation  Ediel_sol  =         0.00000000
  ---------------------------------------------------
  free energy    TOTEN  =      -537.76219776 eV

  energy without entropy =     -537.76219776  energy(sigma->0) =     -537.76219776


--------------------------------------------------------------------------------------------------------




--------------------------------------- Iteration      1(   3)  ---------------------------------------


     EDDAV:  cpu time   81.4838: real time   81.5423
       DOS:  cpu time    0.0010: real time    0.0010
    --------------------------------------------
      LOOP:  cpu time   81.4849: real time   81.5433

 eigenvalue-minimisations  :  6272
 total energy-change (2. order) :-0.1497577E+03  (-0.1467719E+03)
 number of electron     512.0000000 magnetization 
 augmentation part      512.0000000 magnetization 

 Free energy of the ion-electron system (eV)
  ---------------------------------------------------
  alpha Z        PSCENC =       210.77028614
  Ewald energy   TEWEN  =    -14474.03021383
  -Hartree energ DENC   =      -753.72984244
  -exchange      EXHF   =         0.00000000
  -V(xc)+E(xc)   XCENC  =     -1195.31503822
  PAW double counting   =      4221.13331941    -1969.18571412
  entropy T*S    EENTRO =        -0.00000000
  eigenvalues    EBANDS =        80.35645163
  atomic energy  EATOM  =     13192.48085998
  Solvation  Ediel_sol  =         0.00000000
  ---------------------------------------------------
  free energy    TOTEN  =      -687.51989144 eV

  energy without entropy =     -687.51989144  energy(sigma->0) =     -687.51989144


--------------------------------------------------------------------------------------------------------




--------------------------------------- Iteration      1(   4)  ---------------------------------------


     EDDAV:  cpu time   80.8353: real time   80.9027
       DOS:  cpu time    0.0012: real time    0.0012
    --------------------------------------------
      LOOP:  cpu time   80.8365: real time   80.9039

 eigenvalue-minimisations  :  6208
 total energy-change (2. order) :-0.4275174E+01  (-0.4239539E+01)
 number of electron     512.0000000 magnetization 
 augmentation part      512.0000000 magnetization 

 Free energy of the ion-electron system (eV)
  ---------------------------------------------------
  alpha Z        PSCENC =       210.77028614
  Ewald energy   TEWEN  =    -14474.03021383
  -Hartree energ DENC   =      -753.72984244
  -exchange      EXHF   =         0.00000000
  -V(xc)+E(xc)   XCENC  =     -1195.31503822
  PAW double counting   =      4221.13331941    -1969.18571412
  entropy T*S    EENTRO =        -0.00000000
  eigenvalues    EBANDS =        76.08127743
  atomic energy  EATOM  =     13192.48085998
  Solvation  Ediel_sol  =         0.00000000
  ---------------------------------------------------
  free energy    TOTEN  =      -691.79506564 eV

  energy without entropy =     -691.79506564  energy(sigma->0) =     -691.79506564


--------------------------------------------------------------------------------------------------------




--------------------------------------- Iteration      1(   5)  ---------------------------------------


     EDDAV:  cpu time   82.0973: real time   82.1662
       DOS:  cpu time    0.0011: real time    0.0011
    CHARGE:  cpu time    3.1800: real time    3.1818
    MIXING:  cpu time    0.0235: real time    0.0235
    --------------------------------------------
      LOOP:  cpu time   85.3019: real time   85.3727

 eigenvalue-minimisations  :  6336
 total energy-change (2. order) :-0.1486079E+00  (-0.1482186E+00)
 number of electron     511.9999998 magnetization 
 augmentation part      -30.1741330 magnetization 

 Broyden mixing:
  rms(total) = 0.23979E+01    rms(broyden)= 0.23979E+01
  rms(prec ) = 0.29050E+01
  weight for this iteration     100.00

 Free energy of the ion-electron system (eV)
  ---------------------------------------------------
  alpha Z        PSCENC =       210.77028614
  Ewald energy   TEWEN  =    -14474.03021383
  -Hartree energ DENC   =      -753.72984244
  -exchange      EXHF   =         0.00000000
  -V(xc)+E(xc)   XCENC  =     -1195.31503822
  PAW double counting   =      4221.13331941    -1969.18571412
  entropy T*S    EENTRO =        -0.00000000
  eigenvalues    EBANDS =        75.93266957
  atomic energy  EATOM  =     13192.48085998
  Solvation  Ediel_sol  =         0.00000000
  ---------------------------------------------------
  free energy    TOTEN  =      -691.94367350 eV

  energy without entropy =     -691.94367350  energy(sigma->0) =     -691.94367350


--------------------------------------------------------------------------------------------------------




--------------------------------------- Iteration      1(   6)  ---------------------------------------


    POTLOK:  cpu time    0.4885: real time    0.4919
    SETDIJ:  cpu time    0.5040: real time    0.5055
     EDDAV:  cpu time   77.6103: real time   77.6669
       DOS:  cpu time    0.0010: real time    0.0010
    CHARGE:  cpu time    3.1787: real time    3.1804
    MIXING:  cpu time    0.0339: real time    0.0340
    --------------------------------------------
      LOOP:  cpu time   81.8164: real time   81.8797

 eigenvalue-minimisations  :  5904
 total energy-change (2. order) : 0.8402114E+01  (-0.5740403E+00)
 number of electron     511.9999998 magnetization 
 augmentation part      -29.8322634 magnetization 

 Broyden mixing:
  rms(total) = 0.14252E+01    rms(broyden)= 0.14252E+01
  rms(prec ) = 0.17173E+01
  weight for this iteration     100.00

 eigenvalues of (default mixing * dielectric matrix)
  average eigenvalue GAMMA=   2.4335
  2.4335

 Free energy of the ion-electron system (eV)
  ---------------------------------------------------
  alpha Z        PSCENC =       210.77028614
  Ewald energy   TEWEN  =    -14474.03021383
  -Hartree energ DENC   =      -849.05083335
  -exchange      EXHF   =         0.00000000
  -V(xc)+E(xc)   XCENC  =     -1180.64122724
  PAW double counting   =      4466.04465283    -2220.87747501
  entropy T*S    EENTRO =        -0.00000000
  eigenvalues    EBANDS =       171.76239071
  atomic energy  EATOM  =     13192.48085998
  Solvation  Ediel_sol  =         0.00000000
  ---------------------------------------------------
  free energy    TOTEN  =      -683.54155977 eV

  energy without entropy =     -683.54155977  energy(sigma->0) =     -683.54155977


--------------------------------------------------------------------------------------------------------




--------------------------------------- Iteration      1(   7)  ---------------------------------------


    POTLOK:  cpu time    0.4931: real time    0.4943
    SETDIJ:  cpu time    0.5054: real time    0.5060
     EDDAV:  cpu time   76.9486: real time   77.0262
       DOS:  cpu time    0.0011: real time    0.0011
    CHARGE:  cpu time    3.1891: real time    3.1914
    MIXING:  cpu time    0.0240: real time    0.0241
    --------------------------------------------
      LOOP:  cpu time   81.1613: real time   81.2431

 eigenvalue-minimisations  :  5840
 total energy-change (2. order) : 0.3533825E+01  (-0.1115909E+01)
 number of electron     511.9999998 magnetization 
 augmentation part      -29.3793758 magnetization 

 Broyden mixing:
  rms(total) = 0.15397E+00    rms(broyden)= 0.15397E+00
  rms(prec ) = 0.20005E+00
  weight for this iteration     100.00

 eigenvalues of (default mixing * dielectric matrix)
  average eigenvalue GAMMA=   2.1577
  2.1577  2.1577

 Free energy of the ion-electron system (eV)
  ---------------------------------------------------
  alpha Z        PSCENC =       210.77028614
  Ewald energy   TEWEN  =    -14474.03021383
  -Hartree energ DENC   =     -1000.29652569
  -exchange      EXHF   =         0.00000000
  -V(xc)+E(xc)   XCENC  =     -1156.60603050
  PAW double counting   =      4786.95498389    -2550.35287425
  entropy T*S    EENTRO =        -0.00000000
  eigenvalues    EBANDS =       311.07177972
  atomic energy  EATOM  =     13192.48085998
  Solvation  Ediel_sol  =         0.00000000
  ---------------------------------------------------
  free energy    TOTEN  =      -680.00773454 eV

  energy without entropy =     -680.00773454  energy(sigma->0) =     -680.00773454


--------------------------------------------------------------------------------------------------------




--------------------------------------- Iteration      1(   8)  ---------------------------------------


    POTLOK:  cpu time    0.4925: real time    0.4938
    SETDIJ:  cpu time    0.5061: real time    0.5071
     EDDAV:  cpu time   76.5723: real time   76.6434
       DOS:  cpu time    0.0011: real time    0.0011
    CHARGE:  cpu time    3.1509: real time    3.1538
    MIXING:  cpu time    0.0242: real time    0.0242
    --------------------------------------------
      LOOP:  cpu time   80.7471: real time   80.8234

 eigenvalue-minimisations  :  5808
 total energy-change (2. order) :-0.5913422E-01  (-0.1076664E+00)
 number of electron     511.9999998 magnetization 
 augmentation part      -29.4492591 magnetization 

 Broyden mixing:
  rms(total) = 0.59115E-01    rms(broyden)= 0.59114E-01
  rms(prec ) = 0.74270E-01
  weight for this iteration     100.00

 eigenvalues of (default mixing * dielectric matrix)
  average eigenvalue GAMMA=   2.0298
  2.6948  1.6973  1.6973

 Free energy of the ion-electron system (eV)
  ---------------------------------------------------
  alpha Z        PSCENC =       210.77028614
  Ewald energy   TEWEN  =    -14474.03021383
  -Hartree energ DENC   =      -993.33301155
  -exchange      EXHF   =         0.00000000
  -V(xc)+E(xc)   XCENC  =     -1156.76596226
  PAW double counting   =      4736.70472149    -2498.53939680
  entropy T*S    EENTRO =        -0.00000000
  eigenvalues    EBANDS =       302.64584806
  atomic energy  EATOM  =     13192.48085998
  Solvation  Ediel_sol  =         0.00000000
  ---------------------------------------------------
  free energy    TOTEN  =      -680.06686876 eV

  energy without entropy =     -680.06686876  energy(sigma->0) =     -680.06686876


--------------------------------------------------------------------------------------------------------




--------------------------------------- Iteration      1(   9)  ---------------------------------------


    POTLOK:  cpu time    0.4894: real time    0.4905
    SETDIJ:  cpu time    0.5071: real time    0.5079
     EDDAV:  cpu time   79.2831: real time   79.3560
       DOS:  cpu time    0.0010: real time    0.0010
    CHARGE:  cpu time    3.1616: real time    3.1659
    MIXING:  cpu time    0.0243: real time    0.0243
    --------------------------------------------
      LOOP:  cpu time   83.4665: real time   83.5456

 eigenvalue-minimisations  :  6072
 total energy-change (2. order) :-0.1988421E-01  (-0.1028221E-01)
 number of electron     511.9999998 magnetization 
 augmentation part      -29.4520750 magnetization 

 Broyden mixing:
  rms(total) = 0.29624E-01    rms(broyden)= 0.29624E-01
  rms(prec ) = 0.34257E-01
  weight for this iteration     100.00

 eigenvalues of (default mixing * dielectric matrix)
  average eigenvalue GAMMA=   1.8073
  2.5951  1.8650  1.8650  0.9043

 Free energy of the ion-electron system (eV)
  ---------------------------------------------------
  alpha Z        PSCENC =       210.77028614
  Ewald energy   TEWEN  =    -14474.03021383
  -Hartree energ DENC   =     -1000.46914780
  -exchange      EXHF   =         0.00000000
  -V(xc)+E(xc)   XCENC  =     -1155.56784732
  PAW double counting   =      4742.32300719    -2504.32073586
  entropy T*S    EENTRO =        -0.00000000
  eigenvalues    EBANDS =       308.72703852
  atomic energy  EATOM  =     13192.48085998
  Solvation  Ediel_sol  =         0.00000000
  ---------------------------------------------------
  free energy    TOTEN  =      -680.08675298 eV

  energy without entropy =     -680.08675298  energy(sigma->0) =     -680.08675298


--------------------------------------------------------------------------------------------------------




--------------------------------------- Iteration      1(  10)  ---------------------------------------


    POTLOK:  cpu time    0.4909: real time    0.4923
    SETDIJ:  cpu time    0.5083: real time    0.5086
     EDDAV:  cpu time   78.9810: real time   79.0442
       DOS:  cpu time    0.0010: real time    0.0010
    CHARGE:  cpu time    3.1451: real time    3.1479
    MIXING:  cpu time    0.0313: real time    0.0313
    --------------------------------------------
      LOOP:  cpu time   83.1576: real time   83.2252

 eigenvalue-minimisations  :  6032
 total energy-change (2. order) :-0.2490442E-02  (-0.1015192E-02)
 number of electron     511.9999998 magnetization 
 augmentation part      -29.4628048 magnetization 

 Broyden mixing:
  rms(total) = 0.10943E-01    rms(broyden)= 0.10943E-01
  rms(prec ) = 0.13177E-01
  weight for this iteration     100.00

 eigenvalues of (default mixing * dielectric matrix)
  average eigenvalue GAMMA=   1.8755
  2.7207  2.7207  1.5163  1.5163  0.9036

 Free energy of the ion-electron system (eV)
  ---------------------------------------------------
  alpha Z        PSCENC =       210.77028614
  Ewald energy   TEWEN  =    -14474.03021383
  -Hartree energ DENC   =      -999.07634150
  -exchange      EXHF   =         0.00000000
  -V(xc)+E(xc)   XCENC  =     -1155.77028806
  PAW double counting   =      4734.38478396    -2496.18165508
  entropy T*S    EENTRO =        -0.00000000
  eigenvalues    EBANDS =       307.33332495
  atomic energy  EATOM  =     13192.48085998
  Solvation  Ediel_sol  =         0.00000000
  ---------------------------------------------------
  free energy    TOTEN  =      -680.08924342 eV

  energy without entropy =     -680.08924342  energy(sigma->0) =     -680.08924342


--------------------------------------------------------------------------------------------------------




--------------------------------------- Iteration      1(  11)  ---------------------------------------


    POTLOK:  cpu time    0.4922: real time    0.4928
    SETDIJ:  cpu time    0.5002: real time    0.5042
     EDDAV:  cpu time   76.4722: real time   76.5286
       DOS:  cpu time    0.0012: real time    0.0012
    CHARGE:  cpu time    3.1627: real time    3.1651
    MIXING:  cpu time    0.0217: real time    0.0217
    --------------------------------------------
      LOOP:  cpu time   80.6502: real time   80.7136

 eigenvalue-minimisations  :  5792
 total energy-change (2. order) :-0.1402218E-02  (-0.2362982E-03)
 number of electron     511.9999998 magnetization 
 augmentation part      -29.4654793 magnetization 

 Broyden mixing:
  rms(total) = 0.41177E-02    rms(broyden)= 0.41177E-02
  rms(prec ) = 0.58119E-02
  weight for this iteration     100.00

 eigenvalues of (default mixing * dielectric matrix)
  average eigenvalue GAMMA=   1.7840
  2.8418  2.0763  2.0763  1.6410  1.2143  0.8542

 Free energy of the ion-electron system (eV)
  ---------------------------------------------------
  alpha Z        PSCENC =       210.77028614
  Ewald energy   TEWEN  =    -14474.03021383
  -Hartree energ DENC   =      -998.94265777
  -exchange      EXHF   =         0.00000000
  -V(xc)+E(xc)   XCENC  =     -1155.78729720
  PAW double counting   =      4730.11733836    -2491.81533143
  entropy T*S    EENTRO =        -0.00000000
  eigenvalues    EBANDS =       307.11637012
  atomic energy  EATOM  =     13192.48085998
  Solvation  Ediel_sol  =         0.00000000
  ---------------------------------------------------
  free energy    TOTEN  =      -680.09064564 eV

  energy without entropy =     -680.09064564  energy(sigma->0) =     -680.09064564


--------------------------------------------------------------------------------------------------------




--------------------------------------- Iteration      1(  12)  ---------------------------------------


    POTLOK:  cpu time    0.4882: real time    0.4913
    SETDIJ:  cpu time    0.5076: real time    0.5078
     EDDAV:  cpu time   79.8052: real time   79.8625
       DOS:  cpu time    0.0010: real time    0.0010
    CHARGE:  cpu time    3.1525: real time    3.1548
    MIXING:  cpu time    0.0329: real time    0.0329
    --------------------------------------------
      LOOP:  cpu time   83.9874: real time   84.0502

 eigenvalue-minimisations  :  6128
 total energy-change (2. order) :-0.2876372E-04  (-0.4682511E-04)
 number of electron     511.9999998 magnetization 
 augmentation part      -29.4634143 magnetization 

 Broyden mixing:
  rms(total) = 0.17158E-02    rms(broyden)= 0.17158E-02
  rms(prec ) = 0.20595E-02
  weight for this iteration     100.00

 eigenvalues of (default mixing * dielectric matrix)
  average eigenvalue GAMMA=   1.8223
  3.1433  2.6703  1.7931  1.7931  0.8958  1.2300  1.2300

 Free energy of the ion-electron system (eV)
  ---------------------------------------------------
  alpha Z        PSCENC =       210.77028614
  Ewald energy   TEWEN  =    -14474.03021383
  -Hartree energ DENC   =      -999.59208727
  -exchange      EXHF   =         0.00000000
  -V(xc)+E(xc)   XCENC  =     -1155.71550552
  PAW double counting   =      4731.58616663    -2493.33340398
  entropy T*S    EENTRO =        -0.00000000
  eigenvalues    EBANDS =       307.74322344
  atomic energy  EATOM  =     13192.48085998
  Solvation  Ediel_sol  =         0.00000000
  ---------------------------------------------------
  free energy    TOTEN  =      -680.09067440 eV

  energy without entropy =     -680.09067440  energy(sigma->0) =     -680.09067440


--------------------------------------------------------------------------------------------------------




--------------------------------------- Iteration      1(  13)  ---------------------------------------


    POTLOK:  cpu time    0.4885: real time    0.4922
    SETDIJ:  cpu time    0.5074: real time    0.5076
     EDDAV:  cpu time   76.7101: real time   76.7600
       DOS:  cpu time    0.0012: real time    0.0012
    CHARGE:  cpu time    3.1836: real time    3.1861
    MIXING:  cpu time    0.0371: real time    0.0371
    --------------------------------------------
      LOOP:  cpu time   80.9278: real time   80.9842

 eigenvalue-minimisations  :  5816
 total energy-change (2. order) :-0.3057293E-04  (-0.1194417E-04)
 number of electron     511.9999998 magnetization 
 augmentation part      -29.4632112 magnetization 

 Broyden mixing:
  rms(total) = 0.50604E-03    rms(broyden)= 0.50601E-03
  rms(prec ) = 0.68562E-03
  weight for this iteration     100.00

 eigenvalues of (default mixing * dielectric matrix)
  average eigenvalue GAMMA=   1.7937
  3.1299  2.5299  2.0033  2.0033  1.3824  1.3824  0.9593  0.9593

 Free energy of the ion-electron system (eV)
  ---------------------------------------------------
  alpha Z        PSCENC =       210.77028614
  Ewald energy   TEWEN  =    -14474.03021383
  -Hartree energ DENC   =      -999.61053429
  -exchange      EXHF   =         0.00000000
  -V(xc)+E(xc)   XCENC  =     -1155.72304754
  PAW double counting   =      4731.12591480    -2492.86474798
  entropy T*S    EENTRO =        -0.00000000
  eigenvalues    EBANDS =       307.76077773
  atomic energy  EATOM  =     13192.48085998
  Solvation  Ediel_sol  =         0.00000000
  ---------------------------------------------------
  free energy    TOTEN  =      -680.09070497 eV

  energy without entropy =     -680.09070497  energy(sigma->0) =     -680.09070497


--------------------------------------------------------------------------------------------------------




--------------------------------------- Iteration      1(  14)  ---------------------------------------


    POTLOK:  cpu time    0.4907: real time    0.4934
    SETDIJ:  cpu time    0.5051: real time    0.5051
     EDDAV:  cpu time   80.5489: real time   80.6011
       DOS:  cpu time    0.0011: real time    0.0011
    CHARGE:  cpu time    3.1866: real time    3.1897
    MIXING:  cpu time    0.0216: real time    0.0216
    --------------------------------------------
      LOOP:  cpu time   84.7538: real time   84.8119

 eigenvalue-minimisations  :  6216
 total energy-change (2. order) :-0.1347504E-05  (-0.8842017E-06)
 number of electron     511.9999998 magnetization 
 augmentation part      -29.4631887 magnetization 

 Broyden mixing:
  rms(total) = 0.20417E-03    rms(broyden)= 0.20412E-03
  rms(prec ) = 0.27983E-03
  weight for this iteration     100.00

 eigenvalues of (default mixing * dielectric matrix)
  average eigenvalue GAMMA=   1.7728
  3.2347  2.6430  2.1432  1.6756  1.6756  1.3756  0.9237  1.2053  1.0781

 Free energy of the ion-electron system (eV)
  ---------------------------------------------------
  alpha Z        PSCENC =       210.77028614
  Ewald energy   TEWEN  =    -14474.03021383
  -Hartree energ DENC   =      -999.63538402
  -exchange      EXHF   =         0.00000000
  -V(xc)+E(xc)   XCENC  =     -1155.71901044
  PAW double counting   =      4731.19653555    -2492.93617691
  entropy T*S    EENTRO =        -0.00000000
  eigenvalues    EBANDS =       307.78239720
  atomic energy  EATOM  =     13192.48085998
  Solvation  Ediel_sol  =         0.00000000
  ---------------------------------------------------
  free energy    TOTEN  =      -680.09070632 eV

  energy without entropy =     -680.09070632  energy(sigma->0) =     -680.09070632


--------------------------------------------------------------------------------------------------------




--------------------------------------- Iteration      1(  15)  ---------------------------------------


    POTLOK:  cpu time    0.4914: real time    0.4928
    SETDIJ:  cpu time    0.5068: real time    0.5081
     EDDAV:  cpu time   78.7033: real time   78.7886
       DOS:  cpu time    0.0010: real time    0.0010
    CHARGE:  cpu time    3.1867: real time    3.1894
    MIXING:  cpu time    0.0283: real time    0.0283
    --------------------------------------------
      LOOP:  cpu time   82.9175: real time   83.0081

 eigenvalue-minimisations  :  6032
 total energy-change (2. order) :-0.3787425E-05  (-0.2737126E-06)
 number of electron     511.9999998 magnetization 
 augmentation part      -29.4630519 magnetization 

 Broyden mixing:
  rms(total) = 0.63820E-04    rms(broyden)= 0.63653E-04
  rms(prec ) = 0.84673E-04
  weight for this iteration     100.00

 eigenvalues of (default mixing * dielectric matrix)
  average eigenvalue GAMMA=   1.7049
  3.2407  2.5887  2.1633  1.6813  1.6813  1.4088  1.4088  1.0255  0.9348  0.9161

 Free energy of the ion-electron system (eV)
  ---------------------------------------------------
  alpha Z        PSCENC =       210.77028614
  Ewald energy   TEWEN  =    -14474.03021383
  -Hartree energ DENC   =      -999.66076264
  -exchange      EXHF   =         0.00000000
  -V(xc)+E(xc)   XCENC  =     -1155.71772615
  PAW double counting   =      4731.26362728    -2493.00554255
  entropy T*S    EENTRO =        -0.00000000
  eigenvalues    EBANDS =       307.80876165
  atomic energy  EATOM  =     13192.48085998
  Solvation  Ediel_sol  =         0.00000000
  ---------------------------------------------------
  free energy    TOTEN  =      -680.09071011 eV

  energy without entropy =     -680.09071011  energy(sigma->0) =     -680.09071011


--------------------------------------------------------------------------------------------------------




--------------------------------------- Iteration      1(  16)  ---------------------------------------


    POTLOK:  cpu time    0.4910: real time    0.4936
    SETDIJ:  cpu time    0.5031: real time    0.5044
     EDDAV:  cpu time   79.5941: real time   79.6627
       DOS:  cpu time    0.0011: real time    0.0011
    CHARGE:  cpu time    3.1100: real time    3.1128
    MIXING:  cpu time    0.0325: real time    0.0325
    --------------------------------------------
      LOOP:  cpu time   83.7319: real time   83.8071

 eigenvalue-minimisations  :  6104
 total energy-change (2. order) : 0.3066580E-06  (-0.2065232E-07)
 number of electron     511.9999998 magnetization 
 augmentation part      -29.4630464 magnetization 

 Broyden mixing:
  rms(total) = 0.35239E-04    rms(broyden)= 0.34937E-04
  rms(prec ) = 0.46986E-04
  weight for this iteration     100.00

 eigenvalues of (default mixing * dielectric matrix)
  average eigenvalue GAMMA=   1.7053
  3.2754  2.6155  2.1078  2.1078  1.4860  1.4860  1.3757  1.3757  0.9152  1.0066
  1.0066

 Free energy of the ion-electron system (eV)
  ---------------------------------------------------
  alpha Z        PSCENC =       210.77028614
  Ewald energy   TEWEN  =    -14474.03021383
  -Hartree energ DENC   =      -999.66067264
  -exchange      EXHF   =         0.00000000
  -V(xc)+E(xc)   XCENC  =     -1155.71761109
  PAW double counting   =      4731.26068775    -2493.00235527
  entropy T*S    EENTRO =        -0.00000000
  eigenvalues    EBANDS =       307.80830915
  atomic energy  EATOM  =     13192.48085998
  Solvation  Ediel_sol  =         0.00000000
  ---------------------------------------------------
  free energy    TOTEN  =      -680.09070980 eV

  energy without entropy =     -680.09070980  energy(sigma->0) =     -680.09070980


--------------------------------------------------------------------------------------------------------




--------------------------------------- Iteration      1(  17)  ---------------------------------------


    POTLOK:  cpu time    0.4898: real time    0.4920
    SETDIJ:  cpu time    0.5086: real time    0.5086
     EDDAV:  cpu time   68.5628: real time   68.6106
       DOS:  cpu time    0.0011: real time    0.0011
    CHARGE:  cpu time    3.1034: real time    3.1045
    MIXING:  cpu time    0.0229: real time    0.0229
    --------------------------------------------
      LOOP:  cpu time   72.6886: real time   72.7398

 eigenvalue-minimisations  :  4992
 total energy-change (2. order) : 0.2806955E-06  (-0.4087362E-08)
 number of electron     511.9999998 magnetization 
 augmentation part      -29.4630551 magnetization 

 Broyden mixing:
  rms(total) = 0.17337E-04    rms(broyden)= 0.16714E-04
  rms(prec ) = 0.21407E-04
  weight for this iteration     100.00

 eigenvalues of (default mixing * dielectric matrix)
  average eigenvalue GAMMA=   1.6837
  3.2961  2.6463  2.2125  1.7580  1.7580  1.5957  1.5957  0.9298  0.9298  1.2158
  1.1331  1.1331

 Free energy of the ion-electron system (eV)
  ---------------------------------------------------
  alpha Z        PSCENC =       210.77028614
  Ewald energy   TEWEN  =    -14474.03021383
  -Hartree energ DENC   =      -999.65893475
  -exchange      EXHF   =         0.00000000
  -V(xc)+E(xc)   XCENC  =     -1155.71770300
  PAW double counting   =      4731.25858426    -2492.99999911
  entropy T*S    EENTRO =        -0.00000000
  eigenvalues    EBANDS =       307.80641078
  atomic energy  EATOM  =     13192.48085998
  Solvation  Ediel_sol  =         0.00000000
  ---------------------------------------------------
  free energy    TOTEN  =      -680.09070952 eV

  energy without entropy =     -680.09070952  energy(sigma->0) =     -680.09070952


--------------------------------------------------------------------------------------------------------




--------------------------------------- Iteration      1(  18)  ---------------------------------------


    POTLOK:  cpu time    0.4907: real time    0.4943
    SETDIJ:  cpu time    0.5040: real time    0.5041
     EDDAV:  cpu time   51.9623: real time   51.9963
       DOS:  cpu time    0.0013: real time    0.0013
    CHARGE:  cpu time    3.0852: real time    3.0884
    MIXING:  cpu time    0.0351: real time    0.0352
    --------------------------------------------
      LOOP:  cpu time   56.0786: real time   56.1195

 eigenvalue-minimisations  :  3328
 total energy-change (2. order) :-0.2100169E-06  (-0.1135726E-08)
 number of electron     511.9999998 magnetization 
 augmentation part      -29.4630492 magnetization 

 Broyden mixing:
  rms(total) = 0.75161E-05    rms(broyden)= 0.59387E-05
  rms(prec ) = 0.76387E-05
  weight for this iteration     100.00
  WARNING: grid for Broyden might be to small

 eigenvalues of (default mixing * dielectric matrix)
  average eigenvalue GAMMA=   1.7147
  3.3034  2.7146  2.3627  2.3627  1.8011  1.8011  1.2550  1.2550  0.9243  0.9920
  0.9920  1.2632  1.2632

 Free energy of the ion-electron system (eV)
  ---------------------------------------------------
  alpha Z        PSCENC =       210.77028614
  Ewald energy   TEWEN  =    -14474.03021383
  -Hartree energ DENC   =      -999.66035150
  -exchange      EXHF   =         0.00000000
  -V(xc)+E(xc)   XCENC  =     -1155.71757471
  PAW double counting   =      4731.26462012    -2493.00616663
  entropy T*S    EENTRO =        -0.00000000
  eigenvalues    EBANDS =       307.80783069
  atomic energy  EATOM  =     13192.48085998
  Solvation  Ediel_sol  =         0.00000000
  ---------------------------------------------------
  free energy    TOTEN  =      -680.09070973 eV

  energy without entropy =     -680.09070973  energy(sigma->0) =     -680.09070973


--------------------------------------------------------------------------------------------------------




--------------------------------------- Iteration      1(  19)  ---------------------------------------


    POTLOK:  cpu time    0.4897: real time    0.4925
    SETDIJ:  cpu time    0.5054: real time    0.5060
     EDDAV:  cpu time   51.2095: real time   51.2558
       DOS:  cpu time    0.0011: real time    0.0011
    CHARGE:  cpu time    3.0955: real time    3.0968
    MIXING:  cpu time    0.0248: real time    0.0248
    --------------------------------------------
      LOOP:  cpu time   55.3260: real time   55.3772

 eigenvalue-minimisations  :  3256
 total energy-change (2. order) : 0.4264439E-07  (-0.3112854E-09)
 number of electron     511.9999998 magnetization 
 augmentation part      -29.4630501 magnetization 

 Broyden mixing:
  rms(total) = 0.56053E-05    rms(broyden)= 0.31932E-05
  rms(prec ) = 0.46562E-05
  weight for this iteration     100.00
  WARNING: grid for Broyden might be to small

 eigenvalues of (default mixing * dielectric matrix)
  average eigenvalue GAMMA=   1.6632
  3.3131  2.7126  2.3187  2.3187  1.7681  1.7681  1.3288  1.3288  1.2989  1.2989
  1.0298  1.0298  0.8856  0.8856

 Free energy of the ion-electron system (eV)
  ---------------------------------------------------
  alpha Z        PSCENC =       210.77028614
  Ewald energy   TEWEN  =    -14474.03021383
  -Hartree energ DENC   =      -999.66012550
  -exchange      EXHF   =         0.00000000
  -V(xc)+E(xc)   XCENC  =     -1155.71758111
  PAW double counting   =      4731.26454933    -2493.00605850
  entropy T*S    EENTRO =        -0.00000000
  eigenvalues    EBANDS =       307.80757381
  atomic energy  EATOM  =     13192.48085998
  Solvation  Ediel_sol  =         0.00000000
  ---------------------------------------------------
  free energy    TOTEN  =      -680.09070969 eV

  energy without entropy =     -680.09070969  energy(sigma->0) =     -680.09070969


--------------------------------------------------------------------------------------------------------




--------------------------------------- Iteration      1(  20)  ---------------------------------------


    POTLOK:  cpu time    0.4891: real time    0.4925
    SETDIJ:  cpu time    0.5066: real time    0.5066
     EDDAV:  cpu time   50.6559: real time   50.6973
       DOS:  cpu time    0.0010: real time    0.0010
    --------------------------------------------
      LOOP:  cpu time   51.6527: real time   51.6974

 eigenvalue-minimisations  :  3200
 total energy-change (2. order) :-0.8123607E-08  (-0.4750477E-10)
 number of electron     511.9999998 magnetization 
 augmentation part      -29.4630501 magnetization 

 Free energy of the ion-electron system (eV)
  ---------------------------------------------------
  alpha Z        PSCENC =       210.77028614
  Ewald energy   TEWEN  =    -14474.03021383
  -Hartree energ DENC   =      -999.66019478
  -exchange      EXHF   =         0.00000000
  -V(xc)+E(xc)   XCENC  =     -1155.71757108
  PAW double counting   =      4731.26473621    -2493.00625096
  entropy T*S    EENTRO =        -0.00000000
  eigenvalues    EBANDS =       307.80763862
  atomic energy  EATOM  =     13192.48085998
  Solvation  Ediel_sol  =         0.00000000
  ---------------------------------------------------
  free energy    TOTEN  =      -680.09070970 eV

  energy without entropy =     -680.09070970  energy(sigma->0) =     -680.09070970


--------------------------------------------------------------------------------------------------------




 average (electrostatic) potential at core
  the test charge radii are     0.9892
  (the norm of the test charge is              1.0000)
       1 -83.4290       2 -83.4354       3 -83.4557       4 -83.4976       5 -83.4804
       6 -83.4449       7 -83.4558       8 -83.4292       9 -83.3780      10 -83.4777
      11 -83.5152      12 -83.6551      13 -83.5877      14 -83.5622      15 -83.4973
      16 -83.5494      17 -83.4405      18 -83.4311      19 -83.6224      20 -83.4407
      21 -83.4161      22 -83.5298      23 -83.5756      24 -83.4276      25 -83.5158
      26 -83.5142      27 -83.4573      28 -83.5099      29 -83.5762      30 -83.5319
      31 -83.4970      32 -83.5715      33 -83.5059      34 -83.5831      35 -83.5846
      36 -83.5069      37 -83.5001      38 -83.4629      39 -83.5685      40 -83.4832
      41 -83.6319      42 -83.5737      43 -83.5959      44 -83.7168      45 -83.5041
      46 -83.6681      47 -83.5675      48 -83.5918      49 -83.4935      50 -83.4557
      51 -83.4096      52 -83.5073      53 -83.3894      54 -83.4280      55 -83.5073
      56 -83.4716      57 -83.4531      58 -83.5043      59 -83.6009      60 -83.5948
      61 -83.4555      62 -83.5878      63 -83.5402      64 -83.5514      65 -83.3809
      66 -83.5287      67 -83.4908      68 -83.4477      69 -83.4710      70 -83.4512
      71 -83.4670      72 -83.5096      73 -83.4193      74 -83.4579      75 -83.5735
      76 -83.5680      77 -83.5436      78 -83.4434      79 -83.5190      80 -83.6547
      81 -83.4306      82 -83.5028      83 -83.4725      84 -83.4776      85 -83.4964
      86 -83.5675      87 -83.4895      88 -83.3962      89 -83.5429      90 -83.5197
      91 -83.6275      92 -83.6333      93 -83.4729      94 -83.4459      95 -83.5653
      96 -83.5795      97 -83.6618      98 -83.5385      99 -83.5322     100 -83.4423
     101 -83.4696     102 -83.4802     103 -83.5284     104 -83.5546     105 -83.6110
     106 -83.6589     107 -83.7660     108 -83.6146     109 -83.5327     110 -83.5637
     111 -83.5796     112 -83.5584     113 -83.3047     114 -83.3402     115 -83.4611
     116 -83.5715     117 -83.4600     118 -83.4284     119 -83.5641     120 -83.4175
     121 -83.4335     122 -83.5316     123 -83.5386     124 -83.5118     125 -83.4107
     126 -83.5996     127 -83.5148     128 -83.4839
 
 
 
 E-fermi :   5.8801     XC(G=0):  -9.3316     alpha+bet :-11.7321


 k-point     1 :       0.0000    0.0000    0.0000
  band No.  band energies     occupation 
      1      -6.2819      2.00000
      2      -5.6268      2.00000
      3      -5.5936      2.00000
      4      -5.5742      2.00000
      5      -5.5140      2.00000
      6      -5.4982      2.00000
      7      -5.4846      2.00000
      8      -5.4721      2.00000
      9      -5.4017      2.00000
     10      -5.3271      2.00000
     11      -5.2513      2.00000
     12      -5.2208      2.00000
     13      -5.1338      2.00000
     14      -5.1280      2.00000
     15      -5.1197      2.00000
     16      -4.4747      2.00000
     17      -4.4387      2.00000
     18      -4.3983      2.00000
     19      -4.3917      2.00000
     20      -4.3512      2.00000
     21      -4.3213      2.00000
     22      -4.3019      2.00000
     23      -4.2774      2.00000
     24      -4.2426      2.00000
     25      -4.2220      2.00000
     26      -4.1956      2.00000
     27      -4.1301      2.00000
     28      -4.0632      2.00000
     29      -4.0190      2.00000
     30      -4.0008      2.00000
     31      -3.9627      2.00000
     32      -3.8568      2.00000
     33      -3.8414      2.00000
     34      -3.7807      2.00000
     35      -3.7349      2.00000
     36      -3.7207      2.00000
     37      -3.7150      2.00000
     38      -3.6946      2.00000
     39      -3.6722      2.00000
     40      -3.6332      2.00000
     41      -3.5944      2.00000
     42      -3.5666      2.00000
     43      -3.5655      2.00000
     44      -3.5513      2.00000
     45      -3.5354      2.00000
     46      -3.4868      2.00000
     47      -3.4785      2.00000
     48      -3.4449      2.00000
     49      -3.4274      2.00000
     50      -3.4084      2.00000
     51      -3.3980      2.00000
     52      -3.3708      2.00000
     53      -3.3612      2.00000
     54      -3.2998      2.00000
     55      -3.2147      2.00000
     56      -2.3547      2.00000
     57      -2.2843      2.00000
     58      -2.2725      2.00000
     59      -2.2427      2.00000
     60      -2.1882      2.00000
     61      -2.1617      2.00000
     62      -2.1424      2.00000
     63      -2.1078      2.00000
     64      -2.0768      2.00000
     65      -2.0483      2.00000
     66      -2.0408      2.00000
     67      -1.9894      2.00000
     68      -1.9836      2.00000
     69      -1.9369      2.00000
     70      -1.8969      2.00000
     71      -1.8901      2.00000
     72      -1.8221      2.00000
     73      -1.7610      2.00000
     74      -1.3816      2.00000
     75      -1.3419      2.00000
     76      -1.3001      2.00000
     77      -1.2509      2.00000
     78      -1.0023      2.00000
     79      -0.9620      2.00000
     80      -0.9339      2.00000
     81      -0.9079      2.00000
     82      -0.8890      2.00000
     83      -0.8555      2.00000
     84      -0.8308      2.00000
     85      -0.8257      2.00000
     86      -0.7786      2.00000
     87      -0.7707      2.00000
     88      -0.7436      2.00000
     89      -0.7000      2.00000
     90      -0.6847      2.00000
     91      -0.6588      2.00000
     92      -0.6520      2.00000
     93      -0.6305      2.00000
     94      -0.6072      2.00000
     95      -0.5863      2.00000
     96      -0.5692      2.00000
     97      -0.5633      2.00000
     98      -0.5565      2.00000
     99      -0.5133      2.00000
    100      -0.4599      2.00000
    101      -0.4392      2.00000
    102       0.0290      2.00000
    103       0.0562      2.00000
[...]
   -.187E+01 0.828E+01 -.237E+00   0.119E+01 -.757E+01 -.337E-01   0.636E+00 -.836E+00 0.288E+00   -.383E-05 0.497E-06 -.644E-08
   -.209E+01 -.210E+01 0.579E+01   0.244E+01 0.172E+01 -.531E+01   0.222E+00 0.513E+00 -.663E+00   0.317E-05 -.241E-05 0.370E-05
   -.660E+01 -.738E+00 0.424E+01   0.628E+01 0.761E+00 -.368E+01   0.251E+01 0.165E+00 -.157E+00   0.486E-05 -.880E-06 0.412E-05
   0.718E+01 0.147E+01 0.253E+01   -.715E+01 -.113E+01 -.269E+01   -.958E-01 -.115E+01 -.372E+00   0.189E-06 -.630E-05 0.450E-06
   0.286E+01 -.861E+01 -.105E+02   -.277E+01 0.816E+01 0.903E+01   -.666E+00 0.148E+01 0.341E+01   -.519E-06 -.315E-05 0.671E-05
   0.722E+01 -.149E+01 -.212E+01   -.665E+01 0.890E+00 0.129E+01   -.101E+01 0.110E+01 0.166E+01   -.120E-05 -.469E-05 0.451E-05
   -.635E+01 -.372E+01 -.105E+01   0.581E+01 0.315E+01 0.811E+00   0.507E+00 0.111E+01 -.483E+00   0.737E-06 -.696E-05 -.148E-05
   -.311E+00 0.304E+01 0.113E+02   -.333E+00 -.178E+01 -.102E+02   0.120E+01 -.199E+01 -.267E+01   0.119E-05 -.278E-05 0.202E-05
   0.139E+02 -.346E+01 0.684E+01   -.131E+02 0.308E+01 -.604E+01   -.348E+01 0.975E+00 -.177E+01   -.605E-06 -.970E-06 0.704E-05
   -.729E+01 -.421E+00 0.865E+01   0.668E+01 0.509E+00 -.790E+01   0.148E+01 0.576E+00 -.327E+01   -.682E-05 -.857E-06 -.418E-05
   0.952E+01 -.243E+01 0.128E+01   -.813E+01 0.226E+01 -.114E+01   -.277E+01 0.149E+00 -.145E+01   -.417E-05 0.849E-07 -.183E-05
   -.525E+01 -.850E+01 0.429E+00   0.474E+01 0.730E+01 0.147E+00   0.284E+00 0.375E+01 -.100E+01   -.304E-05 0.263E-05 0.222E-05
   -.431E+01 0.292E+01 0.759E+01   0.415E+01 -.260E+01 -.671E+01   0.489E-01 -.717E+00 -.278E+01   -.843E-05 0.322E-05 -.719E-06
   -.144E+02 0.413E+01 -.711E+00   0.135E+02 -.381E+01 0.547E+00   0.266E+01 -.682E+00 -.359E+00   -.113E-05 0.813E-06 -.310E-06
   -.161E+02 0.279E+01 0.309E+01   0.151E+02 -.241E+01 -.285E+01   0.354E+01 -.680E+00 -.589E+00   -.168E-05 -.530E-06 0.169E-05
   0.135E+01 0.297E+01 -.519E+01   -.873E+00 -.246E+01 0.483E+01   -.892E+00 -.125E+01 0.203E+01   -.770E-05 -.408E-05 -.143E-06
   -.296E-01 -.324E+01 -.641E+01   0.164E+00 0.241E+01 0.543E+01   -.417E+00 0.909E+00 0.124E+01   -.772E-05 0.165E-05 0.180E-05
   0.915E+01 0.931E+00 -.610E+00   -.861E+01 -.701E+00 0.244E+00   -.163E+01 -.640E+00 0.175E+01   0.148E-05 -.298E-05 0.658E-05
   0.487E+01 -.582E+01 0.107E+02   -.481E+01 0.528E+01 -.996E+01   -.134E+01 0.292E+01 -.103E+01   0.237E-05 -.812E-05 0.482E-05
   -.194E+01 -.430E+01 -.273E+01   0.105E+01 0.433E+01 0.204E+01   0.354E+00 -.120E+01 0.110E+01   0.175E-05 -.641E-05 0.236E-05
   0.162E+01 0.186E+01 0.295E+01   -.147E+01 -.161E+01 -.220E+01   -.468E+00 -.184E+01 -.259E+01   0.202E-05 -.314E-05 0.486E-05
   -.233E+01 -.670E+01 0.971E+01   0.255E+01 0.553E+01 -.933E+01   0.121E+01 0.193E+01 -.684E+00   -.294E-06 -.683E-06 0.400E-06
   -.272E+01 0.237E+01 -.240E+01   0.280E+01 -.184E+01 0.257E+01   0.115E+01 -.152E+01 -.581E+00   0.379E-05 -.126E-05 -.249E-05
   -.649E-02 -.809E+01 0.464E+01   0.278E+00 0.748E+01 -.434E+01   -.369E+00 0.270E+01 -.136E+01   0.152E-05 0.248E-05 0.132E-05
   -.491E+01 -.656E+01 0.109E+01   0.496E+01 0.598E+01 -.112E+01   0.483E+00 0.321E+00 0.394E+00   -.393E-06 -.106E-05 0.230E-05
   -.975E+01 0.257E+01 -.766E+01   0.811E+01 -.225E+01 0.665E+01   0.377E+01 -.508E+00 0.234E+01   0.285E-05 0.436E-05 -.286E-05
   -.172E+00 -.464E+01 -.728E+00   0.691E+00 0.450E+01 0.234E+00   0.204E+00 0.879E+00 0.105E+01   -.555E-07 0.361E-05 -.385E-05
   -.409E+01 -.345E+01 0.104E+01   0.340E+01 0.331E+01 -.554E+00   0.102E+01 0.128E+01 -.403E+00   -.379E-05 0.454E-05 -.407E-05
   0.127E+02 0.130E+02 -.235E+01   -.116E+02 -.120E+02 0.157E+01   -.349E+01 -.288E+01 0.139E+01   -.399E-05 0.434E-05 -.326E-05
   -.167E+01 0.262E+00 -.740E+01   0.192E+01 0.115E+00 0.702E+01   0.866E+00 0.378E+00 -.815E-01   0.242E-05 0.742E-06 -.199E-05
   -.588E+01 0.402E+01 -.185E+01   0.536E+01 -.355E+01 0.115E+01   0.187E+01 0.575E+00 0.134E+01   0.207E-05 -.184E-07 -.204E-05
   0.315E+01 -.355E+01 0.923E+00   -.267E+01 0.310E+01 -.116E+01   -.139E+00 0.946E+00 0.547E+00   0.154E-06 0.273E-05 -.236E-05
   -.740E+01 0.271E+01 -.635E+00   0.681E+01 -.279E+01 0.115E+01   0.349E+01 -.622E+00 -.321E+00   0.306E-05 0.646E-05 -.531E-06
   -.569E+01 -.138E+02 -.258E+01   0.523E+01 0.129E+02 0.197E+01   0.256E+01 0.266E+01 0.213E+01   0.368E-05 -.134E-05 0.200E-05
   -.533E+01 -.556E+01 0.139E+02   0.469E+01 0.469E+01 -.125E+02   0.684E+00 0.210E+01 -.322E+01   0.757E-05 -.226E-05 -.176E-05
   -.463E+01 0.224E+01 -.613E+01   0.389E+01 -.129E+01 0.578E+01   0.148E+01 -.241E+01 0.248E+00   0.647E-05 -.105E-05 0.678E-06
   0.109E+02 0.441E+01 0.465E+01   -.985E+01 -.404E+01 -.466E+01   -.247E+01 -.326E+00 -.269E+00   0.982E-06 0.858E-06 0.312E-05
   0.545E+01 -.347E+01 0.468E+01   -.491E+01 0.275E+01 -.467E+01   -.147E+01 0.631E+00 -.955E+00   0.429E-05 0.101E-05 0.351E-05
   -.367E+01 -.315E+01 -.601E+01   0.347E+01 0.329E+01 0.596E+01   0.907E+00 0.123E+01 0.101E+01   0.420E-05 -.874E-07 -.186E-05
   0.131E+02 0.680E+01 -.154E+01   -.122E+02 -.602E+01 0.115E+01   -.333E+01 -.165E+01 0.115E+01   0.171E-05 -.141E-05 -.248E-05
   0.569E+01 0.103E+02 0.166E+01   -.640E+01 -.906E+01 -.146E+01   -.506E+00 -.358E+01 -.306E+00   0.267E-05 -.111E-05 0.151E-05
   0.186E+01 -.254E+01 -.115E+02   -.144E+01 0.213E+01 0.107E+02   -.141E+01 0.477E+00 0.251E+01   -.120E-06 0.359E-05 -.499E-05
   -.474E+01 0.466E+01 -.129E+01   0.379E+01 -.462E+01 0.110E+01   0.279E+01 0.139E+00 0.310E+00   0.761E-06 0.226E-05 -.696E-05
   0.746E+01 0.176E+01 -.796E+01   -.707E+01 -.177E+01 0.753E+01   -.143E+01 -.481E-01 0.136E+01   -.212E-05 0.494E-05 -.382E-05
   -.749E+01 -.321E+01 -.695E+01   0.690E+01 0.241E+01 0.558E+01   0.158E+01 0.120E+01 0.222E+01   -.178E-05 0.626E-05 -.182E-06
   0.330E+01 0.148E+02 0.908E+00   -.291E+01 -.138E+02 -.554E+00   -.447E+00 -.291E+01 -.509E+00   0.380E-06 0.539E-06 -.489E-05
   0.124E+01 0.723E+01 0.254E+01   -.150E+01 -.698E+01 -.252E+01   0.112E+01 -.184E+00 0.166E+00   0.338E-05 -.395E-06 -.399E-05
   0.728E+01 -.284E+01 -.785E+01   -.599E+01 0.270E+01 0.733E+01   -.238E+01 0.156E+00 0.892E+00   0.979E-06 0.441E-05 0.972E-06
   -.139E+02 -.117E+01 -.151E+01   0.119E+02 0.105E+01 0.224E+01   0.306E+01 0.170E+00 -.592E+00   0.132E-05 0.363E-05 -.966E-06
   -.540E+01 0.820E+01 -.302E+01   0.481E+01 -.822E+01 0.218E+01   0.257E+01 -.136E+01 0.102E+01   0.148E-05 -.108E-05 0.242E-05
   -.462E+01 -.134E+01 -.652E+00   0.412E+01 0.105E+01 0.691E+00   0.148E+01 0.144E+01 0.320E+00   0.441E-05 -.292E-05 0.204E-05
   0.942E+01 -.108E+02 0.913E+00   -.801E+01 0.964E+01 -.911E-01   -.301E+01 0.274E+01 -.189E+01   0.293E-05 0.177E-05 -.906E-06
   -.139E+01 0.982E+00 0.751E+00   0.819E+00 -.875E+00 -.206E+00   0.148E+01 0.910E-01 0.225E+00   0.127E-05 -.662E-06 -.428E-06
 -----------------------------------------------------------------------------------------------
   -.377E+00 0.445E-01 -.465E-01   0.292E-12 0.426E-13 0.555E-13   0.377E+00 -.445E-01 0.465E-01   0.222E-05 -.113E-05 -.121E-05
 
 
 POSITION                                       TOTAL-FORCE (eV/Angst)
 -----------------------------------------------------------------------------------
     21.80242     11.01611     11.00186         0.447619     -1.041215     -0.945399
     10.89946      2.72983     13.55500        -0.180686      0.580849      1.436557
     21.80803     16.38902     16.34405         1.287438      1.408287      0.107488
     10.94981      8.21897     19.09553         0.093295      1.033382      0.205533
     13.59263     10.94006      2.70948         1.492621      0.490415      0.228112
      2.76845      2.79817      5.44334         0.056981     -0.963198      1.077127
      2.69415      5.46362      8.15322        -0.289771      1.016570      0.407218
     13.63437     18.99963     10.86544         1.266470      0.428040      0.768408
      5.45237      0.11535      5.38459         0.547838     -0.591483      0.863388
      5.54566      2.79116      8.28351        -1.603085     -0.683885     -0.792807
     16.30202     16.29562     10.99277         1.807374      1.342894     -1.268067
     16.24728     19.26693     13.66331         1.701216     -1.031781      0.392460
      8.20112     10.92411     19.06973         0.527916     -0.028442     -0.319337
     19.12404     13.72745     11.07455        -1.217834     -0.959525     -1.954283
      8.29092      5.47470     13.62600        -1.149025      0.666354      1.410037
     19.12618     19.16682     16.42904        -1.261615     -0.510808     -0.854879
     13.57859      2.72239     10.98396         0.805459     -0.352984     -1.060780
     13.60727      5.55866     13.70722         1.845836     -2.128026      0.351676
     13.54662      8.00039     16.31878         0.682479      1.998817      0.606680
      2.76198     10.79690      8.16183        -0.061874      1.449357      1.722135
      5.56180     13.74187     13.56087        -1.309568      0.008228      1.371409
      5.44770      5.47807      5.32099        -0.433993      0.355486      3.187374
      5.44621      8.31249      8.31905        -0.084484     -1.213895     -1.156560
      5.42047     10.94827     10.87162         2.392646     -0.310968      1.060650
      8.06235      2.76929      5.51655         1.282005     -0.737529      0.267056
      8.25702      5.48641      8.04433        -0.486561     -0.282055      1.544658
      8.15431      8.11186     10.95626         0.699368      0.707684      0.531455
      8.16742     11.06197     13.67503         0.652725     -1.276721     -0.327083
     10.98606     13.58860     19.12898        -1.264041      1.389390      0.672426
     10.96182      5.57230     11.10209        -1.026322     -0.955313     -2.542217
     10.92371      8.19404     13.70049         0.341098      0.770619     -0.985341
     10.92247     10.83909     16.30712         1.209810      1.441634      0.675613
      5.49660     16.25028     10.96884        -1.357955      1.290890     -0.579708
     16.31424      8.23114     13.69288         0.863475     -0.873975      0.930820
      5.49207     10.92418      5.56390        -1.662651      0.310134     -0.100548
     16.42333     13.82678     19.16464         0.031001     -1.393764     -0.460570
      8.15312      5.63188      2.78957        -1.017728     -2.451576     -0.756308
      8.22716      8.09743      5.41802        -1.048321      1.486945      0.448939
      8.15153     11.01269      8.25510         0.486995     -2.350984      0.095286
      8.13515     13.71314     10.78337         0.993789      0.125543      1.585785
     11.06262     16.45746     16.34228        -2.970861      0.033559      0.306387
     10.99501      8.33469      8.03158        -2.157138     -0.806879      0.708189
     10.88973     11.02301     10.88337         0.389527     -0.521466     -0.573705
     10.95556     13.52515     13.80022        -0.613454      0.560181     -1.561299
     13.69809      5.54961      8.27148        -0.348971     -1.344028     -1.498270
     13.64138      8.31658     11.15544        -0.226950     -1.063057     -1.794127
     13.73685     10.94267     13.60206        -0.003077      0.833969      0.390475
     13.63382     13.57416     16.26995        -0.731414      1.904264      1.226164
      8.34057     19.07293     10.90313        -1.749586      1.252367      0.822960
     19.04390     10.87750     13.70382        -0.135880     -0.547305     -0.141629
     19.03872     13.67447     16.32891         1.774380     -1.580192      1.642588
      8.23596     16.39388      8.23556         1.368185      1.055838     -0.720229
     10.87345      8.22176      2.65876         0.761898     -0.038310      0.297357
     11.03972     11.10944      5.51365        -1.454222     -1.953214     -1.801080
     10.98219     13.77438      8.22703        -0.404821     -0.219797      0.431131
     10.98504     16.35267     11.12077         0.956763      0.496460     -2.545203
     13.53074     18.96734     16.32940         0.292264      1.720524      1.201600
     13.67024     10.91432      8.15437        -0.864566      0.073722      0.230470
     13.77475     13.62883     10.90941        -0.766961      0.091825      0.293239
     13.77302     16.45453     13.74288        -1.443190     -1.056048     -1.013261
     16.59193     19.15329     19.17153        -2.414355     -0.103923     -0.422505
     16.49582     10.96219     10.85798        -2.021017     -0.381503      0.402795
     16.41535     13.64629     13.55404         0.677515      0.146535      1.242035
     16.31213     16.46462     16.52986         0.803825     -0.610061     -1.613780
      1.32793      1.34241      1.39971        -0.046752      0.368740     -0.499553
      1.47942      4.16689      4.19936        -1.648786     -0.279474     -1.469049
      1.30692      6.89995      6.90565        -0.096879     -1.800511     -1.112410
      1.40544      9.43376      9.59406        -0.844372      1.741479     -0.077362
      4.13747      1.42739      4.10706        -0.632828      0.443325     -1.468325
      3.98091      4.10118      6.95120         1.954549     -0.284903     -1.511681
      4.14405      6.74058      9.46558        -0.312868      0.153502      1.013788
      4.16784      9.72334     12.29389        -2.111679     -0.891172     -0.659506
      6.78387      1.41374      6.86996        -0.029721     -0.529742     -0.103324
      6.87029      4.13342      9.47313         0.593254      0.627266      1.731709
      6.86803      6.85717     12.32614        -1.718963     -0.687788      0.669356
      6.81702      9.63330     15.01302        -0.047397     -0.131566      0.017307
      9.47056      1.38671      9.60766         0.576524      0.128406     -0.178800
      9.47091      4.14077     12.26752         2.193459      0.188412      0.406629
      9.54508      6.93130     15.07389        -0.057836     -0.815873     -0.531998
      9.66371      9.44959     17.57506        -0.579994      1.031920      1.992444
      4.06235      4.04525      1.32465        -0.433414      0.497425      0.828406
      4.07710      6.79122      4.10359        -0.036841      0.534538     -0.721559
      4.02323      9.49478      6.86795         0.557793     -0.734987     -1.622042
      4.30089     12.35022      9.60305        -2.706103      0.600893     -0.965468
      6.74346      4.04856      4.24784         0.870251      0.663766     -2.525397
      6.88664      6.90727      6.93382        -1.375471     -0.019727     -1.307452
      6.85725      9.40538      9.68321        -0.217079      2.543275     -0.427188
      6.86346     12.37282     12.34718        -0.109307     -0.400314     -1.893357
      9.51050      4.09340      6.77742         1.770408     -0.360347     -0.523894
      9.39223      6.88687      9.52563         2.586907     -0.296979     -0.348222
      9.55499      9.65188     12.14367        -0.417613     -0.743890      1.679554
      9.50913     12.29406     15.12035        -0.282453      0.082389      0.256306
     12.34634      4.16346      9.49365        -1.086679     -0.410237      1.378911
     12.37938      6.75023     12.37994        -1.282571      2.377415     -0.245325
     12.38785      9.64005     14.93307        -0.537857     -1.168668      0.418635
     12.42374     12.35955     17.91371        -0.318927     -1.587213     -1.844175
      6.66391      6.79126      1.37432         1.423003      0.763605     -0.294923
      6.69952      9.59072      4.18017         1.228449     -0.991176     -0.408820
      6.77519     12.21383      6.97290        -0.097848      2.092851     -1.053850
      6.82827     15.12679      9.50281         0.529058     -0.252272      0.370908
      9.47610      6.92105      3.96648         2.128080     -0.191698      1.330131
      9.48635      9.62636      6.68382         0.723352      0.736271      0.560108
      9.54380     12.31054      9.51037         0.335214      1.147478      0.085904
      9.69524     15.13886     12.40705        -2.399934     -1.884755      0.612059
     12.20741      6.73443      6.92704         1.117986      0.754252     -0.458014
     12.19928      9.50578      9.55987         1.356300      1.041545      0.639455
     12.30487     12.26466     12.25126         0.342417      0.497256      0.311125
     12.10722     15.09761     14.94154         2.901661     -0.701604      0.194341
     14.92848      6.80888      9.59013         2.109094      1.721241      1.526107
     15.10713      9.56366     12.41483         0.038684      1.239293     -1.764418
     15.05418     12.39679     14.99105         0.737142     -1.459354     -0.102757
     15.04145     15.01893     17.77603        -1.401575      0.046409     -0.275386
      9.57814      9.61193      1.43205        -0.933423     -0.094210     -0.938291
      9.50253     12.21103      3.98921         0.706862      1.374359      0.955388
      9.71907     15.06510      6.76086        -2.423788     -0.858204      0.764079
      9.80529     17.89871      9.63406        -1.217374     -2.332248     -0.107074
     12.34512      9.51551      3.95596        -0.995581      0.065638      1.688531
     12.22518     12.40981      6.87796         1.844613      0.176823      0.116957
     12.43895     15.05654      9.58011        -1.034425     -0.057047      0.925614
     12.28518     17.74579     12.31072         0.992379      0.398092      0.852862
     15.07725      9.69340      6.77599        -0.054121     -1.863413     -0.155533
     15.01299     12.26815      9.50534         0.860002      0.066393      0.182081
     15.05988     14.99375     12.32278        -1.083693      0.023893      0.365965
     14.99730     17.79965     15.07318         1.042826      0.053269      0.131337
     17.74902      9.66876      9.53745         1.980656     -1.389979      0.173440
     17.71926     12.18736     12.28533         0.980075      1.149196      0.358612
     17.82606     15.00131     15.05730        -1.593156      1.583673     -1.066950
     17.76574     17.74852     17.74163         0.908474      0.198209      0.769350
 -----------------------------------------------------------------------------------
    total drift:                                0.000002     -0.000002     -0.000007


--------------------------------------------------------------------------------------------------------



  FREE ENERGIE OF THE ION-ELECTRON SYSTEM (eV)
  ---------------------------------------------------
  free  energy   TOTEN  =      -680.09070970 eV

  energy  without entropy=     -680.09070970  energy(sigma->0) =     -680.09070970
 


--------------------------------------------------------------------------------------------------------


    POTLOK:  cpu time    0.9914: real time    0.9918


--------------------------------------------------------------------------------------------------------


     LOOP+:  cpu time 1658.5280: real time 1659.9202
    4ORBIT:  cpu time    0.0000: real time    0.0000

 total amount of memory used by VASP MPI-rank0   221701. kBytes
=======================================================================

   base      :      30000. kBytes
   nonl-proj :      10690. kBytes
   fftplans  :      66746. kBytes
   grid      :      26864. kBytes
   one-center:         24. kBytes
   wavefun   :      87377. kBytes
 
  
  
 General timing and accounting informations for this job:
 ========================================================
  
                  Total CPU time used (sec):     1682.538
                            User time (sec):     1681.482
                          System time (sec):        1.055
                         Elapsed time (sec):     1684.943
  
                   Maximum memory used (kb):      337864.
                   Average memory used (kb):           0.
  
                          Minor page faults:       152638
                          Major page faults:            0
                 Voluntary context switches:         1313
