<?xml version="1.0" encoding="ISO-8859-1"?>
<modeling>
 <generator>
  <i name="program" type="string">vasp </i>
  <i name="version" type="string">5.4.4.18Apr17-6-g9f103f2a35  </i>
  <i name="subversion" type="string">(build Nov 08 2017 09:05:29) complex            parallel </i>
  <i name="platform" type="string">Intel_17.33 </i>
  <i name="date" type="string">2020 07 19 </i>
  <i name="time" type="string">00:02:02 </i>
 </generator>
 <incar>
  <i type="string" name="SYSTEM">potpaw_PBE@./ARUN.APL1ZEROSTATE</i>
  <i type="string" name="PREC">accurate</i>
  <i type="string" name="ALGO">Normal</i>
  <i type="int" name="NSIM">     4</i>
  <i type="logical" name="ADDGRID"> T  </i>
  <i type="int" name="NELM">   120</i>
  <i type="int" name="NELMIN">     4</i>
  <i name="EDIFF">      0.00000001</i>
  <i type="int" name="NSW">     0</i>
  <i type="int" name="ISYM">     2</i>
  <i name="ENMAX">    500.00000000</i>
  <i type="logical" name="LREAL"> F  </i>
  <i type="logical" name="LPLANE"> T  </i>
  <i type="int" name="ISMEAR">     0</i>
  <i name="SIGMA">      0.01000000</i>
  <i type="logical" name="LWAVE"> F  </i>
  <i type="logical" name="LCHARG"> F  </i>
  <i type="logical" name="LELF"> F  </i>
  <i type="logical" name="LAECHG"> F  </i>
  <v type="int" name="KPOINT_BSE">    -1     0     0     0</v>
  <i type="int" name="NELM">   120</i>
 </incar>
 <structure name="primitive_cell" >
  <crystal>
   <varray name="basis" >
    <v>       0.00000000      10.93733369      10.93733369 </v>
    <v>      10.93733369       0.00000000      10.93733369 </v>
    <v>      10.93733369      10.93733369       0.00000000 </v>
   </varray>
   <i name="volume">   2616.76295363 </i>
   <varray name="rec_basis" >
    <v>      -0.04571498       0.04571498       0.04571498 </v>
    <v>       0.04571498      -0.04571498       0.04571498 </v>
    <v>       0.04571498       0.04571498      -0.04571498 </v>
   </varray>
  </crystal>
  <varray name="positions" >
   <v>       0.00985375      -0.00395394      -0.00265145 </v>
   <v>       0.06464962       0.06332549       0.05808689 </v>
   <v>       0.06701057       0.06392156      -0.18819231 </v>
   <v>       0.06966057      -0.19123277       0.05712605 </v>
   <v>      -0.19439335       0.07157787       0.05692152 </v>
   <v>       0.24619241      -0.00685887       0.00339627 </v>
   <v>       0.00584016      -0.00157751       0.24306749 </v>
   <v>       0.00260132       0.24512620      -0.00235225 </v>
   <v>      -0.00654428      -0.24449407       0.24894911 </v>
   <v>       0.25956775      -0.24702234      -0.00446783 </v>
   <v>       0.00032275       0.24276732      -0.24860794 </v>
   <v>      -0.01093406       0.00780669      -0.24522848 </v>
   <v>       0.25314315      -0.00020337      -0.25861339 </v>
   <v>      -0.00374643      -0.25270900       0.00253742 </v>
   <v>      -0.25188898      -0.00220787       0.00334900 </v>
   <v>      -0.25956576       0.00580174       0.24672625 </v>
   <v>      -0.25801362       0.25144069      -0.00485119 </v>
   <v>       0.30618547       0.05854748      -0.18973118 </v>
   <v>      -0.18958853       0.07043059      -0.17393343 </v>
   <v>       0.05149098       0.31020221      -0.18148801 </v>
   <v>       0.30873304      -0.18548566      -0.19444327 </v>
   <v>       0.31714253      -0.19552332       0.06144804 </v>
   <v>       0.06661514      -0.19460669      -0.18260082 </v>
   <v>      -0.18400921      -0.17814058       0.31404267 </v>
   <v>       0.05992173      -0.19191796       0.32074363 </v>
   <v>      -0.18401538       0.30804535       0.07301985 </v>
   <v>      -0.18758417       0.31315244      -0.18991876 </v>
   <v>      -0.19302187       0.07102808       0.32220190 </v>
   <v>      -0.20634495      -0.18676796       0.07032060 </v>
   <v>       0.24340205      -0.25065780      -0.24112963 </v>
   <v>       0.25524370       0.24886869      -0.23950765 </v>
   <v>      -0.25030071       0.24429284       0.25130028 </v>
   <v>       0.26115025      -0.24608656       0.24832495 </v>
   <v>      -0.24623284       0.26300466      -0.25864282 </v>
   <v>      -0.25833223      -0.25070819       0.24934951 </v>
   <v>       0.06452368       0.29813151      -0.43173247 </v>
   <v>       0.05977505       0.06133795       0.31008220 </v>
   <v>       0.30794820      -0.44182057       0.06997058 </v>
   <v>       0.06856460      -0.44044462       0.06069324 </v>
   <v>      -0.42862271       0.06000639       0.05948532 </v>
   <v>       0.06218693      -0.44252803       0.31207228 </v>
   <v>       0.06386290       0.31164530       0.06664343 </v>
   <v>      -0.43589996       0.06383634       0.30400713 </v>
   <v>       0.31483105       0.06911645       0.06614723 </v>
   <v>       0.32326745       0.05892532      -0.44638853 </v>
   <v>       0.06864900       0.05700509      -0.44772438 </v>
   <v>      -0.44858089       0.31401817       0.06487230 </v>
   <v>       0.49303543      -0.25379020      -0.24535530 </v>
   <v>       0.49416864      -0.24834442       0.00638271 </v>
   <v>      -0.00648129      -0.24066624      -0.24233435 </v>
   <v>       0.25275877      -0.49539793       0.00243724 </v>
   <v>      -0.49875082      -0.00829732      -0.25099295 </v>
   <v>      -0.23733916       0.48657484      -0.00108638 </v>
   <v>       0.01226695       0.24278314      -0.49734409 </v>
   <v>       0.24175399       0.25361504       0.49859409 </v>
   <v>       0.25020103       0.24748378       0.00563589 </v>
   <v>      -0.00496750       0.49796386      -0.26084920 </v>
   <v>       0.24108817       0.49440507       0.26053396 </v>
   <v>       0.25868296      -0.00543242       0.24954481 </v>
   <v>      -0.48866271       0.24927324       0.24867357 </v>
   <v>       0.25645075      -0.00451171       0.49612182 </v>
   <v>       0.01021671       0.49416120       0.24297921 </v>
   <v>      -0.24708901      -0.25080452      -0.00048930 </v>
   <v>       0.00562310      -0.24936168      -0.49822276 </v>
   <v>      -0.25057232       0.00354934      -0.25053565 </v>
   <v>      -0.00611352       0.24598344       0.26253188 </v>
   <v>      -0.24915906      -0.49432980      -0.24640344 </v>
   <v>      -0.25894650      -0.25349251      -0.49996823 </v>
   <v>      -0.24259042      -0.00518764      -0.49322781 </v>
   <v>       0.49933085       0.24611788       0.00020802 </v>
   <v>       0.31195137       0.29915048      -0.43181394 </v>
   <v>       0.49246664      -0.00044112       0.23900838 </v>
   <v>      -0.44078909      -0.18252251      -0.18764186 </v>
   <v>       0.30861233      -0.17671529       0.30856116 </v>
   <v>       0.31412433      -0.17903713      -0.43971881 </v>
   <v>      -0.18395679       0.31833269      -0.43189748 </v>
   <v>       0.30905667      -0.43998335      -0.18737983 </v>
   <v>      -0.18146077      -0.43608662       0.30550645 </v>
   <v>       0.32286611       0.30598552      -0.18823811 </v>
   <v>       0.32093142      -0.45000373       0.30873482 </v>
   <v>      -0.18839858      -0.18634004      -0.43842116 </v>
   <v>      -0.18282037      -0.43903931      -0.18975801 </v>
   <v>      -0.18972878      -0.18815435      -0.18752471 </v>
   <v>      -0.18368828       0.31259065       0.31493478 </v>
   <v>      -0.44238232       0.31829149      -0.18099842 </v>
   <v>      -0.44084438       0.32618024       0.30077755 </v>
   <v>      -0.44295103      -0.19171938       0.32434048 </v>
   <v>       0.49943807      -0.00510198      -0.00099030 </v>
   <v>      -0.49775836      -0.49717345      -0.01233359 </v>
   <v>      -0.00695565       0.00983585       0.49271783 </v>
   <v>      -0.00628794      -0.49953792      -0.48900746 </v>
   <v>       0.00217474       0.49013819       0.00837164 </v>
   <v>      -0.49731793       0.00602511       0.49611507 </v>
   <v>      -0.44653352       0.06467911      -0.17606479 </v>
   <v>       0.06647253      -0.43313315      -0.45074353 </v>
   <v>      -0.43968725      -0.43364145      -0.18943453 </v>
   <v>      -0.43616672      -0.19320173      -0.43039552 </v>
   <v>      -0.43700723      -0.43601423       0.06395762 </v>
   <v>       0.06722586      -0.19040029      -0.44468978 </v>
   <v>      -0.18024179      -0.45365354      -0.43938389 </v>
   <v>       0.06364188      -0.44411324      -0.17737468 </v>
   <v>      -0.43260716       0.07013889      -0.45068309 </v>
   <v>      -0.18621275       0.05505433      -0.43074580 </v>
   <v>      -0.43038637      -0.19140837       0.06411487 </v>
   <v>      -0.18493425      -0.44242621       0.06570644 </v>
   <v>       0.24554733       0.48878001      -0.48350663 </v>
   <v>       0.49205284      -0.49460579      -0.24596945 </v>
   <v>       0.49408211      -0.25044625      -0.49359407 </v>
   <v>       0.49892437      -0.49719407       0.24274276 </v>
   <v>      -0.25165451      -0.48659154       0.48825816 </v>
   <v>      -0.49846917      -0.24889598       0.24765032 </v>
   <v>       0.24678985       0.49876380      -0.24889383 </v>
   <v>       0.26654800      -0.24660632       0.49383700 </v>
   <v>      -0.49625688       0.24845356      -0.24435201 </v>
   <v>      -0.49182038       0.24658400       0.49870994 </v>
   <v>      -0.25204085       0.23796395      -0.49416755 </v>
   <v>      -0.24252220       0.49282944       0.25391758 </v>
   <v>       0.07099249       0.31738727       0.29916685 </v>
   <v>       0.31167181       0.06351924       0.30924953 </v>
   <v>       0.31792222       0.31603628       0.31360897 </v>
   <v>       0.32327233       0.31227562       0.05169864 </v>
   <v>       0.24463712       0.24186049       0.25622218 </v>
   <v>      -0.23736653      -0.25130873      -0.25727397 </v>
   <v>      -0.43875237       0.30828488      -0.43569533 </v>
   <v>       0.31389588      -0.43983700      -0.44478306 </v>
   <v>      -0.44177226      -0.43809586      -0.43687058 </v>
   <v>      -0.44042319      -0.44928186       0.32289420 </v>
   <v>      -0.49637385       0.49144034      -0.49579284 </v>
  </varray>
 </structure>
 <varray name="primitive_index" >
  <v type="int" >        1 </v>
  <v type="int" >       65 </v>
  <v type="int" >      113 </v>
  <v type="int" >       77 </v>
  <v type="int" >       68 </v>
  <v type="int" >        2 </v>
  <v type="int" >       17 </v>
  <v type="int" >        5 </v>
  <v type="int" >       29 </v>
  <v type="int" >       14 </v>
  <v type="int" >       53 </v>
  <v type="int" >       49 </v>
  <v type="int" >       50 </v>
  <v type="int" >       13 </v>
  <v type="int" >        4 </v>
  <v type="int" >       20 </v>
  <v type="int" >        8 </v>
  <v type="int" >      114 </v>
  <v type="int" >      116 </v>
  <v type="int" >      117 </v>
  <v type="int" >      126 </v>
  <v type="int" >       78 </v>
  <v type="int" >      125 </v>
  <v type="int" >       96 </v>
  <v type="int" >       93 </v>
  <v type="int" >       72 </v>
  <v type="int" >      120 </v>
  <v type="int" >       84 </v>
  <v type="int" >       80 </v>
  <v type="int" >       62 </v>
  <v type="int" >       54 </v>
  <v type="int" >       24 </v>
  <v type="int" >       30 </v>
  <v type="int" >       56 </v>
  <v type="int" >       32 </v>
  <v type="int" >      101 </v>
  <v type="int" >       81 </v>
  <v type="int" >       74 </v>
  <v type="int" >       73 </v>
  <v type="int" >       67 </v>
  <v type="int" >       89 </v>
  <v type="int" >       69 </v>
  <v type="int" >       83 </v>
  <v type="int" >       66 </v>
  <v type="int" >       98 </v>
  <v type="int" >       97 </v>
  <v type="int" >       71 </v>
  <v type="int" >       63 </v>
  <v type="int" >       15 </v>
  <v type="int" >       61 </v>
  <v type="int" >       10 </v>
  <v type="int" >       51 </v>
  <v type="int" >       12 </v>
  <v type="int" >       37 </v>
  <v type="int" >       38 </v>
  <v type="int" >        6 </v>
  <v type="int" >       57 </v>
  <v type="int" >       26 </v>
  <v type="int" >       18 </v>
  <v type="int" >       23 </v>
  <v type="int" >       34 </v>
  <v type="int" >       25 </v>
  <v type="int" >       16 </v>
  <v type="int" >       45 </v>
  <v type="int" >       52 </v>
  <v type="int" >       21 </v>
  <v type="int" >       60 </v>
  <v type="int" >       48 </v>
  <v type="int" >       36 </v>
  <v type="int" >        7 </v>
  <v type="int" >      102 </v>
  <v type="int" >       19 </v>
  <v type="int" >      127 </v>
  <v type="int" >       94 </v>
  <v type="int" >      110 </v>
  <v type="int" >      104 </v>
  <v type="int" >      122 </v>
  <v type="int" >       92 </v>
  <v type="int" >      118 </v>
  <v type="int" >       90 </v>
  <v type="int" >      112 </v>
  <v type="int" >      124 </v>
  <v type="int" >      128 </v>
  <v type="int" >       88 </v>
  <v type="int" >      119 </v>
  <v type="int" >       87 </v>
  <v type="int" >       95 </v>
  <v type="int" >        3 </v>
  <v type="int" >       11 </v>
  <v type="int" >       33 </v>
  <v type="int" >       41 </v>
  <v type="int" >        9 </v>
  <v type="int" >       35 </v>
  <v type="int" >      115 </v>
  <v type="int" >      105 </v>
  <v type="int" >      123 </v>
  <v type="int" >      111 </v>
  <v type="int" >       75 </v>
  <v type="int" >      109 </v>
  <v type="int" >      108 </v>
  <v type="int" >      121 </v>
  <v type="int" >       99 </v>
  <v type="int" >      100 </v>
  <v type="int" >       79 </v>
  <v type="int" >       76 </v>
  <v type="int" >       42 </v>
  <v type="int" >       59 </v>
  <v type="int" >       47 </v>
  <v type="int" >       27 </v>
  <v type="int" >       44 </v>
  <v type="int" >       31 </v>
  <v type="int" >       58 </v>
  <v type="int" >       46 </v>
  <v type="int" >       55 </v>
  <v type="int" >       39 </v>
  <v type="int" >       40 </v>
  <v type="int" >       28 </v>
  <v type="int" >       85 </v>
  <v type="int" >       82 </v>
  <v type="int" >       86 </v>
  <v type="int" >       70 </v>
  <v type="int" >       22 </v>
  <v type="int" >       64 </v>
  <v type="int" >      103 </v>
  <v type="int" >      106 </v>
  <v type="int" >      107 </v>
  <v type="int" >       91 </v>
  <v type="int" >       43 </v>
 </varray>
 <kpoints>
  <generation param="Gamma">
   <v type="int" name="divisions">       2        2        2 </v>
   <v name="usershift">      0.00000000       0.00000000       0.00000000 </v>
   <v name="genvec1">      0.50000000       0.00000000       0.00000000 </v>
   <v name="genvec2">      0.00000000       0.50000000       0.00000000 </v>
   <v name="genvec3">      0.00000000       0.00000000       0.50000000 </v>
   <v name="shift">      0.00000000       0.00000000       0.00000000 </v>
  </generation>
  <varray name="kpointlist" >
   <v>       0.00000000       0.00000000       0.00000000 </v>
   <v>       0.50000000       0.00000000       0.00000000 </v>
   <v>       0.00000000       0.50000000       0.00000000 </v>
   <v>       0.50000000       0.50000000       0.00000000 </v>
   <v>       0.00000000       0.00000000       0.50000000 </v>
   <v>       0.50000000       0.00000000       0.50000000 </v>
   <v>       0.00000000       0.50000000       0.50000000 </v>
   <v>       0.50000000       0.50000000       0.50000000 </v>
  </varray>
  <varray name="weights" >
   <v>       0.12500000 </v>
   <v>       0.12500000 </v>
   <v>       0.12500000 </v>
   <v>       0.12500000 </v>
   <v>       0.12500000 </v>
   <v>       0.12500000 </v>
   <v>       0.12500000 </v>
   <v>       0.12500000 </v>
  </varray>
 </kpoints>
 <parameters>
  <separator name="general" >
   <i type="string" name="SYSTEM">potpaw_PBE@./ARUN.APL1ZEROSTATE</i>
   <i type="logical" name="LCOMPAT"> F  </i>
  </separator>
  <separator name="electronic" >
   <i type="string" name="PREC">accura</i>
   <i name="ENMAX">    500.00000000</i>
   <i name="ENAUG">    322.06900000</i>
   <i name="EDIFF">      0.00000001</i>
   <i type="int" name="IALGO">    38</i>
   <i type="int" name="IWAVPR">    10</i>
   <i type="int" name="NBANDS">   322</i>
   <i name="NELECT">    512.00000000</i>
   <i type="int" name="TURBO">     0</i>
   <i type="int" name="IRESTART">     0</i>
   <i type="int" name="NREBOOT">     0</i>
   <i type="int" name="NMIN">     0</i>
   <i name="EREF">      0.00000000</i>
   <separator name="electronic smearing" >
    <i type="int" name="ISMEAR">     0</i>
    <i name="SIGMA">      0.01000000</i>
    <i name="KSPACING">      0.50000000</i>
    <i type="logical" name="KGAMMA"> T  </i>
   </separator>
   <separator name="electronic projectors" >
    <i type="logical" name="LREAL"> F  </i>
    <v name="ROPT">      0.00000000</v>
    <i type="int" name="LMAXPAW">  -100</i>
    <i type="int" name="LMAXMIX">     2</i>
    <i type="logical" name="NLSPLINE"> F  </i>
   </separator>
   <separator name="electronic startup" >
    <i type="int" name="ISTART">     0</i>
    <i type="int" name="ICHARG">     2</i>
    <i type="int" name="INIWAV">     1</i>
   </separator>
   <separator name="electronic spin" >
    <i type="int" name="ISPIN">     1</i>
    <i type="logical" name="LNONCOLLINEAR"> F  </i>
    <v name="MAGMOM">      1.00000000      1.00000000      1.00000000      1.00000000      1.00000000      1.00000000      1.00000000      1.00000000      1.00000000      1.00000000      1.00000000      1.00000000      1.00000000      1.00000000      1.00000000      1.00000000      1.00000000      1.00000000      1.00000000      1.00000000
      1.00000000      1.00000000      1.00000000      1.00000000      1.00000000      1.00000000      1.00000000      1.00000000      1.00000000      1.00000000      1.00000000      1.00000000      1.00000000      1.00000000      1.00000000      1.00000000      1.00000000      1.00000000      1.00000000      1.00000000
      1.00000000      1.00000000      1.00000000      1.00000000      1.00000000      1.00000000      1.00000000      1.00000000      1.00000000      1.00000000      1.00000000      1.00000000      1.00000000      1.00000000      1.00000000      1.00000000      1.00000000      1.00000000      1.00000000      1.00000000
      1.00000000      1.00000000      1.00000000      1.00000000      1.00000000      1.00000000      1.00000000      1.00000000      1.00000000      1.00000000      1.00000000      1.00000000      1.00000000      1.00000000      1.00000000      1.00000000      1.00000000      1.00000000      1.00000000      1.00000000
      1.00000000      1.00000000      1.00000000      1.00000000      1.00000000      1.00000000      1.00000000      1.00000000      1.00000000      1.00000000      1.00000000      1.00000000      1.00000000      1.00000000      1.00000000      1.00000000      1.00000000      1.00000000      1.00000000      1.00000000
      1.00000000      1.00000000      1.00000000      1.00000000      1.00000000      1.00000000      1.00000000      1.00000000      1.00000000      1.00000000      1.00000000      1.00000000      1.00000000      1.00000000      1.00000000      1.00000000      1.00000000      1.00000000      1.00000000      1.00000000
      1.00000000      1.00000000      1.00000000      1.00000000      1.00000000      1.00000000      1.00000000      1.00000000</v>
    <i name="NUPDOWN">     -1.00000000</i>
    <i type="logical" name="LSORBIT"> F  </i>
    <v name="SAXIS">      0.00000000      0.00000000      1.00000000</v>
    <i type="logical" name="LSPIRAL"> F  </i>
    <v name="QSPIRAL">      0.00000000      0.00000000      0.00000000</v>
    <i type="logical" name="LZEROZ"> F  </i>
   </separator>
   <separator name="electronic exchange-correlation" >
    <i type="logical" name="LASPH"> F  </i>
    <i type="logical" name="LMETAGGA"> F  </i>
   </separator>
   <separator name="electronic convergence" >
    <i type="int" name="NELM">   120</i>
    <i type="int" name="NELMDL">    -5</i>
    <i type="int" name="NELMIN">     4</i>
    <i name="ENINI">    500.00000000</i>
    <separator name="electronic convergence detail" >
     <i type="logical" name="LDIAG"> T  </i>
     <i type="logical" name="LSUBROT"> F  </i>
     <i name="WEIMIN">      0.00000000</i>
     <i name="EBREAK">      0.00000000</i>
     <i name="DEPER">      0.30000000</i>
     <i type="int" name="NRMM">     4</i>
     <i name="TIME">      0.40000000</i>
    </separator>
   </separator>
   <separator name="electronic mixer" >
    <i name="AMIX">      0.40000000</i>
    <i name="BMIX">      1.00000000</i>
    <i name="AMIN">      0.10000000</i>
    <i name="AMIX_MAG">      1.60000000</i>
    <i name="BMIX_MAG">      1.00000000</i>
    <separator name="electronic mixer details" >
     <i type="int" name="IMIX">     4</i>
     <i type="logical" name="MIXFIRST"> F  </i>
     <i type="int" name="MAXMIX">   -45</i>
     <i name="WC">    100.00000000</i>
     <i type="int" name="INIMIX">     1</i>
     <i type="int" name="MIXPRE">     1</i>
     <i type="int" name="MREMOVE">     5</i>
    </separator>
   </separator>
   <separator name="electronic dipolcorrection" >
    <i type="logical" name="LDIPOL"> F  </i>
    <i type="logical" name="LMONO"> F  </i>
    <i type="int" name="IDIPOL">     0</i>
    <i name="EPSILON">      1.00000000</i>
    <v name="DIPOL">   -100.00000000   -100.00000000   -100.00000000</v>
    <i name="EFIELD">      0.00000000</i>
   </separator>
  </separator>
  <separator name="grids" >
   <i type="int" name="NGX">   120</i>
   <i type="int" name="NGY">   120</i>
   <i type="int" name="NGZ">   120</i>
   <i type="int" name="NGXF">   240</i>
   <i type="int" name="NGYF">   240</i>
   <i type="int" name="NGZF">   240</i>
   <i type="logical" name="ADDGRID"> T  </i>
  </separator>
  <separator name="ionic" >
   <i type="int" name="NSW">     0</i>
   <i type="int" name="IBRION">    -1</i>
   <i type="int" name="MDALGO">     0</i>
   <i type="int" name="ISIF">     2</i>
   <i name="PSTRESS">      0.00000000</i>
   <i name="EDIFFG">      0.00000010</i>
   <i type="int" name="NFREE">     0</i>
   <i name="POTIM">      0.50000000</i>
   <i name="SMASS">     -3.00000000</i>
   <i name="SCALEE">      1.00000000</i>
  </separator>
  <separator name="ionic md" >
   <i name="TEBEG">      0.00010000</i>
   <i name="TEEND">      0.00010000</i>
   <i type="int" name="NBLOCK">     1</i>
   <i type="int" name="KBLOCK">     1</i>
   <i type="int" name="NPACO">   256</i>
   <i name="APACO">     16.00000000</i>
  </separator>
  <separator name="symmetry" >
   <i type="int" name="ISYM">     2</i>
   <i name="SYMPREC">      0.00001000</i>
  </separator>
  <separator name="dos" >
   <i type="int" name="LORBIT">     0</i>
   <v name="RWIGS">     -1.00000000</v>
   <i type="int" name="NEDOS">   301</i>
   <i name="EMIN">     10.00000000</i>
   <i name="EMAX">    -10.00000000</i>
   <i name="EFERMI">      0.00000000</i>
  </separator>
  <separator name="writing" >
   <i type="int" name="NWRITE">     2</i>
   <i type="logical" name="LWAVE"> F  </i>
   <i type="logical" name="LDOWNSAMPLE"> F  </i>
   <i type="logical" name="LCHARG"> F  </i>
   <i type="logical" name="LPARD"> F  </i>
   <i type="logical" name="LVTOT"> F  </i>
   <i type="logical" name="LVHAR"> F  </i>
   <i type="logical" name="LELF"> F  </i>
   <i type="logical" name="LOPTICS"> F  </i>
   <v name="STM">      0.00000000      0.00000000      0.00000000      0.00000000      0.00000000      0.00000000      0.00000000</v>
  </separator>
  <separator name="performance" >
   <i type="int" name="NPAR">     2</i>
   <i type="int" name="NSIM">     4</i>
   <i type="int" name="NBLK">    -1</i>
   <i type="logical" name="LPLANE"> T  </i>
   <i type="logical" name="LSCALAPACK"> T  </i>
   <i type="logical" name="LSCAAWARE"> F  </i>
   <i type="logical" name="LSCALU"> F  </i>
   <i type="logical" name="LASYNC"> F  </i>
   <i type="logical" name="LORBITALREAL"> F  </i>
  </separator>
  <separator name="miscellaneous" >
   <i type="int" name="IDIOT">     3</i>
   <i type="int" name="ISPECIAL">     0</i>
   <i type="logical" name="LMUSIC"> F  </i>
   <v name="POMASS">     28.08500000</v>
   <v name="DARWINR">      0.00000000</v>
   <v name="DARWINV">      1.00000000</v>
   <i type="logical" name="LCORR"> T  </i>
  </separator>
  <i type="logical" name="GGA_COMPAT"> T  </i>
  <i type="logical" name="LBERRY"> F  </i>
  <i type="int" name="ICORELEVEL">     0</i>
  <i type="logical" name="LDAU"> F  </i>
  <i type="int" name="I_CONSTRAINED_M">     0</i>
  <separator name="electronic exchange-correlation" >
   <i type="string" name="GGA">--</i>
   <i type="int" name="VOSKOWN">     0</i>
   <i type="logical" name="LHFCALC"> F  </i>
   <i type="string" name="PRECFOCK"></i>
   <i type="logical" name="LSYMGRAD"> F  </i>
   <i type="logical" name="LHFONE"> F  </i>
   <i type="logical" name="LRHFCALC"> F  </i>
   <i type="logical" name="LTHOMAS"> F  </i>
   <i type="logical" name="LMODELHF"> F  </i>
   <i name="ENCUT4O">     -1.00000000</i>
   <i type="int" name="EXXOEP">     0</i>
   <i type="int" name="FOURORBIT">     0</i>
   <i name="AEXX">      0.00000000</i>
   <i name="HFALPHA">      0.00000000</i>
   <i name="MCALPHA">      0.00000000</i>
   <i name="ALDAX">      1.00000000</i>
   <i name="AGGAX">      1.00000000</i>
   <i name="ALDAC">      1.00000000</i>
   <i name="AGGAC">      1.00000000</i>
   <i type="int" name="NKREDX">     1</i>
   <i type="int" name="NKREDY">     1</i>
   <i type="int" name="NKREDZ">     1</i>
   <i type="logical" name="SHIFTRED"> F  </i>
   <i type="logical" name="ODDONLY"> F  </i>
   <i type="logical" name="EVENONLY"> F  </i>
   <i type="int" name="LMAXFOCK">     0</i>
   <i type="int" name="NMAXFOCKAE">     0</i>
   <i type="logical" name="LFOCKAEDFT"> F  </i>
   <i name="HFSCREEN">      0.00000000</i>
   <i name="HFSCREENC">      0.00000000</i>
   <i type="int" name="NBANDSGWLOW">     0</i>
  </separator>
  <separator name="vdW DFT" >
   <i type="logical" name="LUSE_VDW"> F  </i>
   <i name="Zab_VDW">     -0.84910000</i>
   <i name="PARAM1">      0.12340000</i>
   <i name="PARAM2">      1.00000000</i>
   <i name="PARAM3">      0.00000000</i>
  </separator>
  <separator name="model GW" >
   <i type="int" name="MODEL_GW">     0</i>
   <i name="MODEL_EPS0">     12.26607635</i>
   <i name="MODEL_ALPHA">      1.00000000</i>
  </separator>
  <separator name="linear response parameters" >
   <i type="logical" name="LEPSILON"> F  </i>
   <i type="logical" name="LRPA"> F  </i>
   <i type="logical" name="LNABLA"> F  </i>
   <i type="logical" name="LVEL"> F  </i>
   <i type="int" name="KINTER">     0</i>
   <i name="CSHIFT">      0.10000000</i>
   <i name="OMEGAMAX">     -1.00000000</i>
   <i name="DEG_THRESHOLD">      0.00200000</i>
   <i name="RTIME">     -0.10000000</i>
   <i name="WPLASMAI">      0.00000000</i>
   <v name="DFIELD">      0.00000000      0.00000000      0.00000000</v>
   <v name="WPLASMA">      0.00000000      0.00000000      0.00000000      0.00000000      0.00000000      0.00000000      0.00000000      0.00000000      0.00000000</v>
  </separator>
  <separator name="orbital magnetization" >
   <i type="logical" name="NUCIND"> F  </i>
   <v name="MAGPOS">      0.00000000      0.00000000      0.00000000</v>
   <i type="logical" name="LNICSALL"> T  </i>
   <i type="logical" name="ORBITALMAG"> F  </i>
   <i type="logical" name="LMAGBLOCH"> F  </i>
   <i type="logical" name="LCHIMAG"> F  </i>
   <i type="logical" name="LGAUGE"> T  </i>
   <i type="int" name="MAGATOM">     0</i>
   <v name="MAGDIPOL">      0.00000000      0.00000000      0.00000000</v>
   <v name="AVECCONST">      0.00000000      0.00000000      0.00000000</v>
  </separator>
  <separator name="response functions" >
   <i type="logical" name="LADDER"> F  </i>
   <i type="logical" name="LRPAFORCE"> F  </i>
   <i type="logical" name="LFXC"> F  </i>
   <i type="logical" name="LHARTREE"> T  </i>
   <i type="int" name="IBSE">     0</i>
   <v type="int" name="KPOINT">    -1     0     0     0</v>
   <i type="logical" name="LTCTE"> F  </i>
   <i type="logical" name="LTETE"> F  </i>
   <i type="logical" name="LTRIPLET"> F  </i>
   <i type="logical" name="LFXCEPS"> F  </i>
   <i type="logical" name="LFXHEG"> F  </i>
   <i type="int" name="NATURALO">     2</i>
   <i type="logical" name="L2ORDER"> F  </i>
   <i type="logical" name="LMP2LT"> F  </i>
   <i type="logical" name="LUSEW"> F  </i>
   <i name="ENCUTGW">     -2.00000000</i>
   <i name="ENCUTGWSOFT">     -2.00000000</i>
   <i name="ENCUTLF">     -1.00000000</i>
   <i type="int" name="LMAXMP2">    -1</i>
   <i name="SCISSOR">      0.00000000</i>
   <i type="int" name="NOMEGA">     0</i>
   <i type="int" name="NOMEGAR">     0</i>
   <i type="int" name="NBANDSGW">    -1</i>
   <i type="int" name="NBANDSO">    -1</i>
   <i type="int" name="NBANDSV">    -1</i>
   <i type="int" name="NELM">   120</i>
   <i type="int" name="NELMHF">     1</i>
   <i type="int" name="DIM">     3</i>
   <i type="int" name="ANTIRES">     0</i>
   <i name="OMEGAMAX">    -30.00000000</i>
   <i name="OMEGAMIN">    -30.00000000</i>
   <i name="OMEGATL">   -200.00000000</i>
   <i type="int" name="OMEGAGRID">   140</i>
   <i name="CSHIFT">     -0.10000000</i>
   <i type="logical" name="SELFENERGY"> F  </i>
   <i type="logical" name="LSPECTRAL"> F  </i>
   <i type="logical" name="LSPECTRALGW"> F  </i>
   <i type="logical" name="LSINGLES"> F  </i>
   <i type="logical" name="LFERMIGW"> F  </i>
   <i type="logical" name="ODDONLYGW"> F  </i>
   <i type="logical" name="EVENONLYGW"> F  </i>
   <i type="int" name="NKREDLFX">     1</i>
   <i type="int" name="NKREDLFY">     1</i>
   <i type="int" name="NKREDLFZ">     1</i>
   <i type="int" name="MAXMEM">  2800</i>
   <i type="int" name="TELESCOPE">     0</i>
   <i type="int" name="TAUPAR">     1</i>
   <i type="int" name="OMEGAPAR">    -1</i>
   <i name="LAMBDA">      1.00000000</i>
  </separator>
  <separator name="External order field" >
   <i name="OFIELD_KAPPA">      0.00000000</i>
   <v name="OFIELD_K">      0.00000000      0.00000000      0.00000000</v>
   <i name="OFIELD_Q6_NEAR">      0.00000000</i>
   <i name="OFIELD_Q6_FAR">      0.00000000</i>
   <i name="OFIELD_A">      0.00000000</i>
  </separator>
 </parameters>
 <atominfo>
  <atoms>     128 </atoms>
  <types>       1 </types>
  <array name="atoms" >
   <dimension dim="1">ion</dimension>
   <field type="string">element</field>
   <field type="int">atomtype</field>
   <set>
    <rc><c>Si</c><c>   1</c></rc>
    <rc><c>Si</c><c>   1</c></rc>
    <rc><c>Si</c><c>   1</c></rc>
    <rc><c>Si</c><c>   1</c></rc>
    <rc><c>Si</c><c>   1</c></rc>
    <rc><c>Si</c><c>   1</c></rc>
    <rc><c>Si</c><c>   1</c></rc>
    <rc><c>Si</c><c>   1</c></rc>
    <rc><c>Si</c><c>   1</c></rc>
    <rc><c>Si</c><c>   1</c></rc>
    <rc><c>Si</c><c>   1</c></rc>
    <rc><c>Si</c><c>   1</c></rc>
    <rc><c>Si</c><c>   1</c></rc>
    <rc><c>Si</c><c>   1</c></rc>
    <rc><c>Si</c><c>   1</c></rc>
    <rc><c>Si</c><c>   1</c></rc>
    <rc><c>Si</c><c>   1</c></rc>
    <rc><c>Si</c><c>   1</c></rc>
    <rc><c>Si</c><c>   1</c></rc>
    <rc><c>Si</c><c>   1</c></rc>
    <rc><c>Si</c><c>   1</c></rc>
    <rc><c>Si</c><c>   1</c></rc>
    <rc><c>Si</c><c>   1</c></rc>
    <rc><c>Si</c><c>   1</c></rc>
    <rc><c>Si</c><c>   1</c></rc>
    <rc><c>Si</c><c>   1</c></rc>
    <rc><c>Si</c><c>   1</c></rc>
    <rc><c>Si</c><c>   1</c></rc>
    <rc><c>Si</c><c>   1</c></rc>
    <rc><c>Si</c><c>   1</c></rc>
    <rc><c>Si</c><c>   1</c></rc>
    <rc><c>Si</c><c>   1</c></rc>
    <rc><c>Si</c><c>   1</c></rc>
    <rc><c>Si</c><c>   1</c></rc>
    <rc><c>Si</c><c>   1</c></rc>
    <rc><c>Si</c><c>   1</c></rc>
    <rc><c>Si</c><c>   1</c></rc>
    <rc><c>Si</c><c>   1</c></rc>
    <rc><c>Si</c><c>   1</c></rc>
    <rc><c>Si</c><c>   1</c></rc>
    <rc><c>Si</c><c>   1</c></rc>
    <rc><c>Si</c><c>   1</c></rc>
    <rc><c>Si</c><c>   1</c></rc>
    <rc><c>Si</c><c>   1</c></rc>
    <rc><c>Si</c><c>   1</c></rc>
    <rc><c>Si</c><c>   1</c></rc>
    <rc><c>Si</c><c>   1</c></rc>
    <rc><c>Si</c><c>   1</c></rc>
    <rc><c>Si</c><c>   1</c></rc>
    <rc><c>Si</c><c>   1</c></rc>
    <rc><c>Si</c><c>   1</c></rc>
    <rc><c>Si</c><c>   1</c></rc>
    <rc><c>Si</c><c>   1</c></rc>
    <rc><c>Si</c><c>   1</c></rc>
    <rc><c>Si</c><c>   1</c></rc>
    <rc><c>Si</c><c>   1</c></rc>
    <rc><c>Si</c><c>   1</c></rc>
    <rc><c>Si</c><c>   1</c></rc>
    <rc><c>Si</c><c>   1</c></rc>
    <rc><c>Si</c><c>   1</c></rc>
    <rc><c>Si</c><c>   1</c></rc>
    <rc><c>Si</c><c>   1</c></rc>
    <rc><c>Si</c><c>   1</c></rc>
    <rc><c>Si</c><c>   1</c></rc>
    <rc><c>Si</c><c>   1</c></rc>
    <rc><c>Si</c><c>   1</c></rc>
    <rc><c>Si</c><c>   1</c></rc>
    <rc><c>Si</c><c>   1</c></rc>
    <rc><c>Si</c><c>   1</c></rc>
    <rc><c>Si</c><c>   1</c></rc>
    <rc><c>Si</c><c>   1</c></rc>
    <rc><c>Si</c><c>   1</c></rc>
    <rc><c>Si</c><c>   1</c></rc>
    <rc><c>Si</c><c>   1</c></rc>
    <rc><c>Si</c><c>   1</c></rc>
    <rc><c>Si</c><c>   1</c></rc>
    <rc><c>Si</c><c>   1</c></rc>
    <rc><c>Si</c><c>   1</c></rc>
    <rc><c>Si</c><c>   1</c></rc>
    <rc><c>Si</c><c>   1</c></rc>
    <rc><c>Si</c><c>   1</c></rc>
    <rc><c>Si</c><c>   1</c></rc>
    <rc><c>Si</c><c>   1</c></rc>
    <rc><c>Si</c><c>   1</c></rc>
    <rc><c>Si</c><c>   1</c></rc>
    <rc><c>Si</c><c>   1</c></rc>
    <rc><c>Si</c><c>   1</c></rc>
    <rc><c>Si</c><c>   1</c></rc>
    <rc><c>Si</c><c>   1</c></rc>
    <rc><c>Si</c><c>   1</c></rc>
    <rc><c>Si</c><c>   1</c></rc>
    <rc><c>Si</c><c>   1</c></rc>
    <rc><c>Si</c><c>   1</c></rc>
    <rc><c>Si</c><c>   1</c></rc>
    <rc><c>Si</c><c>   1</c></rc>
    <rc><c>Si</c><c>   1</c></rc>
    <rc><c>Si</c><c>   1</c></rc>
    <rc><c>Si</c><c>   1</c></rc>
    <rc><c>Si</c><c>   1</c></rc>
    <rc><c>Si</c><c>   1</c></rc>
    <rc><c>Si</c><c>   1</c></rc>
    <rc><c>Si</c><c>   1</c></rc>
    <rc><c>Si</c><c>   1</c></rc>
    <rc><c>Si</c><c>   1</c></rc>
    <rc><c>Si</c><c>   1</c></rc>
    <rc><c>Si</c><c>   1</c></rc>
    <rc><c>Si</c><c>   1</c></rc>
    <rc><c>Si</c><c>   1</c></rc>
    <rc><c>Si</c><c>   1</c></rc>
    <rc><c>Si</c><c>   1</c></rc>
    <rc><c>Si</c><c>   1</c></rc>
    <rc><c>Si</c><c>   1</c></rc>
    <rc><c>Si</c><c>   1</c></rc>
    <rc><c>Si</c><c>   1</c></rc>
    <rc><c>Si</c><c>   1</c></rc>
    <rc><c>Si</c><c>   1</c></rc>
    <rc><c>Si</c><c>   1</c></rc>
    <rc><c>Si</c><c>   1</c></rc>
    <rc><c>Si</c><c>   1</c></rc>
    <rc><c>Si</c><c>   1</c></rc>
    <rc><c>Si</c><c>   1</c></rc>
    <rc><c>Si</c><c>   1</c></rc>
    <rc><c>Si</c><c>   1</c></rc>
    <rc><c>Si</c><c>   1</c></rc>
    <rc><c>Si</c><c>   1</c></rc>
    <rc><c>Si</c><c>   1</c></rc>
    <rc><c>Si</c><c>   1</c></rc>
    <rc><c>Si</c><c>   1</c></rc>
   </set>
  </array>
  <array name="atomtypes" >
   <dimension dim="1">type</dimension>
   <field type="int">atomspertype</field>
   <field type="string">element</field>
   <field>mass</field>
   <field>valence</field>
   <field type="string">pseudopotential</field>
   <set>
    <rc><c> 128</c><c>Si</c><c>     28.08500000</c><c>      4.00000000</c><c> PAW_PBE Si 05Jan2001                   </c></rc>
   </set>
  </array>
 </atominfo>
 <structure name="initialpos" >
  <crystal>
   <varray name="basis" >
    <v>       0.00000000      10.93733369      10.93733369 </v>
    <v>      10.93733369       0.00000000      10.93733369 </v>
    <v>      10.93733369      10.93733369       0.00000000 </v>
   </varray>
   <i name="volume">   2616.76295363 </i>
   <varray name="rec_basis" >
    <v>      -0.04571498       0.04571498       0.04571498 </v>
    <v>       0.04571498      -0.04571498       0.04571498 </v>
    <v>       0.04571498       0.04571498      -0.04571498 </v>
   </varray>
  </crystal>
  <varray name="positions" >
   <v>       0.00985375       0.99604606       0.99734855 </v>
   <v>       0.24619241       0.99314113       0.00339627 </v>
   <v>       0.49943807       0.99489802       0.99900970 </v>
   <v>       0.74811102       0.99779213       0.00334900 </v>
   <v>       0.00260132       0.24512620       0.99764775 </v>
   <v>       0.25020103       0.24748378       0.00563589 </v>
   <v>       0.49933085       0.24611788       0.00020802 </v>
   <v>       0.74198638       0.25144069       0.99514881 </v>
   <v>       0.00217474       0.49013819       0.00837164 </v>
   <v>       0.25275877       0.50460207       0.00243724 </v>
   <v>       0.50224164       0.50282655       0.98766641 </v>
   <v>       0.76266084       0.48657484       0.99891362 </v>
   <v>       0.99625357       0.74729100       0.00253742 </v>
   <v>       0.25956775       0.75297766       0.99553217 </v>
   <v>       0.49416864       0.75165558       0.00638271 </v>
   <v>       0.75291099       0.74919548       0.99951070 </v>
   <v>       0.00584016       0.99842249       0.24306749 </v>
   <v>       0.25868296       0.99456758       0.24954481 </v>
   <v>       0.49246664       0.99955888       0.23900838 </v>
   <v>       0.74043424       0.00580174       0.24672625 </v>
   <v>       0.99388648       0.24598344       0.26253188 </v>
   <v>       0.24463712       0.24186049       0.25622218 </v>
   <v>       0.51133729       0.24927324       0.24867357 </v>
   <v>       0.74969929       0.24429284       0.25130028 </v>
   <v>       0.01021671       0.49416120       0.24297921 </v>
   <v>       0.24108817       0.49440507       0.26053396 </v>
   <v>       0.49892437       0.50280593       0.24274276 </v>
   <v>       0.75747780       0.49282944       0.25391758 </v>
   <v>       0.99345572       0.75550593       0.24894911 </v>
   <v>       0.26115025       0.75391344       0.24832495 </v>
   <v>       0.50153083       0.75110402       0.24765032 </v>
   <v>       0.74166777       0.74929181       0.24934951 </v>
   <v>       0.99304435       0.00983585       0.49271783 </v>
   <v>       0.25645075       0.99548829       0.49612182 </v>
   <v>       0.50268207       0.00602511       0.49611507 </v>
   <v>       0.75740958       0.99481236       0.50677219 </v>
   <v>       0.01226695       0.24278314       0.50265591 </v>
   <v>       0.24175399       0.25361504       0.49859409 </v>
   <v>       0.50817962       0.24658400       0.49870994 </v>
   <v>       0.74795915       0.23796395       0.50583245 </v>
   <v>       0.99371206       0.50046208       0.51099254 </v>
   <v>       0.24554733       0.48878001       0.51649337 </v>
   <v>       0.50362615       0.49144034       0.50420716 </v>
   <v>       0.74834549       0.51340846       0.48825816 </v>
   <v>       0.00562310       0.75063832       0.50177724 </v>
   <v>       0.26654800       0.75339368       0.49383700 </v>
   <v>       0.49408211       0.74955375       0.50640593 </v>
   <v>       0.74105350       0.74650749       0.50003177 </v>
   <v>       0.98906594       0.00780669       0.75477152 </v>
   <v>       0.25314315       0.99979663       0.74138661 </v>
   <v>       0.50124918       0.99170268       0.74900705 </v>
   <v>       0.74942768       0.00354934       0.74946435 </v>
   <v>       0.00032275       0.24276732       0.75139206 </v>
   <v>       0.25524370       0.24886869       0.76049235 </v>
   <v>       0.50374312       0.24845356       0.75564799 </v>
   <v>       0.75376716       0.26300466       0.74135718 </v>
   <v>       0.99503250       0.49796386       0.73915080 </v>
   <v>       0.24678985       0.49876380       0.75110617 </v>
   <v>       0.49205284       0.50539421       0.75403055 </v>
   <v>       0.75084094       0.50567020       0.75359656 </v>
   <v>       0.99351871       0.75933376       0.75766565 </v>
   <v>       0.24340205       0.74934220       0.75887037 </v>
   <v>       0.49303543       0.74620980       0.75464470 </v>
   <v>       0.76263347       0.74869127       0.74272603 </v>
   <v>       0.06464962       0.06332549       0.05808689 </v>
   <v>       0.31483105       0.06911645       0.06614723 </v>
   <v>       0.57137729       0.06000639       0.05948532 </v>
   <v>       0.80560665       0.07157787       0.05692152 </v>
   <v>       0.06386290       0.31164530       0.06664343 </v>
   <v>       0.32327233       0.31227562       0.05169864 </v>
   <v>       0.55141911       0.31401817       0.06487230 </v>
   <v>       0.81598462       0.30804535       0.07301985 </v>
   <v>       0.06856460       0.55955538       0.06069324 </v>
   <v>       0.30794820       0.55817943       0.06997058 </v>
   <v>       0.56299277       0.56398577       0.06395762 </v>
   <v>       0.81506575       0.55757379       0.06570644 </v>
   <v>       0.06966057       0.80876723       0.05712605 </v>
   <v>       0.31714253       0.80447668       0.06144804 </v>
   <v>       0.56961363       0.80859163       0.06411487 </v>
   <v>       0.79365505       0.81323204       0.07032060 </v>
   <v>       0.05977505       0.06133795       0.31008220 </v>
   <v>       0.31167181       0.06351924       0.30924953 </v>
   <v>       0.56410004       0.06383634       0.30400713 </v>
   <v>       0.80697813       0.07102808       0.32220190 </v>
   <v>       0.07099249       0.31738727       0.29916685 </v>
   <v>       0.31792222       0.31603628       0.31360897 </v>
   <v>       0.55915562       0.32618024       0.30077755 </v>
   <v>       0.81631172       0.31259065       0.31493478 </v>
   <v>       0.06218693       0.55747197       0.31207228 </v>
   <v>       0.32093142       0.54999627       0.30873482 </v>
   <v>       0.55957681       0.55071814       0.32289420 </v>
   <v>       0.81853923       0.56391338       0.30550645 </v>
   <v>       0.05992173       0.80808204       0.32074363 </v>
   <v>       0.30861233       0.82328471       0.30856116 </v>
   <v>       0.55704897       0.80828062       0.32434048 </v>
   <v>       0.81599079       0.82185942       0.31404267 </v>
   <v>       0.06864900       0.05700509       0.55227562 </v>
   <v>       0.32326745       0.05892532       0.55361147 </v>
   <v>       0.56739284       0.07013889       0.54931691 </v>
   <v>       0.81378725       0.05505433       0.56925420 </v>
   <v>       0.06452368       0.29813151       0.56826753 </v>
   <v>       0.31195137       0.29915048       0.56818606 </v>
   <v>       0.56124763       0.30828488       0.56430467 </v>
   <v>       0.81604321       0.31833269       0.56810252 </v>
   <v>       0.06647253       0.56686685       0.54925647 </v>
   <v>       0.31389588       0.56016300       0.55521694 </v>
   <v>       0.55822774       0.56190414       0.56312942 </v>
   <v>       0.81975821       0.54634646       0.56061611 </v>
   <v>       0.06722586       0.80959971       0.55531022 </v>
   <v>       0.31412433       0.82096287       0.56028119 </v>
   <v>       0.56383328       0.80679827       0.56960448 </v>
   <v>       0.81160142       0.81365996       0.56157884 </v>
   <v>       0.06701057       0.06392156       0.81180769 </v>
   <v>       0.30618547       0.05854748       0.81026882 </v>
   <v>       0.55346648       0.06467911       0.82393521 </v>
   <v>       0.81041147       0.07043059       0.82606657 </v>
   <v>       0.05149098       0.31020221       0.81851199 </v>
   <v>       0.32286611       0.30598552       0.81176189 </v>
   <v>       0.55761768       0.31829149       0.81900158 </v>
   <v>       0.81241583       0.31315244       0.81008124 </v>
   <v>       0.06364188       0.55588676       0.82262532 </v>
   <v>       0.30905667       0.56001665       0.81262017 </v>
   <v>       0.56031275       0.56635855       0.81056547 </v>
   <v>       0.81717963       0.56096069       0.81024199 </v>
   <v>       0.06661514       0.80539331       0.81739918 </v>
   <v>       0.30873304       0.81451434       0.80555673 </v>
   <v>       0.55921091       0.81747749       0.81235814 </v>
   <v>       0.81027122       0.81184565       0.81247529 </v>
  </varray>
 </structure>
 <calculation>
  <scstep>
   <time name="dav">   70.08   70.13</time>
   <time name="total">   71.08   71.15</time>
   <energy>
    <i name="alphaZ">    210.77028614 </i>
    <i name="ewald"> -14474.03021383 </i>
    <i name="hartreedc">   -753.72984244 </i>
    <i name="XCdc">  -1195.31503822 </i>
    <i name="pawpsdc">   4221.13331941 </i>
    <i name="pawaedc">  -1969.18571412 </i>
    <i name="eentropy">     -0.00065594 </i>
    <i name="bandstr">   2151.42631991 </i>
    <i name="atom">  13192.48085998 </i>
    <i name="e_fr_energy">   1383.54932090 </i>
    <i name="e_wo_entrp">   1383.54997684 </i>
    <i name="e_0_energy">   1383.54964887 </i>
   </energy>
  </scstep>
  <scstep>
   <time name="dav">   79.78   79.86</time>
   <time name="total">   79.78   79.86</time>
   <energy>
    <i name="e_fr_energy">   -537.76219776 </i>
    <i name="e_wo_entrp">   -537.76219776 </i>
    <i name="e_0_energy">   -537.76219776 </i>
   </energy>
  </scstep>
  <scstep>
   <time name="dav">   81.48   81.54</time>
   <time name="total">   81.48   81.54</time>
   <energy>
    <i name="e_fr_energy">   -687.51989144 </i>
    <i name="e_wo_entrp">   -687.51989144 </i>
    <i name="e_0_energy">   -687.51989144 </i>
   </energy>
  </scstep>
  <scstep>
   <time name="dav">   80.84   80.90</time>
   <time name="total">   80.84   80.90</time>
   <energy>
    <i name="e_fr_energy">   -691.79506564 </i>
    <i name="e_wo_entrp">   -691.79506564 </i>
    <i name="e_0_energy">   -691.79506564 </i>
   </energy>
  </scstep>
  <scstep>
   <time name="dav">   82.10   82.17</time>
   <time name="total">   85.30   85.37</time>
   <energy>
    <i name="e_fr_energy">   -691.94367350 </i>
    <i name="e_wo_entrp">   -691.94367350 </i>
    <i name="e_0_energy">   -691.94367350 </i>
   </energy>
  </scstep>
  <scstep>
   <time name="dav">   77.61   77.67</time>
   <time name="total">   81.82   81.88</time>
   <energy>
    <i name="e_fr_energy">   -683.54155977 </i>
    <i name="e_wo_entrp">   -683.54155977 </i>
    <i name="e_0_energy">   -683.54155977 </i>
   </energy>
  </scstep>
  <scstep>
   <time name="dav">   76.95   77.03</time>
   <time name="total">   81.16   81.24</time>
   <energy>
    <i name="e_fr_energy">   -680.00773454 </i>
    <i name="e_wo_entrp">   -680.00773454 </i>
    <i name="e_0_energy">   -680.00773454 </i>
   </energy>
  </scstep>
  <scstep>
   <time name="dav">   76.57   76.64</time>
   <time name="total">   80.75   80.82</time>
   <energy>
    <i name="e_fr_energy">   -680.06686876 </i>
    <i name="e_wo_entrp">   -680.06686876 </i>
    <i name="e_0_energy">   -680.06686876 </i>
   </energy>
  </scstep>
  <scstep>
   <time name="dav">   79.28   79.36</time>
   <time name="total">   83.47   83.55</time>
   <energy>
    <i name="e_fr_energy">   -680.08675298 </i>
    <i name="e_wo_entrp">   -680.08675298 </i>
    <i name="e_0_energy">   -680.08675298 </i>
   </energy>
  </scstep>
  <scstep>
   <time name="dav">   78.98   79.04</time>
   <time name="total">   83.16   83.23</time>
   <energy>
    <i name="e_fr_energy">   -680.08924342 </i>
    <i name="e_wo_entrp">   -680.08924342 </i>
    <i name="e_0_energy">   -680.08924342 </i>
   </energy>
  </scstep>
  <scstep>
   <time name="dav">   76.47   76.53</time>
   <time name="total">   80.65   80.71</time>
   <energy>
    <i name="e_fr_energy">   -680.09064564 </i>
    <i name="e_wo_entrp">   -680.09064564 </i>
    <i name="e_0_energy">   -680.09064564 </i>
   </energy>
  </scstep>
  <scstep>
   <time name="dav">   79.81   79.86</time>
   <time name="total">   83.99   84.05</time>
   <energy>
    <i name="e_fr_energy">   -680.09067440 </i>
    <i name="e_wo_entrp">   -680.09067440 </i>
    <i name="e_0_energy">   -680.09067440 </i>
   </energy>
  </scstep>
  <scstep>
   <time name="dav">   76.71   76.76</time>
   <time name="total">   80.93   80.98</time>
   <energy>
    <i name="e_fr_energy">   -680.09070497 </i>
    <i name="e_wo_entrp">   -680.09070497 </i>
    <i name="e_0_energy">   -680.09070497 </i>
   </energy>
  </scstep>
  <scstep>
   <time name="dav">   80.55   80.60</time>
   <time name="total">   84.75   84.81</time>
   <energy>
    <i name="e_fr_energy">   -680.09070632 </i>
    <i name="e_wo_entrp">   -680.09070632 </i>
    <i name="e_0_energy">   -680.09070632 </i>
   </energy>
  </scstep>
  <scstep>
   <time name="dav">   78.70   78.79</time>
   <time name="total">   82.92   83.01</time>
   <energy>
    <i name="e_fr_energy">   -680.09071011 </i>
    <i name="e_wo_entrp">   -680.09071011 </i>
    <i name="e_0_energy">   -680.09071011 </i>
   </energy>
  </scstep>
  <scstep>
   <time name="dav">   79.59   79.66</time>
   <time name="total">   83.73   83.81</time>
   <energy>
    <i name="e_fr_energy">   -680.09070980 </i>
    <i name="e_wo_entrp">   -680.09070980 </i>
    <i name="e_0_energy">   -680.09070980 </i>
   </energy>
  </scstep>
  <scstep>
   <time name="dav">   68.56   68.61</time>
   <time name="total">   72.69   72.74</time>
   <energy>
    <i name="e_fr_energy">   -680.09070952 </i>
    <i name="e_wo_entrp">   -680.09070952 </i>
    <i name="e_0_energy">   -680.09070952 </i>
   </energy>
  </scstep>
  <scstep>
   <time name="dav">   51.96   52.00</time>
   <time name="total">   56.08   56.12</time>
   <energy>
    <i name="e_fr_energy">   -680.09070973 </i>
    <i name="e_wo_entrp">   -680.09070973 </i>
    <i name="e_0_energy">   -680.09070973 </i>
   </energy>
  </scstep>
  <scstep>
   <time name="dav">   51.21   51.26</time>
   <time name="total">   55.33   55.38</time>
   <energy>
    <i name="e_fr_energy">   -680.09070969 </i>
    <i name="e_wo_entrp">   -680.09070969 </i>
    <i name="e_0_energy">   -680.09070969 </i>
   </energy>
  </scstep>
  <scstep>
   <time name="dav">   50.66   50.70</time>
   <time name="total">   51.65   51.70</time>
   <energy>
    <i name="alphaZ">    210.77028614 </i>
    <i name="ewald"> -14474.03021383 </i>
    <i name="hartreedc">   -999.66019478 </i>
    <i name="XCdc">  -1155.71757108 </i>
    <i name="pawpsdc">   4731.26473621 </i>
    <i name="pawaedc">  -2493.00625096 </i>
    <i name="eentropy">     -0.00000000 </i>
    <i name="bandstr">    307.80763862 </i>
    <i name="atom">  13192.48085998 </i>
    <i name="e_fr_energy">   -680.09070970 </i>
    <i name="e_wo_entrp">   -680.09070970 </i>
    <i name="e_0_energy">   -680.09070970 </i>
   </energy>
  </scstep>
  <structure>
   <crystal>
    <varray name="basis" >
     <v>       0.00000000      10.93733369      10.93733369 </v>
     <v>      10.93733369       0.00000000      10.93733369 </v>
     <v>      10.93733369      10.93733369       0.00000000 </v>
    </varray>
    <i name="volume">   2616.76295363 </i>
    <varray name="rec_basis" >
     <v>      -0.04571498       0.04571498       0.04571498 </v>
     <v>       0.04571498      -0.04571498       0.04571498 </v>
     <v>       0.04571498       0.04571498      -0.04571498 </v>
    </varray>
   </crystal>
   <varray name="positions" >
    <v>       0.00985375       0.99604606       0.99734855 </v>
    <v>       0.24619241       0.99314113       0.00339627 </v>
    <v>       0.49943807       0.99489802       0.99900970 </v>
    <v>       0.74811102       0.99779213       0.00334900 </v>
    <v>       0.00260132       0.24512620       0.99764775 </v>
    <v>       0.25020103       0.24748378       0.00563589 </v>
    <v>       0.49933085       0.24611788       0.00020802 </v>
    <v>       0.74198638       0.25144069       0.99514881 </v>
    <v>       0.00217474       0.49013819       0.00837164 </v>
    <v>       0.25275877       0.50460207       0.00243724 </v>
    <v>       0.50224164       0.50282655       0.98766641 </v>
    <v>       0.76266084       0.48657484       0.99891362 </v>
    <v>       0.99625357       0.74729100       0.00253742 </v>
    <v>       0.25956775       0.75297766       0.99553217 </v>
    <v>       0.49416864       0.75165558       0.00638271 </v>
    <v>       0.75291099       0.74919548       0.99951070 </v>
    <v>       0.00584016       0.99842249       0.24306749 </v>
    <v>       0.25868296       0.99456758       0.24954481 </v>
    <v>       0.49246664       0.99955888       0.23900838 </v>
    <v>       0.74043424       0.00580174       0.24672625 </v>
    <v>       0.99388648       0.24598344       0.26253188 </v>
    <v>       0.24463712       0.24186049       0.25622218 </v>
    <v>       0.51133729       0.24927324       0.24867357 </v>
    <v>       0.74969929       0.24429284       0.25130028 </v>
    <v>       0.01021671       0.49416120       0.24297921 </v>
    <v>       0.24108817       0.49440507       0.26053396 </v>
    <v>       0.49892437       0.50280593       0.24274276 </v>
    <v>       0.75747780       0.49282944       0.25391758 </v>
    <v>       0.99345572       0.75550593       0.24894911 </v>
    <v>       0.26115025       0.75391344       0.24832495 </v>
    <v>       0.50153083       0.75110402       0.24765032 </v>
    <v>       0.74166777       0.74929181       0.24934951 </v>
    <v>       0.99304435       0.00983585       0.49271783 </v>
    <v>       0.25645075       0.99548829       0.49612182 </v>
    <v>       0.50268207       0.00602511       0.49611507 </v>
    <v>       0.75740958       0.99481236       0.50677219 </v>
    <v>       0.01226695       0.24278314       0.50265591 </v>
    <v>       0.24175399       0.25361504       0.49859409 </v>
    <v>       0.50817962       0.24658400       0.49870994 </v>
    <v>       0.74795915       0.23796395       0.50583245 </v>
    <v>       0.99371206       0.50046208       0.51099254 </v>
    <v>       0.24554733       0.48878001       0.51649337 </v>
    <v>       0.50362615       0.49144034       0.50420716 </v>
    <v>       0.74834549       0.51340846       0.48825816 </v>
    <v>       0.00562310       0.75063832       0.50177724 </v>
    <v>       0.26654800       0.75339368       0.49383700 </v>
    <v>       0.49408211       0.74955375       0.50640593 </v>
    <v>       0.74105350       0.74650749       0.50003177 </v>
    <v>       0.98906594       0.00780669       0.75477152 </v>
    <v>       0.25314315       0.99979663       0.74138661 </v>
    <v>       0.50124918       0.99170268       0.74900705 </v>
    <v>       0.74942768       0.00354934       0.74946435 </v>
    <v>       0.00032275       0.24276732       0.75139206 </v>
    <v>       0.25524370       0.24886869       0.76049235 </v>
    <v>       0.50374312       0.24845356       0.75564799 </v>
    <v>       0.75376716       0.26300466       0.74135718 </v>
    <v>       0.99503250       0.49796386       0.73915080 </v>
    <v>       0.24678985       0.49876380       0.75110617 </v>
    <v>       0.49205284       0.50539421       0.75403055 </v>
    <v>       0.75084094       0.50567020       0.75359656 </v>
    <v>       0.99351871       0.75933376       0.75766565 </v>
    <v>       0.24340205       0.74934220       0.75887037 </v>
    <v>       0.49303543       0.74620980       0.75464470 </v>
    <v>       0.76263347       0.74869127       0.74272603 </v>
    <v>       0.06464962       0.06332549       0.05808689 </v>
    <v>       0.31483105       0.06911645       0.06614723 </v>
    <v>       0.57137729       0.06000639       0.05948532 </v>
    <v>       0.80560665       0.07157787       0.05692152 </v>
    <v>       0.06386290       0.31164530       0.06664343 </v>
    <v>       0.32327233       0.31227562       0.05169864 </v>
    <v>       0.55141911       0.31401817       0.06487230 </v>
    <v>       0.81598462       0.30804535       0.07301985 </v>
    <v>       0.06856460       0.55955538       0.06069324 </v>
    <v>       0.30794820       0.55817943       0.06997058 </v>
    <v>       0.56299277       0.56398577       0.06395762 </v>
    <v>       0.81506575       0.55757379       0.06570644 </v>
    <v>       0.06966057       0.80876723       0.05712605 </v>
    <v>       0.31714253       0.80447668       0.06144804 </v>
    <v>       0.56961363       0.80859163       0.06411487 </v>
    <v>       0.79365505       0.81323204       0.07032060 </v>
    <v>       0.05977505       0.06133795       0.31008220 </v>
    <v>       0.31167181       0.06351924       0.30924953 </v>
    <v>       0.56410004       0.06383634       0.30400713 </v>
    <v>       0.80697813       0.07102808       0.32220190 </v>
    <v>       0.07099249       0.31738727       0.29916685 </v>
    <v>       0.31792222       0.31603628       0.31360897 </v>
    <v>       0.55915562       0.32618024       0.30077755 </v>
    <v>       0.81631172       0.31259065       0.31493478 </v>
    <v>       0.06218693       0.55747197       0.31207228 </v>
    <v>       0.32093142       0.54999627       0.30873482 </v>
    <v>       0.55957681       0.55071814       0.32289420 </v>
    <v>       0.81853923       0.56391338       0.30550645 </v>
    <v>       0.05992173       0.80808204       0.32074363 </v>
    <v>       0.30861233       0.82328471       0.30856116 </v>
    <v>       0.55704897       0.80828062       0.32434048 </v>
    <v>       0.81599079       0.82185942       0.31404267 </v>
    <v>       0.06864900       0.05700509       0.55227562 </v>
    <v>       0.32326745       0.05892532       0.55361147 </v>
    <v>       0.56739284       0.07013889       0.54931691 </v>
    <v>       0.81378725       0.05505433       0.56925420 </v>
    <v>       0.06452368       0.29813151       0.56826753 </v>
    <v>       0.31195137       0.29915048       0.56818606 </v>
    <v>       0.56124763       0.30828488       0.56430467 </v>
    <v>       0.81604321       0.31833269       0.56810252 </v>
    <v>       0.06647253       0.56686685       0.54925647 </v>
    <v>       0.31389588       0.56016300       0.55521694 </v>
    <v>       0.55822774       0.56190414       0.56312942 </v>
    <v>       0.81975821       0.54634646       0.56061611 </v>
    <v>       0.06722586       0.80959971       0.55531022 </v>
    <v>       0.31412433       0.82096287       0.56028119 </v>
    <v>       0.56383328       0.80679827       0.56960448 </v>
    <v>       0.81160142       0.81365996       0.56157884 </v>
    <v>       0.06701057       0.06392156       0.81180769 </v>
    <v>       0.30618547       0.05854748       0.81026882 </v>
    <v>       0.55346648       0.06467911       0.82393521 </v>
    <v>       0.81041147       0.07043059       0.82606657 </v>
    <v>       0.05149098       0.31020221       0.81851199 </v>
    <v>       0.32286611       0.30598552       0.81176189 </v>
    <v>       0.55761768       0.31829149       0.81900158 </v>
    <v>       0.81241583       0.31315244       0.81008124 </v>
    <v>       0.06364188       0.55588676       0.82262532 </v>
    <v>       0.30905667       0.56001665       0.81262017 </v>
    <v>       0.56031275       0.56635855       0.81056547 </v>
    <v>       0.81717963       0.56096069       0.81024199 </v>
    <v>       0.06661514       0.80539331       0.81739918 </v>
    <v>       0.30873304       0.81451434       0.80555673 </v>
    <v>       0.55921091       0.81747749       0.81235814 </v>
    <v>       0.81027122       0.81184565       0.81247529 </v>
   </varray>
  </structure>
  <varray name="forces" >
   <v>       0.44761927      -1.04121512      -0.94539938 </v>
   <v>      -0.18068632       0.58084855       1.43655703 </v>
   <v>       1.28743787       1.40828688       0.10748845 </v>
   <v>       0.09329495       1.03338176       0.20553290 </v>
   <v>       1.49262146       0.49041509       0.22811224 </v>
   <v>       0.05698054      -0.96319823       1.07712707 </v>
   <v>      -0.28977117       1.01657047       0.40721824 </v>
   <v>       1.26647046       0.42803957       0.76840795 </v>
   <v>       0.54783815      -0.59148257       0.86338751 </v>
   <v>      -1.60308531      -0.68388528      -0.79280680 </v>
   <v>       1.80737426       1.34289423      -1.26806657 </v>
   <v>       1.70121618      -1.03178081       0.39245992 </v>
   <v>       0.52791555      -0.02844194      -0.31933740 </v>
   <v>      -1.21783363      -0.95952484      -1.95428314 </v>
   <v>      -1.14902464       0.66635359       1.41003719 </v>
   <v>      -1.26161545      -0.51080782      -0.85487908 </v>
   <v>       0.80545868      -0.35298397      -1.06078035 </v>
   <v>       1.84583580      -2.12802582       0.35167578 </v>
   <v>       0.68247904       1.99881673       0.60668000 </v>
   <v>      -0.06187405       1.44935717       1.72213452 </v>
   <v>      -1.30956795       0.00822828       1.37140859 </v>
   <v>      -0.43399283       0.35548627       3.18737396 </v>
   <v>      -0.08448441      -1.21389518      -1.15655989 </v>
   <v>       2.39264603      -0.31096841       1.06064988 </v>
   <v>       1.28200543      -0.73752935       0.26705648 </v>
   <v>      -0.48656146      -0.28205476       1.54465808 </v>
   <v>       0.69936777       0.70768447       0.53145505 </v>
   <v>       0.65272525      -1.27672128      -0.32708303 </v>
   <v>      -1.26404067       1.38938955       0.67242585 </v>
   <v>      -1.02632211      -0.95531345      -2.54221729 </v>
   <v>       0.34109835       0.77061931      -0.98534128 </v>
   <v>       1.20980956       1.44163377       0.67561343 </v>
   <v>      -1.35795452       1.29089049      -0.57970810 </v>
   <v>       0.86347485      -0.87397510       0.93081964 </v>
   <v>      -1.66265112       0.31013447      -0.10054829 </v>
   <v>       0.03100096      -1.39376437      -0.46056954 </v>
   <v>      -1.01772761      -2.45157589      -0.75630839 </v>
   <v>      -1.04832067       1.48694458       0.44893865 </v>
   <v>       0.48699476      -2.35098393       0.09528619 </v>
   <v>       0.99378937       0.12554324       1.58578462 </v>
   <v>      -2.97086073       0.03355891       0.30638668 </v>
   <v>      -2.15713809      -0.80687947       0.70818866 </v>
   <v>       0.38952663      -0.52146626      -0.57370474 </v>
   <v>      -0.61345372       0.56018083      -1.56129949 </v>
   <v>      -0.34897086      -1.34402765      -1.49827026 </v>
   <v>      -0.22695017      -1.06305661      -1.79412658 </v>
   <v>      -0.00307659       0.83396913       0.39047483 </v>
   <v>      -0.73141376       1.90426386       1.22616370 </v>
   <v>      -1.74958605       1.25236747       0.82296030 </v>
   <v>      -0.13588003      -0.54730524      -0.14162935 </v>
   <v>       1.77438035      -1.58019201       1.64258819 </v>
   <v>       1.36818533       1.05583767      -0.72022859 </v>
   <v>       0.76189755      -0.03831014       0.29735731 </v>
   <v>      -1.45422168      -1.95321354      -1.80108018 </v>
   <v>      -0.40482083      -0.21979688       0.43113095 </v>
   <v>       0.95676302       0.49645980      -2.54520308 </v>
   <v>       0.29226445       1.72052430       1.20159985 </v>
   <v>      -0.86456552       0.07372155       0.23047028 </v>
   <v>      -0.76696104       0.09182451       0.29323880 </v>
   <v>      -1.44319005      -1.05604766      -1.01326149 </v>
   <v>      -2.41435493      -0.10392323      -0.42250473 </v>
   <v>      -2.02101663      -0.38150303       0.40279544 </v>
   <v>       0.67751531       0.14653540       1.24203535 </v>
   <v>       0.80382547      -0.61006116      -1.61378033 </v>
   <v>      -0.04675195       0.36873956      -0.49955295 </v>
   <v>      -1.64878587      -0.27947430      -1.46904949 </v>
   <v>      -0.09687935      -1.80051063      -1.11241004 </v>
   <v>      -0.84437164       1.74147896      -0.07736159 </v>
   <v>      -0.63282756       0.44332479      -1.46832489 </v>
   <v>       1.95454908      -0.28490267      -1.51168071 </v>
   <v>      -0.31286828       0.15350198       1.01378752 </v>
   <v>      -2.11167947      -0.89117169      -0.65950605 </v>
   <v>      -0.02972081      -0.52974161      -0.10332364 </v>
   <v>       0.59325356       0.62726650       1.73170915 </v>
   <v>      -1.71896315      -0.68778771       0.66935646 </v>
   <v>      -0.04739740      -0.13156556       0.01730701 </v>
   <v>       0.57652374       0.12840603      -0.17880025 </v>
   <v>       2.19345904       0.18841246       0.40662872 </v>
   <v>      -0.05783572      -0.81587333      -0.53199762 </v>
   <v>      -0.57999427       1.03192024       1.99244435 </v>
   <v>      -0.43341362       0.49742452       0.82840621 </v>
   <v>      -0.03684059       0.53453759      -0.72155887 </v>
   <v>       0.55779276      -0.73498743      -1.62204167 </v>
   <v>      -2.70610284       0.60089306      -0.96546790 </v>
   <v>       0.87025103       0.66376555      -2.52539712 </v>
   <v>      -1.37547065      -0.01972720      -1.30745201 </v>
   <v>      -0.21707913       2.54327507      -0.42718786 </v>
   <v>      -0.10930731      -0.40031355      -1.89335736 </v>
   <v>       1.77040786      -0.36034708      -0.52389355 </v>
   <v>       2.58690712      -0.29697950      -0.34822199 </v>
   <v>      -0.41761289      -0.74389027       1.67955414 </v>
   <v>      -0.28245282       0.08238885       0.25630636 </v>
   <v>      -1.08667891      -0.41023720       1.37891134 </v>
   <v>      -1.28257143       2.37741536      -0.24532532 </v>
   <v>      -0.53785666      -1.16866847       0.41863548 </v>
   <v>      -0.31892676      -1.58721293      -1.84417476 </v>
   <v>       1.42300330       0.76360505      -0.29492307 </v>
   <v>       1.22844928      -0.99117614      -0.40882010 </v>
   <v>      -0.09784791       2.09285094      -1.05385021 </v>
   <v>       0.52905759      -0.25227167       0.37090779 </v>
   <v>       2.12807953      -0.19169760       1.33013074 </v>
   <v>       0.72335227       0.73627129       0.56010829 </v>
   <v>       0.33521377       1.14747770       0.08590395 </v>
   <v>      -2.39993443      -1.88475464       0.61205887 </v>
   <v>       1.11798638       0.75425245      -0.45801440 </v>
   <v>       1.35630033       1.04154541       0.63945543 </v>
   <v>       0.34241671       0.49725610       0.31112453 </v>
   <v>       2.90166104      -0.70160389       0.19434070 </v>
   <v>       2.10909379       1.72124054       1.52610661 </v>
   <v>       0.03868412       1.23929338      -1.76441777 </v>
   <v>       0.73714168      -1.45935367      -0.10275737 </v>
   <v>      -1.40157545       0.04640880      -0.27538576 </v>
   <v>      -0.93342302      -0.09420958      -0.93829130 </v>
   <v>       0.70686223       1.37435875       0.95538836 </v>
   <v>      -2.42378758      -0.85820353       0.76407893 </v>
   <v>      -1.21737402      -2.33224804      -0.10707390 </v>
   <v>      -0.99558083       0.06563775       1.68853061 </v>
   <v>       1.84461263       0.17682333       0.11695681 </v>
   <v>      -1.03442548      -0.05704662       0.92561442 </v>
   <v>       0.99237866       0.39809217       0.85286179 </v>
   <v>      -0.05412148      -1.86341252      -0.15553283 </v>
   <v>       0.86000211       0.06639293       0.18208116 </v>
   <v>      -1.08369278       0.02389286       0.36596474 </v>
   <v>       1.04282576       0.05326929       0.13133744 </v>
   <v>       1.98065618      -1.38997886       0.17344047 </v>
   <v>       0.98007459       1.14919569       0.35861164 </v>
   <v>      -1.59315616       1.58367284      -1.06694974 </v>
   <v>       0.90847404       0.19820922       0.76934987 </v>
  </varray>
  <varray name="stress" >
   <v>      11.77223771      -2.09483653       2.44355192 </v>
   <v>      -2.09483652      13.10345488       2.32691254 </v>
   <v>       2.44355192       2.32691254      12.57507323 </v>
  </varray>
  <energy>
   <i name="e_fr_energy">   -680.09070970 </i>
   <i name="e_wo_entrp">   -680.09070970 </i>
   <i name="e_0_energy">     -0.00000000 </i>
  </energy>
  <time name="totalsc"> 1658.53 1659.92</time>
  <eigenvalues>
   <array>
    <dimension dim="1">band</dimension>
    <dimension dim="2">kpoint</dimension>
    <dimension dim="3">spin</dimension>
    <field>eigene</field>
    <field>occ</field>
    <set>
     <set comment="spin 1">
      <set comment="kpoint 1">
       <r>   -6.2819    1.0000 </r>
       <r>   -5.6268    1.0000 </r>
       <r>   -5.5936    1.0000 </r>
       <r>   -5.5742    1.0000 </r>
       <r>   -5.5140    1.0000 </r>
       <r>   -5.4982    1.0000 </r>
       <r>   -5.4846    1.0000 </r>
       <r>   -5.4721    1.0000 </r>
       <r>   -5.4017    1.0000 </r>
       <r>   -5.3271    1.0000 </r>
       <r>   -5.2513    1.0000 </r>
       <r>   -5.2208    1.0000 </r>
       <r>   -5.1338    1.0000 </r>
       <r>   -5.1280    1.0000 </r>
       <r>   -5.1197    1.0000 </r>
       <r>   -4.4747    1.0000 </r>
       <r>   -4.4387    1.0000 </r>
       <r>   -4.3983    1.0000 </r>
       <r>   -4.3917    1.0000 </r>
       <r>   -4.3512    1.0000 </r>
       <r>   -4.3213    1.0000 </r>
       <r>   -4.3019    1.0000 </r>
       <r>   -4.2774    1.0000 </r>
       <r>   -4.2426    1.0000 </r>
       <r>   -4.2220    1.0000 </r>
       <r>   -4.1956    1.0000 </r>
       <r>   -4.1301    1.0000 </r>
       <r>   -4.0632    1.0000 </r>
       <r>   -4.0190    1.0000 </r>
       <r>   -4.0008    1.0000 </r>
       <r>   -3.9627    1.0000 </r>
       <r>   -3.8568    1.0000 </r>
       <r>   -3.8414    1.0000 </r>
       <r>   -3.7807    1.0000 </r>
       <r>   -3.7349    1.0000 </r>
       <r>   -3.7207    1.0000 </r>
       <r>   -3.7150    1.0000 </r>
       <r>   -3.6946    1.0000 </r>
       <r>   -3.6722    1.0000 </r>
       <r>   -3.6332    1.0000 </r>
       <r>   -3.5944    1.0000 </r>
       <r>   -3.5666    1.0000 </r>
       <r>   -3.5655    1.0000 </r>
       <r>   -3.5513    1.0000 </r>
       <r>   -3.5354    1.0000 </r>
       <r>   -3.4868    1.0000 </r>
       <r>   -3.4785    1.0000 </r>
       <r>   -3.4449    1.0000 </r>
       <r>   -3.4274    1.0000 </r>
       <r>   -3.4084    1.0000 </r>
       <r>   -3.3980    1.0000 </r>
       <r>   -3.3708    1.0000 </r>
       <r>   -3.3612    1.0000 </r>
       <r>   -3.2998    1.0000 </r>
       <r>   -3.2147    1.0000 </r>
       <r>   -2.3547    1.0000 </r>
       <r>   -2.2843    1.0000 </r>
       <r>   -2.2725    1.0000 </r>
       <r>   -2.2427    1.0000 </r>
       <r>   -2.1882    1.0000 </r>
       <r>   -2.1617    1.0000 </r>
       <r>   -2.1424    1.0000 </r>
       <r>   -2.1078    1.0000 </r>
       <r>   -2.0768    1.0000 </r>
       <r>   -2.0483    1.0000 </r>
       <r>   -2.0408    1.0000 </r>
       <r>   -1.9894    1.0000 </r>
       <r>   -1.9836    1.0000 </r>
       <r>   -1.9369    1.0000 </r>
       <r>   -1.8969    1.0000 </r>
       <r>   -1.8901    1.0000 </r>
       <r>   -1.8221    1.0000 </r>
       <r>   -1.7610    1.0000 </r>
       <r>   -1.3816    1.0000 </r>
       <r>   -1.3419    1.0000 </r>
       <r>   -1.3001    1.0000 </r>
       <r>   -1.2509    1.0000 </r>
       <r>   -1.0023    1.0000 </r>
       <r>   -0.9620    1.0000 </r>
       <r>   -0.9339    1.0000 </r>
       <r>   -0.9079    1.0000 </r>
       <r>   -0.8890    1.0000 </r>
       <r>   -0.8555    1.0000 </r>
       <r>   -0.8308    1.0000 </r>
       <r>   -0.8257    1.0000 </r>
       <r>   -0.7786    1.0000 </r>
       <r>   -0.7707    1.0000 </r>
       <r>   -0.7436    1.0000 </r>
       <r>   -0.7000    1.0000 </r>
       <r>   -0.6847    1.0000 </r>
       <r>   -0.6588    1.0000 </r>
       <r>   -0.6520    1.0000 </r>
       <r>   -0.6305    1.0000 </r>
       <r>   -0.6072    1.0000 </r>
       <r>   -0.5863    1.0000 </r>
       <r>   -0.5692    1.0000 </r>
       <r>   -0.5633    1.0000 </r>
       <r>   -0.5565    1.0000 </r>
       <r>   -0.5133    1.0000 </r>
       <r>   -0.4599    1.0000 </r>
       <r>   -0.4392    1.0000 </r>
       <r>    0.0290    1.0000 </r>
       <r>    0.0562    1.0000 </r>
       <r>    0.0758    1.0000 </r>
       <r>    0.1020    1.0000 </r>
       <r>    0.1185    1.0000 </r>
       <r>    0.1490    1.0000 </r>
       <r>    0.1934    1.0000 </r>
       <r>    0.2143    1.0000 </r>
       <r>    0.2901    1.0000 </r>
       <r>    0.3227    1.0000 </r>
       <r>    0.3457    1.0000 </r>
       <r>    0.3774    1.0000 </r>
       <r>    1.4721    1.0000 </r>
       <r>    1.5263    1.0000 </r>
       <r>    1.5278    1.0000 </r>
       <r>    1.5416    1.0000 </r>
       <r>    1.5767    1.0000 </r>
       <r>    1.5913    1.0000 </r>
       <r>    1.6114    1.0000 </r>
       <r>    1.6373    1.0000 </r>
       <r>    1.6583    1.0000 </r>
       <r>    1.7007    1.0000 </r>
       <r>    1.7058    1.0000 </r>
       <r>    1.7192    1.0000 </r>
       <r>    1.7406    1.0000 </r>
       <r>    1.7499    1.0000 </r>
       <r>    1.7619    1.0000 </r>
       <r>    1.7715    1.0000 </r>
       <r>    1.7773    1.0000 </r>
       <r>    1.7936    1.0000 </r>
       <r>    1.8070    1.0000 </r>
       <r>    1.8215    1.0000 </r>
       <r>    1.8292    1.0000 </r>
       <r>    1.8446    1.0000 </r>
       <r>    1.8569    1.0000 </r>
       <r>    1.8686    1.0000 </r>
       <r>    1.8784    1.0000 </r>
       <r>    1.8929    1.0000 </r>
       <r>    1.8982    1.0000 </r>
       <r>    1.9200    1.0000 </r>
       <r>    1.9295    1.0000 </r>
       <r>    1.9459    1.0000 </r>
       <r>    1.9563    1.0000 </r>
       <r>    1.9665    1.0000 </r>
       <r>    1.9901    1.0000 </r>
       <r>    2.0144    1.0000 </r>
       <r>    2.0243    1.0000 </r>
       <r>    2.0313    1.0000 </r>
       <r>    2.0388    1.0000 </r>
       <r>    2.0642    1.0000 </r>
       <r>    2.0775    1.0000 </r>
       <r>    2.0927    1.0000 </r>
       <r>    2.1035    1.0000 </r>
       <r>    2.1064    1.0000 </r>
       <r>    2.1324    1.0000 </r>
       <r>    2.1481    1.0000 </r>
       <r>    2.1535    1.0000 </r>
       <r>    2.1709    1.0000 </r>
       <r>    2.1861    1.0000 </r>
       <r>    2.1983    1.0000 </r>
       <r>    2.2072    1.0000 </r>
       <r>    2.2189    1.0000 </r>
       <r>    2.2314    1.0000 </r>
       <r>    2.2533    1.0000 </r>
       <r>    2.2600    1.0000 </r>
       <r>    2.2783    1.0000 </r>
       <r>    2.2960    1.0000 </r>
       <r>    2.3184    1.0000 </r>
       <r>    2.3486    1.0000 </r>
       <r>    2.3669    1.0000 </r>
       <r>    2.4055    1.0000 </r>
       <r>    2.4225    1.0000 </r>
       <r>    2.4375    1.0000 </r>
       <r>    2.4671    1.0000 </r>
       <r>    2.7808    1.0000 </r>
       <r>    2.7996    1.0000 </r>
       <r>    2.8140    1.0000 </r>
       <r>    2.8357    1.0000 </r>
       <r>    2.8560    1.0000 </r>
       <r>    2.8783    1.0000 </r>
       <r>    3.2375    1.0000 </r>
       <r>    3.2560    1.0000 </r>
       <r>    3.2854    1.0000 </r>
       <r>    3.3042    1.0000 </r>
       <r>    3.3203    1.0000 </r>
       <r>    3.3277    1.0000 </r>
       <r>    3.3540    1.0000 </r>
       <r>    3.3613    1.0000 </r>
       <r>    3.3652    1.0000 </r>
       <r>    3.3917    1.0000 </r>
       <r>    3.4037    1.0000 </r>
       <r>    3.4149    1.0000 </r>
       <r>    3.4280    1.0000 </r>
       <r>    3.4460    1.0000 </r>
       <r>    3.4572    1.0000 </r>
       <r>    3.4775    1.0000 </r>
       <r>    3.5000    1.0000 </r>
       <r>    3.5104    1.0000 </r>
       <r>    3.5173    1.0000 </r>
       <r>    3.5391    1.0000 </r>
       <r>    3.5593    1.0000 </r>
       <r>    3.5836    1.0000 </r>
       <r>    3.5884    1.0000 </r>
       <r>    3.6011    1.0000 </r>
       <r>    3.6889    1.0000 </r>
       <r>    3.7106    1.0000 </r>
       <r>    3.7284    1.0000 </r>
       <r>    3.7402    1.0000 </r>
       <r>    3.7649    1.0000 </r>
       <r>    3.7854    1.0000 </r>
       <r>    3.8188    1.0000 </r>
       <r>    3.8496    1.0000 </r>
       <r>    3.8793    1.0000 </r>
       <r>    3.9213    1.0000 </r>
       <r>    3.9315    1.0000 </r>
       <r>    3.9751    1.0000 </r>
       <r>    4.1422    1.0000 </r>
       <r>    4.1567    1.0000 </r>
       <r>    4.2083    1.0000 </r>
       <r>    4.2179    1.0000 </r>
       <r>    4.2573    1.0000 </r>
       <r>    4.2876    1.0000 </r>
       <r>    4.3007    1.0000 </r>
       <r>    4.3186    1.0000 </r>
       <r>    4.3327    1.0000 </r>
       <r>    4.3561    1.0000 </r>
       <r>    4.3768    1.0000 </r>
       <r>    4.3882    1.0000 </r>
       <r>    4.4204    1.0000 </r>
       <r>    4.4327    1.0000 </r>
       <r>    4.4667    1.0000 </r>
       <r>    4.4837    1.0000 </r>
       <r>    4.5283    1.0000 </r>
       <r>    4.5823    1.0000 </r>
       <r>    4.6214    1.0000 </r>
       <r>    4.6529    1.0000 </r>
       <r>    4.7661    1.0000 </r>
       <r>    4.8176    1.0000 </r>
       <r>    4.8292    1.0000 </r>
       <r>    4.8365    1.0000 </r>
       <r>    4.8984    1.0000 </r>
       <r>    4.9243    1.0000 </r>
       <r>    4.9359    1.0000 </r>
       <r>    4.9625    1.0000 </r>
       <r>    4.9902    1.0000 </r>
       <r>    5.0066    1.0000 </r>
       <r>    5.0522    1.0000 </r>
       <r>    5.0972    1.0000 </r>
       <r>    5.1109    1.0000 </r>
       <r>    5.1651    1.0000 </r>
       <r>    5.1879    1.0000 </r>
       <r>    5.2139    1.0000 </r>
       <r>    5.6902    1.0000 </r>
       <r>    5.7586    1.0000 </r>
       <r>    5.7981    1.0000 </r>
       <r>    6.1746    0.0000 </r>
       <r>    6.2070    0.0000 </r>
       <r>    6.2660    0.0000 </r>
       <r>    6.2730    0.0000 </r>
       <r>    6.3228    0.0000 </r>
       <r>    6.3273    0.0000 </r>
       <r>    6.4873    0.0000 </r>
       <r>    6.5999    0.0000 </r>
       <r>    6.6379    0.0000 </r>
       <r>    6.6497    0.0000 </r>
       <r>    6.6628    0.0000 </r>
       <r>    6.7335    0.0000 </r>
       <r>    6.8236    0.0000 </r>
       <r>    6.8798    0.0000 </r>
       <r>    6.8878    0.0000 </r>
       <r>    6.8971    0.0000 </r>
       <r>    6.9271    0.0000 </r>
       <r>    6.9415    0.0000 </r>
       <r>    6.9587    0.0000 </r>
       <r>    6.9662    0.0000 </r>
       <r>    6.9791    0.0000 </r>
       <r>    6.9961    0.0000 </r>
       <r>    7.0128    0.0000 </r>
       <r>    7.0336    0.0000 </r>
       <r>    7.0400    0.0000 </r>
       <r>    7.0500    0.0000 </r>
       <r>    7.0791    0.0000 </r>
       <r>    7.0933    0.0000 </r>
       <r>    7.0994    0.0000 </r>
       <r>    7.1258    0.0000 </r>
       <r>    7.1565    0.0000 </r>
       <r>    7.1712    0.0000 </r>
       <r>    7.1790    0.0000 </r>
       <r>    7.1975    0.0000 </r>
       <r>    7.2260    0.0000 </r>
       <r>    7.2369    0.0000 </r>
       <r>    7.2487    0.0000 </r>
       <r>    7.2574    0.0000 </r>
       <r>    7.2994    0.0000 </r>
       <r>    7.3190    0.0000 </r>
       <r>    7.4274    0.0000 </r>
       <r>    7.4666    0.0000 </r>
       <r>    7.4927    0.0000 </r>
       <r>    7.5241    0.0000 </r>
       <r>    7.5438    0.0000 </r>
       <r>    7.5623    0.0000 </r>
       <r>    7.5767    0.0000 </r>
       <r>    7.5831    0.0000 </r>
       <r>    7.8310    0.0000 </r>
       <r>    7.9042    0.0000 </r>
       <r>    7.9124    0.0000 </r>
       <r>    7.9244    0.0000 </r>
       <r>    7.9429    0.0000 </r>
       <r>    7.9611    0.0000 </r>
       <r>    7.9812    0.0000 </r>
       <r>    8.0039    0.0000 </r>
       <r>    8.0324    0.0000 </r>
       <r>    8.0476    0.0000 </r>
       <r>    8.0702    0.0000 </r>
       <r>    8.1465    0.0000 </r>
       <r>    8.1584    0.0000 </r>
       <r>    8.2069    0.0000 </r>
       <r>    8.2352    0.0000 </r>
       <r>    8.5055    0.0000 </r>
       <r>    8.6066    0.0000 </r>
       <r>    8.6263    0.0000 </r>
      </set>
      <set comment="kpoint 2">
       <r>   -6.1200    1.0000 </r>
       <r>   -6.0515    1.0000 </r>
       <r>   -5.6623    1.0000 </r>
       <r>   -5.6296    1.0000 </r>
       <r>   -5.6186    1.0000 </r>
       <r>   -5.5044    1.0000 </r>
       <r>   -5.4871    1.0000 </r>
       <r>   -5.4715    1.0000 </r>
       <r>   -5.2179    1.0000 </r>
       <r>   -5.1162    1.0000 </r>
       <r>   -5.0839    1.0000 </r>
       <r>   -5.0451    1.0000 </r>
       <r>   -5.0300    1.0000 </r>
       <r>   -4.9142    1.0000 </r>
       <r>   -4.7492    1.0000 </r>
[...]
       <r>    -3.0916    57.9654   101.6992 </r>
       <r>    -3.0369    48.2081   104.3344 </r>
       <r>    -2.9822    55.5406   107.3705 </r>
       <r>    -2.9276    34.8547   109.2758 </r>
       <r>    -2.8729    26.7092   110.7359 </r>
       <r>    -2.8183    33.5851   112.5718 </r>
       <r>    -2.7636    29.2354   114.1699 </r>
       <r>    -2.7089    26.2038   115.6023 </r>
       <r>    -2.6543    49.0982   118.2861 </r>
       <r>    -2.5996    29.0076   119.8718 </r>
       <r>    -2.5449    34.2456   121.7438 </r>
       <r>    -2.4903     9.2640   122.2502 </r>
       <r>    -2.4356     9.1298   122.7493 </r>
       <r>    -2.3809     0.0134   122.7500 </r>
       <r>    -2.3263     4.5728   123.0000 </r>
       <r>    -2.2716     6.9221   123.3784 </r>
       <r>    -2.2170    14.0861   124.1484 </r>
       <r>    -2.1623    33.6361   125.9871 </r>
       <r>    -2.1076    25.8127   127.3981 </r>
       <r>    -2.0530    28.4421   128.9529 </r>
       <r>    -1.9983    29.4564   130.5631 </r>
       <r>    -1.9436    22.1461   131.7737 </r>
       <r>    -1.8890    15.2572   132.6077 </r>
       <r>    -1.8343     2.7978   132.7606 </r>
       <r>    -1.7796     4.3977   133.0010 </r>
       <r>    -1.7250     4.5945   133.2522 </r>
       <r>    -1.6703    10.5740   133.8302 </r>
       <r>    -1.6157    12.6957   134.5242 </r>
       <r>    -1.5610    33.2043   136.3393 </r>
       <r>    -1.5063    28.3970   137.8916 </r>
       <r>    -1.4517    42.9692   140.2404 </r>
       <r>    -1.3970    36.7270   142.2481 </r>
       <r>    -1.3423    53.2817   145.1607 </r>
       <r>    -1.2877    57.0082   148.2769 </r>
       <r>    -1.2330    64.5413   151.8050 </r>
       <r>    -1.1783    59.7205   155.0696 </r>
       <r>    -1.1237    69.6931   158.8792 </r>
       <r>    -1.0690    49.8364   161.6035 </r>
       <r>    -1.0144    52.4965   164.4731 </r>
       <r>    -0.9597    71.2448   168.3676 </r>
       <r>    -0.9050    69.1799   172.1493 </r>
       <r>    -0.8504    76.4486   176.3283 </r>
       <r>    -0.7957    53.4482   179.2500 </r>
       <r>    -0.7410    42.8463   181.5921 </r>
       <r>    -0.6864    45.6885   184.0896 </r>
       <r>    -0.6317    41.5464   186.3607 </r>
       <r>    -0.5770    48.1366   188.9920 </r>
       <r>    -0.5224    28.0453   190.5251 </r>
       <r>    -0.4677     5.2112   190.8100 </r>
       <r>    -0.4131    20.3498   191.9224 </r>
       <r>    -0.3584    41.2222   194.1757 </r>
       <r>    -0.3037    52.8186   197.0630 </r>
       <r>    -0.2491    49.1804   199.7514 </r>
       <r>    -0.1944    55.9369   202.8091 </r>
       <r>    -0.1397    43.1469   205.1677 </r>
       <r>    -0.0851    42.2688   207.4783 </r>
       <r>    -0.0304    47.5097   210.0753 </r>
       <r>     0.0243    25.8537   211.4886 </r>
       <r>     0.0789    34.0463   213.3497 </r>
       <r>     0.1336    11.8874   213.9995 </r>
       <r>     0.1882     5.6562   214.3087 </r>
       <r>     0.2429     8.0728   214.7500 </r>
       <r>     0.2976    20.7139   215.8823 </r>
       <r>     0.3522    21.7139   217.0693 </r>
       <r>     0.4069    34.6054   218.9609 </r>
       <r>     0.4616    28.0813   220.4960 </r>
       <r>     0.5162    18.8888   221.5285 </r>
       <r>     0.5709    23.0376   222.7878 </r>
       <r>     0.6256    17.7763   223.7595 </r>
       <r>     0.6802    28.6371   225.3249 </r>
       <r>     0.7349    19.0549   226.3666 </r>
       <r>     0.7895    11.7583   227.0093 </r>
       <r>     0.8442    13.5219   227.7485 </r>
       <r>     0.8989     0.7187   227.7878 </r>
       <r>     0.9535    21.0703   228.9395 </r>
       <r>     1.0082    32.6520   230.7244 </r>
       <r>     1.0629    18.7810   231.7511 </r>
       <r>     1.1175    23.8279   233.0536 </r>
       <r>     1.1722    26.8782   234.5228 </r>
       <r>     1.2269    24.1569   235.8434 </r>
       <r>     1.2815    26.6599   237.3007 </r>
       <r>     1.3362    39.7055   239.4712 </r>
       <r>     1.3908    27.8461   240.9934 </r>
       <r>     1.4455    32.9639   242.7953 </r>
       <r>     1.5002    87.4749   247.5770 </r>
       <r>     1.5548    98.0584   252.9373 </r>
       <r>     1.6095    90.0600   257.8603 </r>
       <r>     1.6642    72.2993   261.8125 </r>
       <r>     1.7188    66.3375   265.4388 </r>
       <r>     1.7735    66.4403   269.0707 </r>
       <r>     1.8282    45.7242   271.5701 </r>
       <r>     1.8828    25.2535   272.9506 </r>
       <r>     1.9375    19.1239   273.9960 </r>
       <r>     1.9921    16.5970   274.9032 </r>
       <r>     2.0468    31.5618   276.6285 </r>
       <r>     2.1015    71.1898   280.5200 </r>
       <r>     2.1561   104.2000   286.2160 </r>
       <r>     2.2108   117.2413   292.6249 </r>
       <r>     2.2655   131.3327   299.8040 </r>
       <r>     2.3201   122.0164   306.4739 </r>
       <r>     2.3748   129.7501   313.5666 </r>
       <r>     2.4295    92.9858   318.6496 </r>
       <r>     2.4841    58.5515   321.8502 </r>
       <r>     2.5388    35.3331   323.7816 </r>
       <r>     2.5934    18.7140   324.8046 </r>
       <r>     2.6481    42.4183   327.1234 </r>
       <r>     2.7028    72.9959   331.1136 </r>
       <r>     2.7574    90.9144   336.0833 </r>
       <r>     2.8121    98.1959   341.4511 </r>
       <r>     2.8668    85.9352   346.1487 </r>
       <r>     2.9214    90.5392   351.0979 </r>
       <r>     2.9761   104.5694   356.8141 </r>
       <r>     3.0308   117.7169   363.2489 </r>
       <r>     3.0854    89.6721   368.1507 </r>
       <r>     3.1401    71.1567   372.0405 </r>
       <r>     3.1947    56.8160   375.1462 </r>
       <r>     3.2494    90.3347   380.0843 </r>
       <r>     3.3041   105.3583   385.8436 </r>
       <r>     3.3587   108.8271   391.7925 </r>
       <r>     3.4134    84.0037   396.3844 </r>
       <r>     3.4681    77.5570   400.6240 </r>
       <r>     3.5227    96.4236   405.8949 </r>
       <r>     3.5774    79.8885   410.2619 </r>
       <r>     3.6321    73.5786   414.2840 </r>
       <r>     3.6867    60.8292   417.6091 </r>
       <r>     3.7414    90.1205   422.5354 </r>
       <r>     3.7960    90.4648   427.4806 </r>
       <r>     3.8507    92.1128   432.5158 </r>
       <r>     3.9054    71.0224   436.3982 </r>
       <r>     3.9600    79.4173   440.7395 </r>
       <r>     4.0147    68.0546   444.4597 </r>
       <r>     4.0694    54.4830   447.4379 </r>
       <r>     4.1240    73.0753   451.4325 </r>
       <r>     4.1787    62.2188   454.8336 </r>
       <r>     4.2334    71.3536   458.7341 </r>
       <r>     4.2880    75.3686   462.8540 </r>
       <r>     4.3427    82.2770   467.3516 </r>
       <r>     4.3973    76.0011   471.5061 </r>
       <r>     4.4520    61.6898   474.8783 </r>
       <r>     4.5067    74.7573   478.9648 </r>
       <r>     4.5613    60.5808   482.2764 </r>
       <r>     4.6160    52.9690   485.1720 </r>
       <r>     4.6707    52.9107   488.0643 </r>
       <r>     4.7253    30.1648   489.7132 </r>
       <r>     4.7800    29.7981   491.3421 </r>
       <r>     4.8347    16.8354   492.2624 </r>
       <r>     4.8893    41.3787   494.5243 </r>
       <r>     4.9440    50.5887   497.2896 </r>
       <r>     4.9986    50.3052   500.0395 </r>
       <r>     5.0533    29.3526   501.6440 </r>
       <r>     5.1080    24.5948   502.9885 </r>
       <r>     5.1626    11.0275   503.5913 </r>
       <r>     5.2173    10.6049   504.1710 </r>
       <r>     5.2720     1.4458   504.2500 </r>
       <r>     5.3266     5.2365   504.5362 </r>
       <r>     5.3813    27.3774   506.0328 </r>
       <r>     5.4360    22.0041   507.2356 </r>
       <r>     5.4906    26.3024   508.6734 </r>
       <r>     5.5453    21.8673   509.8687 </r>
       <r>     5.5999    21.6288   511.0511 </r>
       <r>     5.6546     3.6390   511.2500 </r>
       <r>     5.7093     4.5577   511.4991 </r>
       <r>     5.7639     3.5643   511.6940 </r>
       <r>     5.8186     5.5898   511.9995 </r>
       <r>     5.8733     0.0085   512.0000 </r>
       <r>     5.9279     0.0000   512.0000 </r>
       <r>     5.9826     0.0000   512.0000 </r>
       <r>     6.0373     0.0000   512.0000 </r>
       <r>     6.0919     0.0000   512.0000 </r>
       <r>     6.1466     3.9044   512.2134 </r>
       <r>     6.2012    23.4005   513.4926 </r>
       <r>     6.2559     9.6639   514.0209 </r>
       <r>     6.3106    13.2144   514.7432 </r>
       <r>     6.3652    23.8106   516.0448 </r>
       <r>     6.4199    21.7230   517.2323 </r>
       <r>     6.4746    32.4652   519.0069 </r>
       <r>     6.5292    32.0659   520.7598 </r>
       <r>     6.5839     9.0212   521.2529 </r>
       <r>     6.6386     7.2384   521.6486 </r>
       <r>     6.6932    25.7591   523.0567 </r>
       <r>     6.7479    32.3714   524.8262 </r>
       <r>     6.8025    32.1244   526.5822 </r>
       <r>     6.8572    30.3932   528.2437 </r>
       <r>     6.9119    34.9597   530.1547 </r>
       <r>     6.9665    33.9524   532.0106 </r>
       <r>     7.0212    38.1450   534.0958 </r>
       <r>     7.0759    56.0485   537.1596 </r>
       <r>     7.1305    31.4312   538.8778 </r>
       <r>     7.1852    25.4358   540.2682 </r>
       <r>     7.2399    35.4437   542.2057 </r>
       <r>     7.2945    54.6972   545.1957 </r>
       <r>     7.3492    74.2858   549.2564 </r>
       <r>     7.4038    64.7300   552.7948 </r>
       <r>     7.4585    95.7602   558.0294 </r>
       <r>     7.5132    96.0864   563.2818 </r>
       <r>     7.5678    97.4081   568.6066 </r>
       <r>     7.6225    78.7592   572.9119 </r>
       <r>     7.6772    81.0810   577.3441 </r>
       <r>     7.7318    90.3524   582.2831 </r>
       <r>     7.7865    87.7097   587.0776 </r>
       <r>     7.8412    93.1287   592.1684 </r>
       <r>     7.8958    79.8786   596.5349 </r>
       <r>     7.9505   116.0336   602.8777 </r>
       <r>     8.0051    89.5910   607.7752 </r>
       <r>     8.0598    77.3303   612.0024 </r>
       <r>     8.1145    83.9318   616.5905 </r>
       <r>     8.1691    86.2568   621.3056 </r>
       <r>     8.2238    97.3177   626.6253 </r>
       <r>     8.2785    74.4730   630.6963 </r>
       <r>     8.3331    78.2868   634.9758 </r>
       <r>     8.3878    84.0855   639.5722 </r>
       <r>     8.4425    53.9030   642.5188 </r>
       <r>     8.4971    11.0561   643.1232 </r>
       <r>     8.5518     6.8939   643.5000 </r>
       <r>     8.6064     2.2646   643.6238 </r>
       <r>     8.6611     6.8822   644.0000 </r>
       <r>     8.7158     0.0000   644.0000 </r>
       <r>     8.7704     0.0000   644.0000 </r>
       <r>     8.8251     0.0000   644.0000 </r>
       <r>     8.8798     0.0000   644.0000 </r>
       <r>     8.9344     0.0000   644.0000 </r>
       <r>     8.9891     0.0000   644.0000 </r>
       <r>     9.0438     0.0000   644.0000 </r>
       <r>     9.0984     0.0000   644.0000 </r>
       <r>     9.1531     0.0000   644.0000 </r>
       <r>     9.2077     0.0000   644.0000 </r>
       <r>     9.2624     0.0000   644.0000 </r>
       <r>     9.3171     0.0000   644.0000 </r>
       <r>     9.3717     0.0000   644.0000 </r>
      </set>
     </set>
    </array>
   </total>
  </dos>
 </calculation>
 <structure name="finalpos" >
  <crystal>
   <varray name="basis" >
    <v>       0.00000000      10.93733369      10.93733369 </v>
    <v>      10.93733369       0.00000000      10.93733369 </v>
    <v>      10.93733369      10.93733369       0.00000000 </v>
   </varray>
   <i name="volume">   2616.76295363 </i>
   <varray name="rec_basis" >
    <v>      -0.04571498       0.04571498       0.04571498 </v>
    <v>       0.04571498      -0.04571498       0.04571498 </v>
    <v>       0.04571498       0.04571498      -0.04571498 </v>
   </varray>
  </crystal>
  <varray name="positions" >
   <v>       0.00985375       0.99604606       0.99734855 </v>
   <v>       0.24619241       0.99314113       0.00339627 </v>
   <v>       0.49943807       0.99489802       0.99900970 </v>
   <v>       0.74811102       0.99779213       0.00334900 </v>
   <v>       0.00260132       0.24512620       0.99764775 </v>
   <v>       0.25020103       0.24748378       0.00563589 </v>
   <v>       0.49933085       0.24611788       0.00020802 </v>
   <v>       0.74198638       0.25144069       0.99514881 </v>
   <v>       0.00217474       0.49013819       0.00837164 </v>
   <v>       0.25275877       0.50460207       0.00243724 </v>
   <v>       0.50224164       0.50282655       0.98766641 </v>
   <v>       0.76266084       0.48657484       0.99891362 </v>
   <v>       0.99625357       0.74729100       0.00253742 </v>
   <v>       0.25956775       0.75297766       0.99553217 </v>
   <v>       0.49416864       0.75165558       0.00638271 </v>
   <v>       0.75291099       0.74919548       0.99951070 </v>
   <v>       0.00584016       0.99842249       0.24306749 </v>
   <v>       0.25868296       0.99456758       0.24954481 </v>
   <v>       0.49246664       0.99955888       0.23900838 </v>
   <v>       0.74043424       0.00580174       0.24672625 </v>
   <v>       0.99388648       0.24598344       0.26253188 </v>
   <v>       0.24463712       0.24186049       0.25622218 </v>
   <v>       0.51133729       0.24927324       0.24867357 </v>
   <v>       0.74969929       0.24429284       0.25130028 </v>
   <v>       0.01021671       0.49416120       0.24297921 </v>
   <v>       0.24108817       0.49440507       0.26053396 </v>
   <v>       0.49892437       0.50280593       0.24274276 </v>
   <v>       0.75747780       0.49282944       0.25391758 </v>
   <v>       0.99345572       0.75550593       0.24894911 </v>
   <v>       0.26115025       0.75391344       0.24832495 </v>
   <v>       0.50153083       0.75110402       0.24765032 </v>
   <v>       0.74166777       0.74929181       0.24934951 </v>
   <v>       0.99304435       0.00983585       0.49271783 </v>
   <v>       0.25645075       0.99548829       0.49612182 </v>
   <v>       0.50268207       0.00602511       0.49611507 </v>
   <v>       0.75740958       0.99481236       0.50677219 </v>
   <v>       0.01226695       0.24278314       0.50265591 </v>
   <v>       0.24175399       0.25361504       0.49859409 </v>
   <v>       0.50817962       0.24658400       0.49870994 </v>
   <v>       0.74795915       0.23796395       0.50583245 </v>
   <v>       0.99371206       0.50046208       0.51099254 </v>
   <v>       0.24554733       0.48878001       0.51649337 </v>
   <v>       0.50362615       0.49144034       0.50420716 </v>
   <v>       0.74834549       0.51340846       0.48825816 </v>
   <v>       0.00562310       0.75063832       0.50177724 </v>
   <v>       0.26654800       0.75339368       0.49383700 </v>
   <v>       0.49408211       0.74955375       0.50640593 </v>
   <v>       0.74105350       0.74650749       0.50003177 </v>
   <v>       0.98906594       0.00780669       0.75477152 </v>
   <v>       0.25314315       0.99979663       0.74138661 </v>
   <v>       0.50124918       0.99170268       0.74900705 </v>
   <v>       0.74942768       0.00354934       0.74946435 </v>
   <v>       0.00032275       0.24276732       0.75139206 </v>
   <v>       0.25524370       0.24886869       0.76049235 </v>
   <v>       0.50374312       0.24845356       0.75564799 </v>
   <v>       0.75376716       0.26300466       0.74135718 </v>
   <v>       0.99503250       0.49796386       0.73915080 </v>
   <v>       0.24678985       0.49876380       0.75110617 </v>
   <v>       0.49205284       0.50539421       0.75403055 </v>
   <v>       0.75084094       0.50567020       0.75359656 </v>
   <v>       0.99351871       0.75933376       0.75766565 </v>
   <v>       0.24340205       0.74934220       0.75887037 </v>
   <v>       0.49303543       0.74620980       0.75464470 </v>
   <v>       0.76263347       0.74869127       0.74272603 </v>
   <v>       0.06464962       0.06332549       0.05808689 </v>
   <v>       0.31483105       0.06911645       0.06614723 </v>
   <v>       0.57137729       0.06000639       0.05948532 </v>
   <v>       0.80560665       0.07157787       0.05692152 </v>
   <v>       0.06386290       0.31164530       0.06664343 </v>
   <v>       0.32327233       0.31227562       0.05169864 </v>
   <v>       0.55141911       0.31401817       0.06487230 </v>
   <v>       0.81598462       0.30804535       0.07301985 </v>
   <v>       0.06856460       0.55955538       0.06069324 </v>
   <v>       0.30794820       0.55817943       0.06997058 </v>
   <v>       0.56299277       0.56398577       0.06395762 </v>
   <v>       0.81506575       0.55757379       0.06570644 </v>
   <v>       0.06966057       0.80876723       0.05712605 </v>
   <v>       0.31714253       0.80447668       0.06144804 </v>
   <v>       0.56961363       0.80859163       0.06411487 </v>
   <v>       0.79365505       0.81323204       0.07032060 </v>
   <v>       0.05977505       0.06133795       0.31008220 </v>
   <v>       0.31167181       0.06351924       0.30924953 </v>
   <v>       0.56410004       0.06383634       0.30400713 </v>
   <v>       0.80697813       0.07102808       0.32220190 </v>
   <v>       0.07099249       0.31738727       0.29916685 </v>
   <v>       0.31792222       0.31603628       0.31360897 </v>
   <v>       0.55915562       0.32618024       0.30077755 </v>
   <v>       0.81631172       0.31259065       0.31493478 </v>
   <v>       0.06218693       0.55747197       0.31207228 </v>
   <v>       0.32093142       0.54999627       0.30873482 </v>
   <v>       0.55957681       0.55071814       0.32289420 </v>
   <v>       0.81853923       0.56391338       0.30550645 </v>
   <v>       0.05992173       0.80808204       0.32074363 </v>
   <v>       0.30861233       0.82328471       0.30856116 </v>
   <v>       0.55704897       0.80828062       0.32434048 </v>
   <v>       0.81599079       0.82185942       0.31404267 </v>
   <v>       0.06864900       0.05700509       0.55227562 </v>
   <v>       0.32326745       0.05892532       0.55361147 </v>
   <v>       0.56739284       0.07013889       0.54931691 </v>
   <v>       0.81378725       0.05505433       0.56925420 </v>
   <v>       0.06452368       0.29813151       0.56826753 </v>
   <v>       0.31195137       0.29915048       0.56818606 </v>
   <v>       0.56124763       0.30828488       0.56430467 </v>
   <v>       0.81604321       0.31833269       0.56810252 </v>
   <v>       0.06647253       0.56686685       0.54925647 </v>
   <v>       0.31389588       0.56016300       0.55521694 </v>
   <v>       0.55822774       0.56190414       0.56312942 </v>
   <v>       0.81975821       0.54634646       0.56061611 </v>
   <v>       0.06722586       0.80959971       0.55531022 </v>
   <v>       0.31412433       0.82096287       0.56028119 </v>
   <v>       0.56383328       0.80679827       0.56960448 </v>
   <v>       0.81160142       0.81365996       0.56157884 </v>
   <v>       0.06701057       0.06392156       0.81180769 </v>
   <v>       0.30618547       0.05854748       0.81026882 </v>
   <v>       0.55346648       0.06467911       0.82393521 </v>
   <v>       0.81041147       0.07043059       0.82606657 </v>
   <v>       0.05149098       0.31020221       0.81851199 </v>
   <v>       0.32286611       0.30598552       0.81176189 </v>
   <v>       0.55761768       0.31829149       0.81900158 </v>
   <v>       0.81241583       0.31315244       0.81008124 </v>
   <v>       0.06364188       0.55588676       0.82262532 </v>
   <v>       0.30905667       0.56001665       0.81262017 </v>
   <v>       0.56031275       0.56635855       0.81056547 </v>
   <v>       0.81717963       0.56096069       0.81024199 </v>
   <v>       0.06661514       0.80539331       0.81739918 </v>
   <v>       0.30873304       0.81451434       0.80555673 </v>
   <v>       0.55921091       0.81747749       0.81235814 </v>
   <v>       0.81027122       0.81184565       0.81247529 </v>
  </varray>
 </structure>
</modeling>
