potpaw_PBE@./ARUN.APL1ZEROSTATE         
           1
     0.000000   10.937334   10.937334
    10.937334    0.000000   10.937334
    10.937334   10.937334    0.000000
   Si
 128
Direct configuration=     1
   0.00985375  0.99604606  0.99734855
   0.24619241  0.99314113  0.00339627
   0.49943807  0.99489802  0.99900970
   0.74811102  0.99779213  0.00334900
   0.00260132  0.24512620  0.99764775
   0.25020103  0.24748378  0.00563589
   0.49933085  0.24611788  0.00020802
   0.74198638  0.25144069  0.99514881
   0.00217474  0.49013819  0.00837164
   0.25275877  0.50460207  0.00243724
   0.50224164  0.50282655  0.98766641
   0.76266084  0.48657484  0.99891362
   0.99625357  0.74729100  0.00253742
   0.25956775  0.75297766  0.99553217
   0.49416864  0.75165558  0.00638271
   0.75291099  0.74919548  0.99951070
   0.00584016  0.99842249  0.24306749
   0.25868296  0.99456758  0.24954481
   0.49246664  0.99955888  0.23900838
   0.74043424  0.00580174  0.24672625
   0.99388648  0.24598344  0.26253188
   0.24463712  0.24186049  0.25622218
   0.51133729  0.24927324  0.24867357
   0.74969929  0.24429284  0.25130028
   0.01021671  0.49416120  0.24297921
   0.24108817  0.49440507  0.26053396
   0.49892437  0.50280593  0.24274276
   0.75747780  0.49282944  0.25391758
   0.99345572  0.75550593  0.24894911
   0.26115025  0.75391344  0.24832495
   0.50153083  0.75110402  0.24765032
   0.74166777  0.74929181  0.24934951
   0.99304435  0.00983585  0.49271783
   0.25645075  0.99548829  0.49612182
   0.50268207  0.00602511  0.49611507
   0.75740958  0.99481236  0.50677219
   0.01226695  0.24278314  0.50265591
   0.24175399  0.25361504  0.49859409
   0.50817962  0.24658400  0.49870994
   0.74795915  0.23796395  0.50583245
   0.99371206  0.50046208  0.51099254
   0.24554733  0.48878001  0.51649337
   0.50362615  0.49144034  0.50420716
   0.74834549  0.51340846  0.48825816
   0.00562310  0.75063832  0.50177724
   0.26654800  0.75339368  0.49383700
   0.49408211  0.74955375  0.50640593
   0.74105350  0.74650749  0.50003177
   0.98906594  0.00780669  0.75477152
   0.25314315  0.99979663  0.74138661
   0.50124918  0.99170268  0.74900705
   0.74942768  0.00354934  0.74946435
   0.00032275  0.24276732  0.75139206
   0.25524370  0.24886869  0.76049235
   0.50374312  0.24845356  0.75564799
   0.75376716  0.26300466  0.74135718
   0.99503250  0.49796386  0.73915080
   0.24678985  0.49876380  0.75110617
   0.49205284  0.50539421  0.75403055
   0.75084094  0.50567020  0.75359656
   0.99351871  0.75933376  0.75766565
   0.24340205  0.74934220  0.75887037
   0.49303543  0.74620980  0.75464470
   0.76263347  0.74869127  0.74272603
   0.06464962  0.06332549  0.05808689
   0.31483105  0.06911645  0.06614723
   0.57137729  0.06000639  0.05948532
   0.80560665  0.07157787  0.05692152
   0.06386290  0.31164530  0.06664343
   0.32327233  0.31227562  0.05169864
   0.55141911  0.31401817  0.06487230
   0.81598462  0.30804535  0.07301985
   0.06856460  0.55955538  0.06069324
   0.30794820  0.55817943  0.06997058
   0.56299277  0.56398577  0.06395762
   0.81506575  0.55757379  0.06570644
   0.06966057  0.80876723  0.05712605
   0.31714253  0.80447668  0.06144804
   0.56961363  0.80859163  0.06411487
   0.79365505  0.81323204  0.07032060
   0.05977505  0.06133795  0.31008220
   0.31167181  0.06351924  0.30924953
   0.56410004  0.06383634  0.30400713
   0.80697813  0.07102808  0.32220190
   0.07099249  0.31738727  0.29916685
   0.31792222  0.31603628  0.31360897
   0.55915562  0.32618024  0.30077755
   0.81631172  0.31259065  0.31493478
   0.06218693  0.55747197  0.31207228
   0.32093142  0.54999627  0.30873482
   0.55957681  0.55071814  0.32289420
   0.81853923  0.56391338  0.30550645
   0.05992173  0.80808204  0.32074363
   0.30861233  0.82328471  0.30856116
   0.55704897  0.80828062  0.32434048
   0.81599079  0.82185942  0.31404267
   0.06864900  0.05700509  0.55227562
   0.32326745  0.05892532  0.55361147
   0.56739284  0.07013889  0.54931691
   0.81378725  0.05505433  0.56925420
   0.06452368  0.29813151  0.56826753
   0.31195137  0.29915048  0.56818606
   0.56124763  0.30828488  0.56430467
   0.81604321  0.31833269  0.56810252
   0.06647253  0.56686685  0.54925647
   0.31389588  0.56016300  0.55521694
   0.55822774  0.56190414  0.56312942
   0.81975821  0.54634646  0.56061611
   0.06722586  0.80959971  0.55531022
   0.31412433  0.82096287  0.56028119
   0.56383328  0.80679827  0.56960448
   0.81160142  0.81365996  0.56157884
   0.06701057  0.06392156  0.81180769
   0.30618547  0.05854748  0.81026882
   0.55346648  0.06467911  0.82393521
   0.81041147  0.07043059  0.82606657
   0.05149098  0.31020221  0.81851199
   0.32286611  0.30598552  0.81176189
   0.55761768  0.31829149  0.81900158
   0.81241583  0.31315244  0.81008124
   0.06364188  0.55588676  0.82262532
   0.30905667  0.56001665  0.81262017
   0.56031275  0.56635855  0.81056547
   0.81717963  0.56096069  0.81024199
   0.06661514  0.80539331  0.81739918
   0.30873304  0.81451434  0.80555673
   0.55921091  0.81747749  0.81235814
   0.81027122  0.81184565  0.81247529
