 128 128   0   0
  0.2044346E+02  0.1546773E-08  0.1546773E-08  0.1546773E-08  0.5000000E-15
  1.000000000000000E-004
  CAR 
 potpaw_PBE@./ARUN.APL1ZEROSTATE         
      9.34153009     -7.04425127  301      5.90734342      1.00000000
     -7.044  0.0000E+00  0.0000E+00
     -6.990  0.0000E+00  0.0000E+00
     -6.935  0.0000E+00  0.0000E+00
     -6.880  0.0000E+00  0.0000E+00
     -6.826  0.0000E+00  0.0000E+00
     -6.771  0.0000E+00  0.0000E+00
     -6.717  0.0000E+00  0.0000E+00
     -6.662  0.0000E+00  0.0000E+00
     -6.607  0.0000E+00  0.0000E+00
     -6.553  0.0000E+00  0.0000E+00
     -6.498  0.0000E+00  0.0000E+00
     -6.443  0.0000E+00  0.0000E+00
     -6.389  0.0000E+00  0.0000E+00
     -6.334  0.2027E-05  0.1107E-06
     -6.280  0.4566E+01  0.2494E+00
     -6.225  0.1138E-01  0.2500E+00
     -6.170  0.2081E+00  0.2614E+00
     -6.116  0.1640E+02  0.1157E+01
     -6.061  0.2459E+02  0.2500E+01
     -6.006  0.2211E+02  0.3708E+01
     -5.952  0.7720E+00  0.3750E+01
     -5.897  0.8459E-08  0.3750E+01
     -5.843  0.8775E+01  0.4229E+01
     -5.788  0.9251E+01  0.4735E+01
     -5.733  0.2578E+02  0.6143E+01
     -5.679  0.2630E+02  0.7579E+01
     -5.624  0.3310E+02  0.9387E+01
     -5.570  0.2294E+02  0.1064E+02
     -5.515  0.2591E+02  0.1206E+02
     -5.460  0.2324E+02  0.1332E+02
     -5.406  0.2088E+02  0.1447E+02
     -5.351  0.6606E+00  0.1450E+02
     -5.296  0.9106E+01  0.1500E+02
     -5.242  0.1268E+02  0.1569E+02
     -5.187  0.1425E+02  0.1647E+02
     -5.133  0.2938E+02  0.1807E+02
     -5.078  0.5144E+02  0.2088E+02
     -5.023  0.4542E+02  0.2336E+02
     -4.969  0.4797E+02  0.2599E+02
     -4.914  0.2624E+02  0.2742E+02
     -4.859  0.1524E+02  0.2825E+02
     -4.805  0.2283E+02  0.2950E+02
     -4.750  0.3289E+02  0.3129E+02
     -4.696  0.2797E+02  0.3282E+02
     -4.641  0.3051E+02  0.3449E+02
     -4.586  0.4577E+02  0.3699E+02
     -4.532  0.3345E+02  0.3882E+02
     -4.477  0.3313E+02  0.4062E+02
     -4.423  0.2511E+02  0.4200E+02
     -4.368  0.1973E+02  0.4307E+02
     -4.313  0.1603E+02  0.4395E+02
     -4.259  0.3580E+02  0.4590E+02
     -4.204  0.6303E+02  0.4935E+02
     -4.149  0.4918E+02  0.5203E+02
     -4.095  0.7105E+02  0.5591E+02
     -4.040  0.5290E+02  0.5880E+02
     -3.986  0.6793E+02  0.6251E+02
     -3.931  0.4150E+02  0.6478E+02
     -3.876  0.3893E+02  0.6691E+02
     -3.822  0.4372E+02  0.6929E+02
     -3.767  0.6497E+02  0.7284E+02
     -3.712  0.5456E+02  0.7582E+02
     -3.658  0.4234E+02  0.7814E+02
     -3.603  0.3170E+02  0.7987E+02
     -3.549  0.2866E+02  0.8143E+02
     -3.494  0.4294E+02  0.8378E+02
     -3.439  0.5471E+02  0.8677E+02
     -3.385  0.5283E+02  0.8965E+02
     -3.330  0.4844E+02  0.9230E+02
     -3.276  0.5526E+02  0.9532E+02
     -3.221  0.2679E+02  0.9678E+02
     -3.166  0.2906E+02  0.9837E+02
     -3.112  0.3906E+02  0.1005E+03
     -3.057  0.4712E+02  0.1031E+03
     -3.002  0.4463E+02  0.1055E+03
     -2.948  0.4935E+02  0.1082E+03
     -2.893  0.3149E+02  0.1099E+03
     -2.839  0.2704E+02  0.1114E+03
     -2.784  0.3753E+02  0.1135E+03
     -2.729  0.3524E+02  0.1154E+03
     -2.675  0.3063E+02  0.1171E+03
     -2.620  0.3561E+02  0.1190E+03
     -2.565  0.3741E+02  0.1210E+03
     -2.511  0.2064E+02  0.1222E+03
     -2.456  0.1067E+02  0.1227E+03
     -2.402  0.1462E-02  0.1228E+03
     -2.347  0.4576E+01  0.1230E+03
     -2.292  0.9093E+01  0.1235E+03
     -2.238  0.7873E+01  0.1239E+03
     -2.183  0.2013E+02  0.1250E+03
     -2.129  0.2662E+02  0.1265E+03
     -2.074  0.3104E+02  0.1282E+03
     -2.019  0.3082E+02  0.1299E+03
     -1.965  0.2596E+02  0.1313E+03
     -1.910  0.1330E+02  0.1320E+03
     -1.855  0.1194E+02  0.1327E+03
     -1.801  0.6313E+01  0.1330E+03
     -1.746  0.4576E+01  0.1332E+03
     -1.692  0.1523E+01  0.1333E+03
     -1.637  0.1684E+02  0.1343E+03
     -1.582  0.3599E+02  0.1362E+03
     -1.528  0.3251E+02  0.1380E+03
     -1.473  0.3573E+02  0.1399E+03
     -1.418  0.2868E+02  0.1415E+03
     -1.364  0.3264E+02  0.1433E+03
     -1.309  0.5357E+02  0.1462E+03
     -1.255  0.6417E+02  0.1497E+03
     -1.200  0.7023E+02  0.1536E+03
     -1.145  0.5142E+02  0.1564E+03
     -1.091  0.6241E+02  0.1598E+03
     -1.036  0.5486E+02  0.1628E+03
     -0.982  0.6770E+02  0.1665E+03
     -0.927  0.8062E+02  0.1709E+03
     -0.872  0.6372E+02  0.1744E+03
     -0.818  0.6513E+02  0.1779E+03
     -0.763  0.4811E+02  0.1805E+03
     -0.708  0.4500E+02  0.1830E+03
     -0.654  0.4252E+02  0.1853E+03
     -0.599  0.4569E+02  0.1878E+03
     -0.545  0.2617E+02  0.1892E+03
     -0.490  0.2002E+02  0.1903E+03
     -0.435  0.2364E+02  0.1916E+03
     -0.381  0.2918E+02  0.1932E+03
     -0.326  0.4339E+02  0.1956E+03
     -0.271  0.4077E+02  0.1978E+03
     -0.217  0.6066E+02  0.2011E+03
     -0.162  0.5730E+02  0.2043E+03
     -0.108  0.3955E+02  0.2064E+03
     -0.053  0.4616E+02  0.2089E+03
      0.002  0.4266E+02  0.2113E+03
      0.056  0.2528E+02  0.2127E+03
      0.111  0.1992E+02  0.2137E+03
      0.165  0.8780E+01  0.2142E+03
      0.220  0.4745E+01  0.2145E+03
      0.275  0.2329E+02  0.2158E+03
      0.329  0.1684E+02  0.2167E+03
      0.384  0.2839E+02  0.2182E+03
      0.439  0.3088E+02  0.2199E+03
      0.493  0.2508E+02  0.2213E+03
      0.548  0.2988E+02  0.2229E+03
      0.602  0.1537E+02  0.2238E+03
      0.657  0.1476E+02  0.2246E+03
      0.712  0.1764E+02  0.2255E+03
      0.766  0.1813E+02  0.2265E+03
      0.821  0.1800E+02  0.2275E+03
      0.876  0.6848E+01  0.2279E+03
      0.930  0.7563E+01  0.2283E+03
      0.985  0.2497E+02  0.2297E+03
      1.039  0.3355E+02  0.2315E+03
      1.094  0.2158E+02  0.2327E+03
      1.149  0.3101E+02  0.2344E+03
      1.203  0.1448E+02  0.2351E+03
      1.258  0.3319E+02  0.2370E+03
      1.312  0.4024E+02  0.2392E+03
      1.367  0.2108E+02  0.2403E+03
      1.422  0.5132E+02  0.2431E+03
      1.476  0.5403E+02  0.2461E+03
      1.531  0.7798E+02  0.2503E+03
      1.586  0.9521E+02  0.2555E+03
      1.640  0.8085E+02  0.2599E+03
      1.695  0.7347E+02  0.2640E+03
      1.749  0.6433E+02  0.2675E+03
      1.804  0.5038E+02  0.2702E+03
      1.859  0.3711E+02  0.2722E+03
      1.913  0.1682E+02  0.2732E+03
      1.968  0.2132E+02  0.2743E+03
      2.023  0.2762E+02  0.2758E+03
      2.077  0.6201E+02  0.2792E+03
      2.132  0.1047E+03  0.2849E+03
      2.186  0.1159E+03  0.2913E+03
      2.241  0.1177E+03  0.2977E+03
      2.296  0.1137E+03  0.3039E+03
      2.350  0.9256E+02  0.3090E+03
      2.405  0.1164E+03  0.3153E+03
      2.460  0.7103E+02  0.3192E+03
      2.514  0.5557E+02  0.3222E+03
      2.569  0.2891E+02  0.3238E+03
      2.623  0.4123E+02  0.3261E+03
      2.678  0.5612E+02  0.3291E+03
      2.733  0.7842E+02  0.3334E+03
      2.787  0.9573E+02  0.3386E+03
      2.842  0.9809E+02  0.3440E+03
      2.896  0.8363E+02  0.3486E+03
      2.951  0.9968E+02  0.3540E+03
      3.006  0.9597E+02  0.3593E+03
      3.060  0.1029E+03  0.3649E+03
      3.115  0.9296E+02  0.3700E+03
      3.170  0.6192E+02  0.3733E+03
      3.224  0.7564E+02  0.3775E+03
      3.279  0.1098E+03  0.3835E+03
      3.333  0.9269E+02  0.3885E+03
      3.388  0.9501E+02  0.3937E+03
      3.443  0.8308E+02  0.3983E+03
      3.497  0.7903E+02  0.4026E+03
      3.552  0.9784E+02  0.4079E+03
      3.607  0.8945E+02  0.4128E+03
      3.661  0.5967E+02  0.4161E+03
      3.716  0.7550E+02  0.4202E+03
      3.770  0.8042E+02  0.4246E+03
      3.825  0.8734E+02  0.4294E+03
      3.880  0.8641E+02  0.4341E+03
      3.934  0.7432E+02  0.4381E+03
      3.989  0.6569E+02  0.4417E+03
      4.043  0.6484E+02  0.4453E+03
      4.098  0.6377E+02  0.4487E+03
      4.153  0.5423E+02  0.4517E+03
      4.207  0.8077E+02  0.4561E+03
      4.262  0.7860E+02  0.4604E+03
      4.317  0.8251E+02  0.4649E+03
      4.371  0.6550E+02  0.4685E+03
      4.426  0.7188E+02  0.4724E+03
      4.480  0.7437E+02  0.4765E+03
      4.535  0.7448E+02  0.4806E+03
      4.590  0.6169E+02  0.4839E+03
      4.644  0.5466E+02  0.4869E+03
      4.699  0.4757E+02  0.4895E+03
      4.754  0.3478E+02  0.4914E+03
      4.808  0.9073E+01  0.4919E+03
      4.863  0.2873E+02  0.4935E+03
      4.917  0.3200E+02  0.4952E+03
      4.972  0.4846E+02  0.4979E+03
      5.027  0.3820E+02  0.5000E+03
      5.081  0.3727E+02  0.5020E+03
      5.136  0.1814E+02  0.5030E+03
      5.190  0.1274E+02  0.5037E+03
      5.245  0.5999E+01  0.5040E+03
      5.300  0.4574E+01  0.5043E+03
      5.354  0.2117E+02  0.5054E+03
      5.409  0.1747E+02  0.5064E+03
      5.464  0.1976E+02  0.5074E+03
      5.518  0.2913E+02  0.5090E+03
      5.573  0.2118E+02  0.5102E+03
      5.627  0.1833E+02  0.5112E+03
      5.682  0.1333E+01  0.5113E+03
      5.737  0.4355E+01  0.5115E+03
      5.791  0.4576E+01  0.5118E+03
      5.846  0.4577E+01  0.5120E+03
      5.901  0.0000E+00  0.5120E+03
      5.955  0.0000E+00  0.5120E+03
      6.010  0.0000E+00  0.5120E+03
      6.064  0.0000E+00  0.5120E+03
      6.119  0.6410E-01  0.5120E+03
      6.174  0.1542E+02  0.5128E+03
      6.228  0.2038E+02  0.5140E+03
      6.283  0.1085E+02  0.5146E+03
      6.337  0.2659E+02  0.5160E+03
      6.392  0.1773E+02  0.5170E+03
      6.447  0.2144E+02  0.5181E+03
      6.501  0.3496E+02  0.5201E+03
      6.556  0.2311E+02  0.5213E+03
      6.611  0.1242E+02  0.5220E+03
      6.665  0.1375E+02  0.5227E+03
      6.720  0.3129E+02  0.5245E+03
      6.774  0.2372E+02  0.5257E+03
      6.829  0.3591E+02  0.5277E+03
      6.884  0.3453E+02  0.5296E+03
      6.938  0.2865E+02  0.5312E+03
      6.993  0.3198E+02  0.5329E+03
      7.048  0.4964E+02  0.5356E+03
      7.102  0.4491E+02  0.5381E+03
      7.157  0.2890E+02  0.5397E+03
      7.211  0.3540E+02  0.5416E+03
      7.266  0.5216E+02  0.5444E+03
      7.321  0.6890E+02  0.5482E+03
      7.375  0.7192E+02  0.5521E+03
      7.430  0.7646E+02  0.5563E+03
      7.484  0.7800E+02  0.5606E+03
      7.539  0.9474E+02  0.5657E+03
      7.594  0.9490E+02  0.5709E+03
      7.648  0.7310E+02  0.5749E+03
      7.703  0.8358E+02  0.5795E+03
      7.758  0.8555E+02  0.5842E+03
      7.812  0.9619E+02  0.5894E+03
      7.867  0.9405E+02  0.5945E+03
      7.921  0.1048E+03  0.6003E+03
      7.976  0.8928E+02  0.6051E+03
      8.031  0.7517E+02  0.6092E+03
      8.085  0.9508E+02  0.6144E+03
      8.140  0.9211E+02  0.6195E+03
      8.195  0.7174E+02  0.6234E+03
      8.249  0.9265E+02  0.6285E+03
      8.304  0.7597E+02  0.6326E+03
      8.358  0.8184E+02  0.6371E+03
      8.413  0.6811E+02  0.6408E+03
      8.468  0.3795E+02  0.6429E+03
      8.522  0.1180E+02  0.6435E+03
      8.577  0.4442E+01  0.6438E+03
      8.631  0.4566E+01  0.6440E+03
      8.686  0.0000E+00  0.6440E+03
      8.741  0.0000E+00  0.6440E+03
      8.795  0.0000E+00  0.6440E+03
      8.850  0.0000E+00  0.6440E+03
      8.905  0.0000E+00  0.6440E+03
      8.959  0.0000E+00  0.6440E+03
      9.014  0.0000E+00  0.6440E+03
      9.068  0.0000E+00  0.6440E+03
      9.123  0.0000E+00  0.6440E+03
      9.178  0.0000E+00  0.6440E+03
      9.232  0.0000E+00  0.6440E+03
      9.287  0.0000E+00  0.6440E+03
      9.342  0.0000E+00  0.6440E+03
