 vasp.5.4.4.18Apr17-6-g9f103f2a35 (build Nov 08 2017 09:05:29) complex          
  
 executed on          Intel_17.33 date 2020.07.18  21:24:58
 running on   32 total cores
 distrk:  each k-point on   32 cores,    1 groups
 distr:  one band on NCORES_PER_BAND=  16 cores,    2 groups


--------------------------------------------------------------------------------------------------------


 INCAR:
 POTCAR:   PAW_PBE Si 05Jan2001                   

 ----------------------------------------------------------------------------- 
|                                                                             |
|           W    W    AA    RRRRR   N    N  II  N    N   GGGG   !!!           |
|           W    W   A  A   R    R  NN   N  II  NN   N  G    G  !!!           |
|           W    W  A    A  R    R  N N  N  II  N N  N  G       !!!           |
|           W WW W  AAAAAA  RRRRR   N  N N  II  N  N N  G  GGG   !            |
|           WW  WW  A    A  R   R   N   NN  II  N   NN  G    G                |
|           W    W  A    A  R    R  N    N  II  N    N   GGGG   !!!           |
|                                                                             |
|      For optimal performance we recommend to set                            |
|        NCORE= 4 - approx SQRT( number of cores)                             |
|      NCORE specifies how many cores store one orbital (NPAR=cpu/NCORE).     |
|      This setting can  greatly improve the performance of VASP for DFT.     |
|      The default,   NCORE=1            might be grossly inefficient         |
|      on modern multi-core architectures or massively parallel machines.     |
|      Do your own testing !!!!                                               |
|      Unfortunately you need to use the default for GW and RPA calculations. |
|      (for HF NCORE is supported but not extensively tested yet)             |
|                                                                             |
 ----------------------------------------------------------------------------- 

 POTCAR:   PAW_PBE Si 05Jan2001                   
   VRHFIN =Si: s2p2                                                             
   LEXCH  = PE                                                                  
   EATOM  =   103.0669 eV,    7.5752 Ry                                         
                                                                                
   TITEL  = PAW_PBE Si 05Jan2001                                                
   LULTRA =        F    use ultrasoft PP ?                                      
   IUNSCR =        1    unscreen: 0-lin 1-nonlin 2-no                           
   RPACOR =    1.500    partial core radius                                     
   POMASS =   28.085; ZVAL   =    4.000    mass and valenz                      
   RCORE  =    1.900    outmost cutoff radius                                   
   RWIGS  =    2.480; RWIGS  =    1.312    wigner-seitz radius (au A)           
   ENMAX  =  245.345; ENMIN  =  184.009 eV                                      
   ICORE  =        2    local potential                                         
   LCOR   =        T    correct aug charges                                     
   LPAW   =        T    paw PP                                                  
   EAUG   =  322.069                                                            
   DEXC   =    -.007                                                            
   RMAX   =    2.944    core radius for proj-oper                               
   RAUG   =    1.300    factor for augmentation sphere                          
   RDEP   =    1.993    radius for radial grids                                 
   QCUT   =   -4.246; QGAM   =    8.493    optimization parameters              
                                                                                
   Description                                                                  
     l     E      TYP  RCUT    TYP  RCUT                                        
     0   .000     23  1.900                                                     
     0   .000     23  1.900                                                     
     1   .000     23  1.900                                                     
     1   .000     23  1.900                                                     
     2   .000      7  1.900                                                     
  local pseudopotential read in
  partial core-charges read in
  atomic valenz-charges read in
  non local Contribution for L=           0  read in
    real space projection operators read in
  non local Contribution for L=           0  read in
    real space projection operators read in
  non local Contribution for L=           1  read in
    real space projection operators read in
  non local Contribution for L=           1  read in
    real space projection operators read in
    PAW grid and wavefunctions read in
 
   number of l-projection  operators is LMAX  =           4
   number of lm-projection operators is LMMAX =           8
 

 ----------------------------------------------------------------------------- 
|                                                                             |
|  ADVICE TO THIS USER RUNNING 'VASP/VAMP'   (HEAR YOUR MASTER'S VOICE ...):  |
|                                                                             |
|      You have a (more or less) 'large supercell' and for larger cells       |
|      it might be more efficient to use real space projection operators      |
|      So try LREAL= Auto  in the INCAR   file.                               |
|      Mind: If you want to do a very accurate calculations keep the          |
|      reciprocal projection scheme          (i.e. LREAL=.FALSE.)             |
|                                                                             |
 ----------------------------------------------------------------------------- 

 PAW_PBE Si 05Jan2001                   :
 energy of atom  1       EATOM= -103.0669
 kinetic energy error for atom=    0.0006 (will be added to EATOM!!)
 
 
 POSCAR: kk                                      
  positions in direct lattice
  No initial velocities read in
 exchange correlation table for  LEXCH =        8
   RHO(1)=    0.500       N(1)  =     2000
   RHO(2)=  100.500       N(2)  =     4000
 


--------------------------------------------------------------------------------------------------------


 ion  position               nearest neighbor table
   1  0.001  0.995  0.004-  77 2.24  65 2.30 113 2.48  68 2.58
   2  0.242  0.008  0.999-  65 2.20 114 2.26  66 2.35  78 2.42
   3  0.488  0.022  0.985- 115 2.23  66 2.29  67 2.43  79 2.63
   4  0.744  0.002  0.002-  67 2.26  80 2.31  68 2.33 116 2.57
   5  0.002  0.247  0.002-  65 2.27 117 2.38  69 2.48  72 2.55
   6  0.251  0.244  0.003-  69 2.29  66 2.34 118 2.37  70 2.39
   7  0.495  0.264  0.999-  71 2.22 119 2.34  70 2.40  67 2.61
   8  0.747  0.261  0.994-  72 2.26 120 2.40  71 2.43  68 2.46
   9  1.000  0.510  0.989-  73 2.37 121 2.38  69 2.43  76 2.52
  10  0.247  0.496  0.006- 122 2.30  73 2.31  70 2.34  74 2.36
  11  0.503  0.499  0.000-  74 2.26  75 2.31 123 2.33  71 2.40
  12  0.754  0.501  0.000-  75 2.28  76 2.28 124 2.35  72 2.37
  13  0.996  0.747  0.998-  77 2.33  80 2.33  73 2.37 125 2.37
  14  0.253  0.750  0.999-  78 2.31  74 2.45 126 2.50  77 2.54
  15  0.500  0.741  0.002-  75 2.31  78 2.35 127 2.41  79 2.46
  16  0.747  0.744  0.012-  76 2.18  80 2.35  79 2.40 128 2.60
  17  0.007  0.009  0.236-  81 2.25  65 2.41  93 2.50  84 2.62
  18  0.260  0.004  0.247-  66 2.29  82 2.40  81 2.46  94 2.65
  19  0.499  0.999  0.253-  82 2.26  83 2.28  67 2.39  95 2.42
  20  0.741  0.015  0.248-  84 2.22  68 2.27  83 2.37  96 2.69
  21  0.997  0.235  0.262-  85 2.27  81 2.29  88 2.41  69 2.59
  22  0.264  0.243  0.253-  82 2.21  86 2.23  70 2.32  85 2.69
  23  0.501  0.266  0.244-  71 2.25  87 2.25  86 2.43  83 2.55
  24  0.742  0.242  0.249-  87 2.25  84 2.27  72 2.31  88 2.69
  25  0.992  0.510  0.246-  73 2.33  92 2.37  89 2.45  85 2.48
  26  0.244  0.513  0.249-  89 2.29  90 2.38  86 2.44  74 2.48
  27  0.503  0.498  0.241-  91 2.34  75 2.40  87 2.40  90 2.41
  28  0.748  0.494  0.252-  88 2.25  76 2.39  92 2.41  91 2.52
  29  0.000  0.749  0.248-  89 2.24  96 2.25  93 2.33  77 2.45
  30  0.240  0.750  0.257-  94 2.24  93 2.40  90 2.44  78 2.55
  31  0.505  0.748  0.247-  91 2.27  79 2.29  95 2.37  94 2.53
  32  0.763  0.754  0.240-  92 2.24  80 2.31  96 2.33  95 2.47
  33  0.990  0.005  0.507- 100 2.22  97 2.35 109 2.52  81 2.52
  34  0.261  0.990  0.498-  98 2.19 110 2.27  82 2.36  97 2.40
  35  0.490  0.004  0.502-  99 2.37  83 2.39  98 2.39 111 2.45
  36  0.743  0.004  0.499-  84 2.30  99 2.34 100 2.38 112 2.45
  37  0.998  0.250  0.488-  85 2.28 104 2.29  97 2.44 101 2.53
  38  0.254  0.258  0.496- 102 2.21  86 2.41 101 2.46  98 2.55
  39  0.504  0.252  0.508- 103 2.18 102 2.33  87 2.44  99 2.52
  40  0.750  0.243  0.500-  88 2.27 103 2.34 100 2.36 104 2.44
  41  0.004  0.500  0.497- 101 2.34  89 2.39 108 2.41 105 2.42
  42  0.254  0.491  0.507-  90 2.34 106 2.35 102 2.40 105 2.47
  43  0.501  0.482  0.507- 103 2.18 106 2.21 107 2.51  91 2.54
  44  0.750  0.504  0.502- 107 2.44 104 2.44 108 2.51  92 2.54
  45  0.003  0.757  0.501- 109 2.31  93 2.31 112 2.38 105 2.39
  46  0.245  0.747  0.503- 109 2.19  94 2.28 110 2.48 106 2.54
  47  0.503  0.745  0.499- 107 2.33  95 2.37 110 2.38 111 2.46
  48  0.739  0.762  0.500- 111 2.17 112 2.29  96 2.35 108 2.39
  49  0.007  0.996  0.744- 125 2.33  97 2.36 113 2.39 116 2.47
  50  0.250  0.008  0.748- 114 2.22 113 2.30 126 2.33  98 2.35
  51  0.500  0.004  0.742-  99 2.15 127 2.33 115 2.38 114 2.47
  52  0.740  0.996  0.756- 115 2.23 128 2.26 116 2.36 100 2.42
  53  0.002  0.241  0.752- 113 2.28 120 2.38 101 2.40 117 2.54
  54  0.257  0.239  0.751- 114 2.33 118 2.41 117 2.41 102 2.42
  55  0.492  0.256  0.748- 118 2.26 103 2.36 119 2.44 115 2.46
  56  0.743  0.237  0.755- 116 2.14 119 2.33 104 2.48 120 2.57
  57  0.006  0.497  0.741- 105 2.24 117 2.29 124 2.37 121 2.40
  58  0.248  0.506  0.756- 122 2.32 106 2.42 121 2.42 118 2.49
  59  0.510  0.497  0.749- 123 2.24 107 2.26 119 2.31 122 2.52
  60  0.744  0.501  0.757- 120 2.30 124 2.32 108 2.42 123 2.42
  61  0.989  0.764  0.761- 128 2.22 125 2.25 121 2.41 109 2.50
  62  0.248  0.751  0.744- 125 2.25 110 2.26 122 2.44 126 2.46
  63  0.498  0.747  0.748- 123 2.31 111 2.33 126 2.35 127 2.54
  64  0.750  0.746  0.759- 128 2.33 127 2.38 124 2.46 112 2.54
  65  0.068  0.068  0.045-   2 2.20   5 2.27   1 2.30  17 2.41
  66  0.310  0.059  0.066-   3 2.29  18 2.29   6 2.34   2 2.35
  67  0.565  0.057  0.064-   4 2.26  19 2.39   3 2.43   7 2.61
  68  0.797  0.066  0.069-  20 2.27   4 2.33   8 2.46   1 2.58
  69  0.071  0.318  0.058-   6 2.29   9 2.43   5 2.48  21 2.59
  70  0.306  0.311  0.071-  22 2.32  10 2.34   6 2.39   7 2.40
  71  0.556  0.309  0.068-   7 2.22  23 2.25  11 2.40   8 2.43
  72  0.800  0.314  0.066-   8 2.26  24 2.31  12 2.37   5 2.55
  73  0.064  0.560  0.062-  10 2.31  25 2.33   9 2.37  13 2.37
  74  0.324  0.557  0.054-  11 2.26  10 2.36  14 2.45  26 2.48
  75  0.574  0.559  0.051-  12 2.28  11 2.31  15 2.31  27 2.40
  76  0.801  0.572  0.063-  16 2.18  12 2.28  28 2.39   9 2.52
  77  0.052  0.818  0.055-   1 2.24  13 2.33  29 2.45  14 2.54
  78  0.314  0.817  0.054-  14 2.31  15 2.35   2 2.42  30 2.55
  79  0.557  0.815  0.066-  31 2.29  16 2.40  15 2.46   3 2.63
  80  0.812  0.819  0.058-   4 2.31  32 2.31  13 2.33  16 2.35
  81  0.066  0.055  0.308-  17 2.25  21 2.29  18 2.46  33 2.52
  82  0.320  0.068  0.312-  22 2.21  19 2.26  34 2.36  18 2.40
  83  0.554  0.064  0.313-  19 2.28  20 2.37  35 2.39  23 2.55
  84  0.800  0.063  0.317-  20 2.22  24 2.27  36 2.30  17 2.62
  85  0.052  0.314  0.307-  21 2.27  37 2.28  25 2.48  22 2.69
  86  0.309  0.321  0.305-  22 2.23  38 2.41  23 2.43  26 2.44
  87  0.564  0.308  0.316-  23 2.25  24 2.25  27 2.40  39 2.44
  88  0.808  0.316  0.322-  28 2.25  40 2.27  21 2.41  24 2.69
  89  0.062  0.572  0.308-  29 2.24  26 2.29  41 2.39  25 2.45
  90  0.313  0.558  0.322-  42 2.34  26 2.38  27 2.41  30 2.44
  91  0.549  0.569  0.307-  31 2.27  27 2.34  28 2.52  43 2.54
  92  0.804  0.578  0.301-  32 2.24  25 2.37  28 2.41  44 2.54
  93  0.050  0.813  0.318-  45 2.31  29 2.33  30 2.40  17 2.50
  94  0.306  0.795  0.322-  30 2.24  46 2.28  31 2.53  18 2.65
  95  0.568  0.808  0.311-  31 2.37  47 2.37  19 2.42  32 2.47
  96  0.822  0.802  0.316-  29 2.25  32 2.33  48 2.35  20 2.69
  97  0.071  0.058  0.558-  33 2.35  49 2.36  34 2.40  37 2.44
  98  0.301  0.057  0.563-  34 2.19  50 2.35  35 2.39  38 2.55
  99  0.559  0.053  0.572-  51 2.15  36 2.34  35 2.37  39 2.52
 100  0.814  0.056  0.564-  33 2.22  40 2.36  36 2.38  52 2.42
 101  0.059  0.314  0.562-  41 2.34  53 2.40  38 2.46  37 2.53
 102  0.321  0.302  0.559-  38 2.21  39 2.33  42 2.40  54 2.42
 103  0.565  0.310  0.561-  39 2.18  43 2.18  40 2.34  55 2.36
 104  0.816  0.310  0.560-  37 2.29  40 2.44  44 2.44  56 2.48
 105  0.059  0.568  0.565-  57 2.24  45 2.39  41 2.42  42 2.47
 106  0.326  0.547  0.566-  43 2.21  42 2.35  58 2.42  46 2.54
 107  0.557  0.561  0.570-  59 2.26  47 2.33  44 2.44  43 2.51
 108  0.814  0.574  0.566-  48 2.39  41 2.41  60 2.42  44 2.51
 109  0.072  0.807  0.565-  46 2.19  45 2.31  61 2.50  33 2.52
 110  0.314  0.811  0.565-  62 2.26  34 2.27  47 2.38  46 2.48
 111  0.568  0.811  0.563-  48 2.17  63 2.33  35 2.45  47 2.46
 112  0.815  0.810  0.557-  48 2.29  45 2.38  36 2.45  64 2.54
 113  0.068  0.060  0.808-  53 2.28  50 2.30  49 2.39   1 2.48
 114  0.305  0.055  0.820-  50 2.22   2 2.26  54 2.33  51 2.47
 115  0.564  0.061  0.810-   3 2.23  52 2.23  51 2.38  55 2.46
 116  0.812  0.068  0.798-  56 2.14  52 2.36  49 2.47   4 2.57
 117  0.067  0.316  0.814-  57 2.29   5 2.38  54 2.41  53 2.54
 118  0.313  0.309  0.815-  55 2.26   6 2.37  54 2.41  58 2.49
 119  0.560  0.315  0.814-  59 2.31  56 2.33   7 2.34  55 2.44
 120  0.814  0.319  0.804-  60 2.30  53 2.38   8 2.40  56 2.57
 121  0.057  0.575  0.801-   9 2.38  57 2.40  61 2.41  58 2.42
 122  0.311  0.559  0.824-  10 2.30  58 2.32  62 2.44  59 2.52
 123  0.553  0.564  0.816-  59 2.24  63 2.31  11 2.33  60 2.42
 124  0.819  0.552  0.814-  60 2.32  12 2.35  57 2.37  64 2.46
 125  0.070  0.811  0.811-  61 2.25  62 2.25  49 2.33  13 2.37
 126  0.313  0.824  0.801-  50 2.33  63 2.35  62 2.46  14 2.50
 127  0.562  0.819  0.813-  51 2.33  64 2.38  15 2.41  63 2.54
 128  0.815  0.817  0.807-  61 2.22  52 2.26  64 2.33  16 2.60
 
  LATTYP: Found a face centered cubic cell.
 ALAT       =    21.8746673814
  
  Lattice vectors:
  
 A1 = (   0.0000000000,  10.9373336907,  10.9373336907)
 A2 = (  10.9373336907,   0.0000000000,  10.9373336907)
 A3 = (  10.9373336907,  10.9373336907,   0.0000000000)


Analysis of symmetry for initial positions (statically):
=====================================================================
 Subroutine PRICEL returns:
 Original cell was already a primitive cell.
 

 Routine SETGRP: Setting up the symmetry group for a 
 face centered cubic supercell.


 Subroutine GETGRP returns: Found  1 space group operations
 (whereof  1 operations were pure point group operations)
 out of a pool of 48 trial point group operations.


The static configuration has the point symmetry C_1 .


Analysis of symmetry for dynamics (positions and initial velocities):
=====================================================================
 Subroutine PRICEL returns:
 Original cell was already a primitive cell.
 

 Routine SETGRP: Setting up the symmetry group for a 
 face centered cubic supercell.


 Subroutine GETGRP returns: Found  1 space group operations
 (whereof  1 operations were pure point group operations)
 out of a pool of 48 trial point group operations.


The dynamic configuration has the point symmetry C_1 .


 Subroutine INISYM returns: Found  1 space group operations
 (whereof  1 operations are pure point group operations),
 and found     1 'primitive' translations

 
 
 KPOINTS: KPOINTS File, automatically generated by

Automatic generation of k-mesh.
Space group operators:
 irot       det(A)        alpha          n_x          n_y          n_z        tau_x        tau_y        tau_z
    1     1.000000     0.000001     1.000000     0.000000     0.000000     0.000000     0.000000     0.000000
 
 Subroutine IBZKPT returns following result:
 ===========================================
 
 Found      8 irreducible k-points:
 
 Following reciprocal coordinates:
            Coordinates               Weight
  0.000000  0.000000  0.000000      1.000000
  0.500000  0.000000  0.000000      1.000000
  0.000000  0.500000  0.000000      1.000000
  0.500000  0.500000  0.000000      1.000000
  0.000000  0.000000  0.500000      1.000000
  0.500000  0.000000  0.500000      1.000000
  0.000000  0.500000  0.500000      1.000000
  0.500000  0.500000  0.500000      1.000000
 
 Following cartesian coordinates:
            Coordinates               Weight
  0.000000  0.000000  0.000000      1.000000
 -0.022857  0.022857  0.022857      1.000000
  0.022857 -0.022857  0.022857      1.000000
  0.000000  0.000000  0.045715      1.000000
  0.022857  0.022857 -0.022857      1.000000
  0.000000  0.045715  0.000000      1.000000
  0.045715  0.000000  0.000000      1.000000
  0.022857  0.022857  0.022857      1.000000
 


--------------------------------------------------------------------------------------------------------




 Dimension of arrays:
   k-points           NKPTS =      8   k-points in BZ     NKDIM =      8   number of bands    NBANDS=    322
   number of dos      NEDOS =    301   number of ions     NIONS =    128
   non local maximal  LDIM  =      4   non local SUM 2l+1 LMDIM =      8
   total plane-waves  NPLWV = ******
   max r-space proj   IRMAX =      1   max aug-charges    IRDMAX= 176811
   dimension x,y,z NGX =   120 NGY =  120 NGZ =  120
   dimension x,y,z NGXF=   240 NGYF=  240 NGZF=  240
   support grid    NGXF=   480 NGYF=  480 NGZF=  480
   ions per type =             128
   NGX,Y,Z   is equivalent  to a cutoff of  12.90, 12.90, 12.90 a.u.
   NGXF,Y,Z  is equivalent  to a cutoff of  25.80, 25.80, 25.80 a.u.

 SYSTEM =  potpaw_PBE@./ARUN.APL1ZEROSTATE         
 POSCAR =  kk                                      

 Startparameter for this run:
   NWRITE =      2    write-flag & timer
   PREC   = accura    normal or accurate (medium, high low for compatibility)
   ISTART =      0    job   : 0-new  1-cont  2-samecut
   ICHARG =      2    charge: 1-file 2-atom 10-const
   ISPIN  =      1    spin polarized calculation?
   LNONCOLLINEAR =      F non collinear calculations
   LSORBIT =      F    spin-orbit coupling
   INIWAV =      1    electr: 0-lowe 1-rand  2-diag
   LASPH  =      F    aspherical Exc in radial PAW
   METAGGA=      F    non-selfconsistent MetaGGA calc.

 Electronic Relaxation 1
   ENCUT  =  500.0 eV  36.75 Ry    6.06 a.u.  28.20 28.20 28.20*2*pi/ulx,y,z
   ENINI  =  500.0     initial cutoff
   ENAUG  =  322.1 eV  augmentation charge cutoff
   NELM   =    120;   NELMIN=  4; NELMDL= -5     # of ELM steps 
   EDIFF  = 0.1E-07   stopping-criterion for ELM
   LREAL  =      F    real-space projection
   NLSPLINE    = F    spline interpolate recip. space projectors
   LCOMPAT=      F    compatible to vasp.4.4
   GGA_COMPAT  = T    GGA compatible to vasp.4.4-vasp.4.6
   LMAXPAW     = -100 max onsite density
   LMAXMIX     =    2 max onsite mixed and CHGCAR
   VOSKOWN=      0    Vosko Wilk Nusair interpolation
   ROPT   =    0.00000
 Ionic relaxation
   EDIFFG = 0.1E-06   stopping-criterion for IOM
   NSW    =      0    number of steps for IOM
   NBLOCK =      1;   KBLOCK =      1    inner block; outer block 
   IBRION =     -1    ionic relax: 0-MD 1-quasi-New 2-CG
   NFREE  =      0    steps in history (QN), initial steepest desc. (CG)
   ISIF   =      2    stress and relaxation
   IWAVPR =     10    prediction:  0-non 1-charg 2-wave 3-comb
   ISYM   =      2    0-nonsym 1-usesym 2-fastsym
   LCORR  =      T    Harris-Foulkes like correction to forces

   POTIM  = 0.5000    time-step for ionic-motion
   TEIN   =    0.0    initial temperature
   TEBEG  =    0.0;   TEEND  =   0.0 temperature during run
   SMASS  =  -3.00    Nose mass-parameter (am)
   estimated Nose-frequenzy (Omega)   =  0.10E-29 period in steps =****** mass=  -0.547E-26a.u.
   SCALEE = 1.0000    scale energy and forces
   NPACO  =    256;   APACO  = 16.0  distance and # of slots for P.C.
   PSTRESS=    0.0 pullay stress

  Mass of Ions in am
   POMASS =  28.09
  Ionic Valenz
   ZVAL   =   4.00
  Atomic Wigner-Seitz radii
   RWIGS  =  -1.00
  virtual crystal weights 
   VCA    =   1.00
   NELECT =     512.0000    total number of electrons
   NUPDOWN=      -1.0000    fix difference up-down

 DOS related values:
   EMIN   =  10.00;   EMAX   =-10.00  energy-range for DOS
   EFERMI =   0.00
   ISMEAR =     0;   SIGMA  =   0.01  broadening in eV -4-tet -1-fermi 0-gaus

 Electronic relaxation 2 (details)
   IALGO  =     38    algorithm
   LDIAG  =      T    sub-space diagonalisation (order eigenvalues)
   LSUBROT=      F    optimize rotation matrix (better conditioning)
   TURBO    =      0    0=normal 1=particle mesh
   IRESTART =      0    0=no restart 2=restart with 2 vectors
   NREBOOT  =      0    no. of reboots
   NMIN     =      0    reboot dimension
   EREF     =   0.00    reference energy to select bands
   IMIX   =      4    mixing-type and parameters
     AMIX     =   0.40;   BMIX     =  1.00
     AMIX_MAG =   1.60;   BMIX_MAG =  1.00
     AMIN     =   0.10
     WC   =   100.;   INIMIX=   1;  MIXPRE=   1;  MAXMIX= -45

 Intra band minimization:
   WEIMIN = 0.0000     energy-eigenvalue tresh-hold
   EBREAK =  0.78E-11  absolut break condition
   DEPER  =   0.30     relativ break condition  

   TIME   =   0.40     timestep for ELM

  volume/ion in A,a.u.               =      20.44       137.96
  Fermi-wavevector in a.u.,A,eV,Ry     =   0.950408  1.796010 12.289804  0.903275
  Thomas-Fermi vector in A             =   2.078782
 
 Write flags
   LWAVE        =      F    write WAVECAR
   LDOWNSAMPLE  =      F    k-point downsampling of WAVECAR
   LCHARG       =      F    write CHGCAR
   LVTOT        =      F    write LOCPOT, total local potential
   LVHAR        =      F    write LOCPOT, Hartree potential only
   LELF         =      F    write electronic localiz. function (ELF)
   LORBIT       =      0    0 simple, 1 ext, 2 COOP (PROOUT), +10 PAW based schemes


 Dipole corrections
   LMONO  =      F    monopole corrections only (constant potential shift)
   LDIPOL =      F    correct potential (dipole corrections)
   IDIPOL =      0    1-x, 2-y, 3-z, 4-all directions 
   EPSILON=  1.0000000 bulk dielectric constant

 Exchange correlation treatment:
   GGA     =    --    GGA type
   LEXCH   =     8    internal setting for exchange type
   VOSKOWN=      0    Vosko Wilk Nusair interpolation
   LHFCALC =     F    Hartree Fock is set to
   LHFONE  =     F    Hartree Fock one center treatment
   AEXX    =    0.0000 exact exchange contribution

 Linear response parameters
   LEPSILON=     F    determine dielectric tensor
   LRPA    =     F    only Hartree local field effects (RPA)
   LNABLA  =     F    use nabla operator in PAW spheres
   LVEL    =     F    velocity operator in full k-point grid
   LINTERFAST=   F  fast interpolation
   KINTER  =     0    interpolate to denser k-point grid
   CSHIFT  =0.1000    complex shift for real part using Kramers Kronig
   OMEGAMAX=  -1.0    maximum frequency
   DEG_THRESHOLD= 0.2000000E-02 threshold for treating states as degnerate
   RTIME   =   -0.100 relaxation time in fs
  (WPLASMAI=    0.000 imaginary part of plasma frequency in eV, 0.658/RTIME)
   DFIELD  = 0.0000000 0.0000000 0.0000000 field for delta impulse in time
 
 Orbital magnetization related:
   ORBITALMAG=     F  switch on orbital magnetization
   LCHIMAG   =     F  perturbation theory with respect to B field
   DQ        =  0.001000  dq finite difference perturbation B field
   LLRAUG    =     F  two centre corrections for induced B field



--------------------------------------------------------------------------------------------------------


 Static calculation
 charge density and potential will be updated during run
 non-spin polarized calculation
 Variant of blocked Davidson
 Davidson routine will perform the subspace rotation
 perform sub-space diagonalisation
    after iterative eigenvector-optimisation
 modified Broyden-mixing scheme, WC =      100.0
 initial mixing is a Kerker type mixing with AMIX =  0.4000 and BMIX =      1.0000
 Hartree-type preconditioning will be used
 using additional bands           66
 reciprocal scheme for non local part
 use partial core corrections
 calculate Harris-corrections to forces 
   (improved forces if not selfconsistent)
 use gradient corrections 
 use of overlap-Matrix (Vanderbilt PP)
 Gauss-broadening in eV      SIGMA  =   0.01


--------------------------------------------------------------------------------------------------------


  energy-cutoff  :      500.00
  volume of cell :     2616.76
      direct lattice vectors                 reciprocal lattice vectors
     0.000000000 10.937333691 10.937333691    -0.045714981  0.045714981  0.045714981
    10.937333691  0.000000000 10.937333691     0.045714981 -0.045714981  0.045714981
    10.937333691 10.937333691  0.000000000     0.045714981  0.045714981 -0.045714981

  length of vectors
    15.467725642 15.467725642 15.467725642     0.079180669  0.079180669  0.079180669


 
 k-points in units of 2pi/SCALE and weight: KPOINTS File, automatically generated by
   0.00000000  0.00000000  0.00000000       0.125
  -0.02285749  0.02285749  0.02285749       0.125
   0.02285749 -0.02285749  0.02285749       0.125
   0.00000000  0.00000000  0.04571498       0.125
   0.02285749  0.02285749 -0.02285749       0.125
   0.00000000  0.04571498  0.00000000       0.125
   0.04571498  0.00000000  0.00000000       0.125
   0.02285749  0.02285749  0.02285749       0.125
 
 k-points in reciprocal lattice and weights: KPOINTS File, automatically generated by
   0.00000000  0.00000000  0.00000000       0.125
   0.50000000  0.00000000  0.00000000       0.125
   0.00000000  0.50000000  0.00000000       0.125
   0.50000000  0.50000000  0.00000000       0.125
   0.00000000  0.00000000  0.50000000       0.125
   0.50000000  0.00000000  0.50000000       0.125
   0.00000000  0.50000000  0.50000000       0.125
   0.50000000  0.50000000  0.50000000       0.125
 
 position of ions in fractional coordinates (direct lattice) 
   0.00107817  0.99505036  0.00384552
   0.24176813  0.00840905  0.99874725
   0.48843562  0.02215779  0.98491776
   0.74385768  0.00150393  0.00188862
   0.00171376  0.24666610  0.00227148
   0.25140925  0.24416985  0.00267544
   0.49493652  0.26354406  0.99887783
   0.74723599  0.26057168  0.99425586
   0.99957914  0.51043115  0.98892933
   0.24699005  0.49598179  0.00605986
   0.50309415  0.49859185  0.00003177
   0.75405783  0.50103171  0.00014107
   0.99634173  0.74729668  0.99774475
   0.25348241  0.75019001  0.99904209
   0.49968172  0.74122134  0.00222115
   0.74693620  0.74423479  0.01212750
   0.00686021  0.00890402  0.23558792
   0.25996674  0.00400109  0.24686266
   0.49874930  0.99932458  0.25305163
   0.74141470  0.01527390  0.24819857
   0.99743787  0.23544489  0.26175170
   0.26366961  0.24323470  0.25314185
   0.50137924  0.26553788  0.24419083
   0.74195827  0.24238258  0.24888401
   0.99210480  0.51031417  0.24594683
   0.24350156  0.51327086  0.24910075
   0.50290099  0.49752241  0.24054831
   0.74840135  0.49376637  0.25171806
   0.00030513  0.74922269  0.24827574
   0.24036410  0.75046901  0.25653220
   0.50491892  0.74769912  0.24736088
   0.76302066  0.75369941  0.24036237
   0.98958795  0.00503744  0.50671848
   0.26126480  0.98997435  0.49810310
   0.49042040  0.00417745  0.50215251
   0.74336608  0.00358926  0.49891527
   0.99758859  0.25033939  0.48780524
   0.25393208  0.25764016  0.49596690
   0.50441564  0.25182823  0.50800082
   0.74995743  0.24293216  0.50019591
   0.00386650  0.49970004  0.49693060
   0.25434303  0.49131424  0.50723753
   0.50071842  0.48240109  0.50722226
   0.74997250  0.50368553  0.50221923
   0.00253042  0.75715474  0.50065012
   0.24469326  0.74711047  0.50286820
   0.50262029  0.74509948  0.49922979
   0.73895920  0.76247036  0.49999722
   0.00695920  0.99554331  0.74445981
   0.24969557  0.00757585  0.74797155
   0.50001337  0.00357628  0.74237440
   0.74017807  0.99605440  0.75584672
   0.00217890  0.24110459  0.75196570
   0.25679643  0.23894779  0.75053009
   0.49190909  0.25570121  0.74791619
   0.74336478  0.23698525  0.75514420
   0.00601798  0.49665012  0.74134533
   0.24790325  0.50573651  0.75642643
   0.50983260  0.49723168  0.74855358
   0.74442280  0.50130788  0.75674454
   0.98944139  0.76428724  0.76132338
   0.24783532  0.75125531  0.74393256
   0.49847755  0.74659635  0.74791610
   0.74975967  0.74641995  0.75874000
   0.06801555  0.06790969  0.04469907
   0.30957654  0.05860676  0.06630310
   0.56486821  0.05700947  0.06362871
   0.79651880  0.06615738  0.06898710
   0.07087856  0.31840017  0.05780552
   0.30587772  0.31099186  0.07055851
   0.55553675  0.30892055  0.06780418
   0.79965796  0.31423468  0.06637378
   0.06384344  0.56000043  0.06181439
   0.32437628  0.55673595  0.05408882
   0.57388566  0.55896982  0.05108585
   0.80052755  0.57165498  0.06329883
   0.05243275  0.81840288  0.05487478
   0.31424198  0.81699421  0.05446082
   0.55732061  0.81454170  0.06609880
   0.81195393  0.81887306  0.05764785
   0.06577801  0.05485511  0.30824475
   0.32037588  0.06834441  0.31219750
   0.55446979  0.06416772  0.31332294
   0.80034829  0.06317685  0.31658686
   0.05167018  0.31411996  0.30711409
   0.30941312  0.32051517  0.30512582
   0.56444167  0.30827106  0.31556820
   0.80801399  0.31621535  0.32155652
   0.06227475  0.57154248  0.30806925
   0.31337280  0.55776816  0.32233780
   0.54927461  0.56873080  0.30720745
   0.80440185  0.57751557  0.30142753
   0.05025220  0.81284621  0.31844395
   0.30584832  0.79541067  0.32249547
   0.56816591  0.80805729  0.31134752
   0.82249335  0.80235267  0.31587214
   0.07130970  0.05765588  0.55762653
   0.30129798  0.05748296  0.56314351
   0.55883573  0.05284046  0.57248913
   0.81394509  0.05613298  0.56423548
   0.05944081  0.31438059  0.56216660
   0.32140703  0.30169329  0.55888992
   0.56496749  0.31014409  0.56140981
   0.81643082  0.31036179  0.55967210
   0.05900405  0.56773166  0.56477577
   0.32605099  0.54664884  0.56617919
   0.55731232  0.56074564  0.57023853
   0.81421562  0.57392278  0.56616943
   0.07175417  0.80654776  0.56486413
   0.31445384  0.81080765  0.56544108
   0.56761975  0.81094850  0.56345299
   0.81488523  0.80962634  0.55734470
   0.06787435  0.06034695  0.80785979
   0.30474039  0.05497566  0.82025471
   0.56358875  0.06125432  0.80970549
   0.81150594  0.06845574  0.79805622
   0.06661726  0.31558184  0.81389672
   0.31310003  0.30851772  0.81509432
   0.55956600  0.31493391  0.81418076
   0.81413476  0.31944985  0.80403488
   0.05714632  0.57542391  0.80069326
   0.31062655  0.55882740  0.82374676
   0.55262827  0.56422300  0.81566275
   0.81905033  0.55200794  0.81413545
   0.06972360  0.81144121  0.81072199
   0.31274355  0.82365695  0.80093195
   0.56188195  0.81942299  0.81254930
   0.81493758  0.81744539  0.80655413
 
 position of ions in cartesian coordinates  (Angst):
  10.92525751  0.05385196 10.89499009
  11.01560455 13.56793069  2.73627129
  11.01472130 16.11455750  5.58453042
   0.03710543  8.15647613  8.15226859
   2.72271333  0.04358789  2.71661335
   2.69982921  2.77900904  5.42031400
  13.80752949 16.33834603  8.29575519
  13.72446758 19.04727751 11.02272886
  16.39900598 21.74898068 16.51548643
   5.49099700  2.76769126  8.12613094
   5.45361290  5.50285614 10.95577404
   5.48149400  8.24892506 13.72733312
  19.08610042 21.80998918 19.07075509
  19.13193519 13.69927840 10.97750017
   8.13127854  5.48947912 13.57217075
   8.27258666  8.30213298 16.30943470
   2.67408992  2.65173608  0.17241871
   2.74378055  5.54336224  2.88710428
  13.69765658  8.22269763 16.38493394
   2.88168636 10.82373059  8.27615572
   5.43800504 13.77217654 13.48445015
   5.42903598  5.65253939  5.54418160
   5.57507292  8.15454856  8.38802840
   5.37314657 10.83717267 10.76606433
   8.27147892 13.54098386 16.43245761
   8.33831273  5.38775584  8.27707252
   8.07252577  8.13135308 10.94196450
   8.15361196 10.93863967 13.58600278
  10.90997316  2.71881192  8.19783589
  11.01390818  5.43472065 10.83707234
  10.88330319  8.22793513 13.70030139
  10.87238536 10.97433503 16.58887348
   5.59724520 16.36560266 10.87854975
  16.27559962  8.30546015 13.68522015
   5.53789966 10.85610108  5.40958165
   5.49605963 13.58724561  8.16969974
   8.07333417 16.24624804 13.64900474
   8.24245182  8.20189537  5.59523628
   8.31050386 11.07313662  8.27129156
   8.12783962 13.67334415 10.85956472
  10.90048194  5.47738507  5.50767532
  10.92149389  8.32966073  8.15550244
  10.82384079 11.02418356 10.75270606
  11.00191598 13.69563879 13.71167623
  13.75703143  5.50345344  8.30893007
  13.67143373  8.17632908 10.84768828
  13.60964451 10.95756870 13.64672751
  13.80802926 13.55087982 16.42163618
  19.03099476  8.21852042 10.96470447
   8.26367396 10.91181812  2.81386330
   8.15871156 13.58840963  5.50792806
  19.16112718 16.36252239 18.98975392
  10.86154123  8.24833118  2.66087274
  10.82224984 11.01746630  5.42211996
  10.97689842 13.56038290  8.17686334
  10.85125084 16.38969272 10.72241541
  13.54036932  8.17416186  5.49784875
  13.80469731 10.98468885  8.24280956
  13.62556918 13.76338964 11.01459816
  13.75973919 16.41876814 13.62497216
  16.68611242 19.14869849 19.18111517
  16.35336870 10.84729627 10.92738764
  16.34598134 13.63222324 13.61778873
  16.46243666 16.49896421 16.36421577
   1.23163951  1.23279736  1.48665964
   1.36618082  4.11112107  4.02694361
   1.31946002  6.87408054  6.80168367
   1.47812022  9.46632683  9.43537722
   4.11468723  1.40746071  4.25767136
   4.17314376  4.11720861  6.74690843
   4.12036411  6.81768781  9.45485794
   4.16284171  9.47207816 12.18301551
   6.80099615  1.37436158  6.82318859
   6.68079441  4.13939909  9.63701849
   6.67238252  6.83552204 12.39041848
   6.94470170  9.44795741 15.00801817
   9.55132910  1.17365826  9.52461985
   9.53139441  4.03262550 12.37270767
   9.63185894  6.81854607 15.00451582
   9.58680176  9.51112487 17.83689903
   3.97134432  4.09081173  1.31940466
   4.16211389  6.91866617  4.25156349
   4.12874121  9.49133864  6.76624486
   4.15360243 12.21629247  9.44466254
   6.79464412  3.92414321  4.00076884
   6.84284428  6.72141749  6.88973597
   6.82313812  9.62496160  9.54515035
   6.97552375 12.35448962 12.29607140
   9.62060711  4.05057592  6.93227056
   9.62601247  6.95297887  9.52795927
   9.58042892  9.36763017 12.22799823
   9.61329404 12.09482493 15.11449193
  12.37329797  4.03255277  9.43999534
  12.22691251  6.87240569 12.04483711
  12.24330387  9.61953186 15.05221232
  12.23039795 12.45068322 17.77148313
   6.72954894  6.87888537  1.41053956
   6.78799881  9.45468510  3.92410684
   6.83943835 12.37367750  6.69010664
   6.78517687 15.07362082  9.51633419
   9.58708908  6.79872760  4.08860940
   9.41248573  9.62810145  6.81505607
   9.53247579 12.31956437  9.57138732
   9.51585096 15.05089686 12.32410683
  12.38661167  6.82248807  6.85481762
  12.17137155  9.75861921  9.54500920
  12.36995126 12.33239987 12.22857297
  12.46956887 15.09773186 15.18253280
  14.99958938  6.96290672  9.60628124
  15.05249159  9.62370438 12.30736042
  15.03228765 12.37091990 15.07786088
  14.95101850 15.00853665 17.76782513
   9.49586680  9.57819643  1.40239911
   9.57268660 12.30444680  3.93433451
   9.52597809 15.02017741  6.83411718
   9.47733043 17.60431844  9.62443445
  12.35348393  9.63047521  4.18023904
  12.28931983 12.33943800  6.79884077
  12.34950392 15.02512675  9.56469740
  12.28792739 17.69846125 12.39839311
  15.05105275  9.38247779  6.91863176
  15.12167502 12.40701940  9.50950798
  15.09227087 14.96545539 12.21537498
  14.94196610 17.86269792 14.99572179
  17.74214022  9.62972716  9.63759353
  17.76867092 12.18064059 12.42919150
  17.84942552 15.03261321 15.10779313
  17.76222472 17.73479588 17.85391723
 


--------------------------------------------------------------------------------------------------------


 k-point  1 :   0.0000 0.0000 0.0000  plane waves:   66299
 k-point  2 :   0.5000 0.0000 0.0000  plane waves:   66394
 k-point  3 :   0.0000 0.5000 0.0000  plane waves:   66394
 k-point  4 :   0.5000 0.5000 0.0000  plane waves:   66552
 k-point  5 :   0.0000 0.0000 0.5000  plane waves:   66394
 k-point  6 :   0.5000 0.0000 0.5000  plane waves:   66552
 k-point  7 :   0.0000 0.5000 0.5000  plane waves:   66552
 k-point  8 :   0.5000 0.5000 0.5000  plane waves:   66394

 maximum and minimum number of plane-waves per node :      4207     4110

 maximum number of plane-waves:     66552
 maximum index in each direction: 
   IXMAX=   28   IYMAX=   28   IZMAX=   28
   IXMIN=  -28   IYMIN=  -28   IZMIN=  -28


 parallel 3D FFT for wavefunctions:
    minimum data exchange during FFTs selected (reduces bandwidth)
 parallel 3D FFT for charge:
    minimum data exchange during FFTs selected (reduces bandwidth)


 total amount of memory used by VASP MPI-rank0   221701. kBytes
=======================================================================

   base      :      30000. kBytes
   nonl-proj :      10690. kBytes
   fftplans  :      66746. kBytes
   grid      :      26864. kBytes
   one-center:         24. kBytes
   wavefun   :      87377. kBytes
 
     INWAV:  cpu time    0.0000: real time    0.0002
 Broyden mixing: mesh for mixing (old mesh)
   NGX = 57   NGY = 57   NGZ = 57
  (NGX  =240   NGY  =240   NGZ  =240)
  gives a total of 185193 points

 initial charge density was supplied:
 charge density of overlapping atoms calculated
 number of electron     512.0000000 magnetization 
 keeping initial charge density in first step


--------------------------------------------------------------------------------------------------------


 Maximum index for augmentation-charges         5602 (set IRDMAX)


--------------------------------------------------------------------------------------------------------


 First call to EWALD:  gamma=   0.129
 Maximum number of real-space cells 3x 3x 3
 Maximum number of reciprocal cells 3x 3x 3

    FEWALD:  cpu time    0.0067: real time    0.0067


--------------------------------------- Iteration      1(   1)  ---------------------------------------


    POTLOK:  cpu time    0.4901: real time    0.5000
    SETDIJ:  cpu time    0.5054: real time    0.5057
     EDDAV:  cpu time   69.3484: real time   69.3746
       DOS:  cpu time    0.0028: real time    0.0028
    --------------------------------------------
      LOOP:  cpu time   70.3467: real time   70.3830

 eigenvalue-minimisations  :  5152
 total energy-change (2. order) : 0.1382037E+04  (-0.1908108E+05)
 number of electron     512.0000000 magnetization 
 augmentation part      512.0000000 magnetization 

 Free energy of the ion-electron system (eV)
  ---------------------------------------------------
  alpha Z        PSCENC =       210.77028614
  Ewald energy   TEWEN  =    -14475.74033453
  -Hartree energ DENC   =      -754.14718908
  -exchange      EXHF   =         0.00000000
  -V(xc)+E(xc)   XCENC  =     -1195.42599920
  PAW double counting   =      4221.13331941    -1969.18571412
  entropy T*S    EENTRO =        -0.00059307
  eigenvalues    EBANDS =      2152.15199336
  atomic energy  EATOM  =     13192.48085998
  Solvation  Ediel_sol  =         0.00000000
  ---------------------------------------------------
  free energy    TOTEN  =      1382.03662891 eV

  energy without entropy =     1382.03722198  energy(sigma->0) =     1382.03692544


--------------------------------------------------------------------------------------------------------




--------------------------------------- Iteration      1(   2)  ---------------------------------------


     EDDAV:  cpu time   78.7967: real time   78.8267
       DOS:  cpu time    0.0013: real time    0.0013
    --------------------------------------------
      LOOP:  cpu time   78.7980: real time   78.8280

 eigenvalue-minimisations  :  6112
 total energy-change (2. order) :-0.1919653E+04  (-0.1825555E+04)
 number of electron     512.0000000 magnetization 
 augmentation part      512.0000000 magnetization 

 Free energy of the ion-electron system (eV)
  ---------------------------------------------------
  alpha Z        PSCENC =       210.77028614
  Ewald energy   TEWEN  =    -14475.74033453
  -Hartree energ DENC   =      -754.14718908
  -exchange      EXHF   =         0.00000000
  -V(xc)+E(xc)   XCENC  =     -1195.42599920
  PAW double counting   =      4221.13331941    -1969.18571412
  entropy T*S    EENTRO =        -0.00000000
  eigenvalues    EBANDS =       232.49793056
  atomic energy  EATOM  =     13192.48085998
  Solvation  Ediel_sol  =         0.00000000
  ---------------------------------------------------
  free energy    TOTEN  =      -537.61684082 eV

  energy without entropy =     -537.61684082  energy(sigma->0) =     -537.61684082


--------------------------------------------------------------------------------------------------------




--------------------------------------- Iteration      1(   3)  ---------------------------------------


     EDDAV:  cpu time   80.4447: real time   80.4778
       DOS:  cpu time    0.0009: real time    0.0009
    --------------------------------------------
      LOOP:  cpu time   80.4457: real time   80.4787

 eigenvalue-minimisations  :  6280
 total energy-change (2. order) :-0.1495324E+03  (-0.1465451E+03)
 number of electron     512.0000000 magnetization 
 augmentation part      512.0000000 magnetization 

 Free energy of the ion-electron system (eV)
  ---------------------------------------------------
  alpha Z        PSCENC =       210.77028614
  Ewald energy   TEWEN  =    -14475.74033453
  -Hartree energ DENC   =      -754.14718908
  -exchange      EXHF   =         0.00000000
  -V(xc)+E(xc)   XCENC  =     -1195.42599920
  PAW double counting   =      4221.13331941    -1969.18571412
  entropy T*S    EENTRO =        -0.00000000
  eigenvalues    EBANDS =        82.96555691
  atomic energy  EATOM  =     13192.48085998
  Solvation  Ediel_sol  =         0.00000000
  ---------------------------------------------------
  free energy    TOTEN  =      -687.14921447 eV

  energy without entropy =     -687.14921447  energy(sigma->0) =     -687.14921447


--------------------------------------------------------------------------------------------------------




--------------------------------------- Iteration      1(   4)  ---------------------------------------


     EDDAV:  cpu time   79.5700: real time   79.6119
       DOS:  cpu time    0.0010: real time    0.0010
    --------------------------------------------
      LOOP:  cpu time   79.5710: real time   79.6129

 eigenvalue-minimisations  :  6168
 total energy-change (2. order) :-0.4275535E+01  (-0.4240366E+01)
 number of electron     512.0000000 magnetization 
 augmentation part      512.0000000 magnetization 

 Free energy of the ion-electron system (eV)
  ---------------------------------------------------
  alpha Z        PSCENC =       210.77028614
  Ewald energy   TEWEN  =    -14475.74033453
  -Hartree energ DENC   =      -754.14718908
  -exchange      EXHF   =         0.00000000
  -V(xc)+E(xc)   XCENC  =     -1195.42599920
  PAW double counting   =      4221.13331941    -1969.18571412
  entropy T*S    EENTRO =        -0.00000000
  eigenvalues    EBANDS =        78.69002235
  atomic energy  EATOM  =     13192.48085998
  Solvation  Ediel_sol  =         0.00000000
  ---------------------------------------------------
  free energy    TOTEN  =      -691.42474903 eV

  energy without entropy =     -691.42474903  energy(sigma->0) =     -691.42474903


--------------------------------------------------------------------------------------------------------




--------------------------------------- Iteration      1(   5)  ---------------------------------------


     EDDAV:  cpu time   80.7896: real time   80.8202
       DOS:  cpu time    0.0010: real time    0.0010
    CHARGE:  cpu time    3.1197: real time    3.1203
    MIXING:  cpu time    0.0331: real time    0.0331
    --------------------------------------------
      LOOP:  cpu time   83.9434: real time   83.9747

 eigenvalue-minimisations  :  6320
 total energy-change (2. order) :-0.1508469E+00  (-0.1504592E+00)
 number of electron     511.9999998 magnetization 
 augmentation part      -30.1720063 magnetization 

 Broyden mixing:
  rms(total) = 0.23938E+01    rms(broyden)= 0.23938E+01
  rms(prec ) = 0.28991E+01
  weight for this iteration     100.00

 Free energy of the ion-electron system (eV)
  ---------------------------------------------------
  alpha Z        PSCENC =       210.77028614
  Ewald energy   TEWEN  =    -14475.74033453
  -Hartree energ DENC   =      -754.14718908
  -exchange      EXHF   =         0.00000000
  -V(xc)+E(xc)   XCENC  =     -1195.42599920
  PAW double counting   =      4221.13331941    -1969.18571412
  entropy T*S    EENTRO =        -0.00000000
  eigenvalues    EBANDS =        78.53917548
  atomic energy  EATOM  =     13192.48085998
  Solvation  Ediel_sol  =         0.00000000
  ---------------------------------------------------
  free energy    TOTEN  =      -691.57559590 eV

  energy without entropy =     -691.57559590  energy(sigma->0) =     -691.57559590


--------------------------------------------------------------------------------------------------------




--------------------------------------- Iteration      1(   6)  ---------------------------------------


    POTLOK:  cpu time    0.4888: real time    0.4912
    SETDIJ:  cpu time    0.5117: real time    0.5117
     EDDAV:  cpu time   76.5077: real time   76.5286
       DOS:  cpu time    0.0020: real time    0.0019
    CHARGE:  cpu time    3.1427: real time    3.1432
    MIXING:  cpu time    0.0267: real time    0.0267
    --------------------------------------------
      LOOP:  cpu time   80.6797: real time   80.7034

 eigenvalue-minimisations  :  5888
 total energy-change (2. order) : 0.8357603E+01  (-0.5628097E+00)
 number of electron     511.9999998 magnetization 
 augmentation part      -29.8310529 magnetization 

 Broyden mixing:
  rms(total) = 0.14224E+01    rms(broyden)= 0.14224E+01
  rms(prec ) = 0.17141E+01
  weight for this iteration     100.00

 eigenvalues of (default mixing * dielectric matrix)
  average eigenvalue GAMMA=   2.4332
  2.4332

 Free energy of the ion-electron system (eV)
  ---------------------------------------------------
  alpha Z        PSCENC =       210.77028614
  Ewald energy   TEWEN  =    -14475.74033453
  -Hartree energ DENC   =      -848.98417347
  -exchange      EXHF   =         0.00000000
  -V(xc)+E(xc)   XCENC  =     -1180.79538929
  PAW double counting   =      4464.78637004    -2219.58175715
  entropy T*S    EENTRO =        -0.00000000
  eigenvalues    EBANDS =       173.84614541
  atomic energy  EATOM  =     13192.48085998
  Solvation  Ediel_sol  =         0.00000000
  ---------------------------------------------------
  free energy    TOTEN  =      -683.21799286 eV

  energy without entropy =     -683.21799286  energy(sigma->0) =     -683.21799286


--------------------------------------------------------------------------------------------------------




--------------------------------------- Iteration      1(   7)  ---------------------------------------


    POTLOK:  cpu time    0.4896: real time    0.4930
    SETDIJ:  cpu time    0.5126: real time    0.5129
     EDDAV:  cpu time   75.9284: real time   75.9506
       DOS:  cpu time    0.0011: real time    0.0011
    CHARGE:  cpu time    3.1137: real time    3.1142
    MIXING:  cpu time    0.0384: real time    0.0384
    --------------------------------------------
      LOOP:  cpu time   80.0839: real time   80.1102

 eigenvalue-minimisations  :  5832
 total energy-change (2. order) : 0.3537485E+01  (-0.1098213E+01)
 number of electron     511.9999998 magnetization 
 augmentation part      -29.3830562 magnetization 

 Broyden mixing:
  rms(total) = 0.15235E+00    rms(broyden)= 0.15235E+00
  rms(prec ) = 0.19544E+00
  weight for this iteration     100.00

 eigenvalues of (default mixing * dielectric matrix)
  average eigenvalue GAMMA=   2.1631
  2.1631  2.1631

 Free energy of the ion-electron system (eV)
  ---------------------------------------------------
  alpha Z        PSCENC =       210.77028614
  Ewald energy   TEWEN  =    -14475.74033453
  -Hartree energ DENC   =      -999.69542736
  -exchange      EXHF   =         0.00000000
  -V(xc)+E(xc)   XCENC  =     -1156.80433681
  PAW double counting   =      4784.23991540    -2547.55782258
  entropy T*S    EENTRO =        -0.00000000
  eigenvalues    EBANDS =       312.62635183
  atomic energy  EATOM  =     13192.48085998
  Solvation  Ediel_sol  =         0.00000000
  ---------------------------------------------------
  free energy    TOTEN  =      -679.68050794 eV

  energy without entropy =     -679.68050794  energy(sigma->0) =     -679.68050794


--------------------------------------------------------------------------------------------------------




--------------------------------------- Iteration      1(   8)  ---------------------------------------


    POTLOK:  cpu time    0.4900: real time    0.4916
    SETDIJ:  cpu time    0.5186: real time    0.5186
     EDDAV:  cpu time   75.7976: real time   75.8324
       DOS:  cpu time    0.0012: real time    0.0012
    CHARGE:  cpu time    3.0961: real time    3.0966
    MIXING:  cpu time    0.0356: real time    0.0356
    --------------------------------------------
      LOOP:  cpu time   79.9392: real time   79.9761

 eigenvalue-minimisations  :  5816
 total energy-change (2. order) :-0.6228424E-01  (-0.1019672E+00)
 number of electron     511.9999998 magnetization 
 augmentation part      -29.4528057 magnetization 

 Broyden mixing:
  rms(total) = 0.58276E-01    rms(broyden)= 0.58276E-01
  rms(prec ) = 0.72744E-01
  weight for this iteration     100.00

 eigenvalues of (default mixing * dielectric matrix)
  average eigenvalue GAMMA=   2.0285
  2.6896  1.6980  1.6980

 Free energy of the ion-electron system (eV)
  ---------------------------------------------------
  alpha Z        PSCENC =       210.77028614
  Ewald energy   TEWEN  =    -14475.74033453
  -Hartree energ DENC   =      -992.88730113
  -exchange      EXHF   =         0.00000000
  -V(xc)+E(xc)   XCENC  =     -1156.96262772
  PAW double counting   =      4734.51698578    -2496.28935621
  entropy T*S    EENTRO =        -0.00000000
  eigenvalues    EBANDS =       304.36869551
  atomic energy  EATOM  =     13192.48085998
  Solvation  Ediel_sol  =         0.00000000
  ---------------------------------------------------
  free energy    TOTEN  =      -679.74279217 eV

  energy without entropy =     -679.74279217  energy(sigma->0) =     -679.74279217


--------------------------------------------------------------------------------------------------------




--------------------------------------- Iteration      1(   9)  ---------------------------------------


    POTLOK:  cpu time    0.4917: real time    0.4924
    SETDIJ:  cpu time    0.5148: real time    0.5149
     EDDAV:  cpu time   78.5642: real time   78.5913
       DOS:  cpu time    0.0013: real time    0.0013
    CHARGE:  cpu time    3.1199: real time    3.1212
    MIXING:  cpu time    0.0278: real time    0.0278
    --------------------------------------------
      LOOP:  cpu time   82.7196: real time   82.7488

 eigenvalue-minimisations  :  6104
 total energy-change (2. order) :-0.1960102E-01  (-0.9231027E-02)
 number of electron     511.9999998 magnetization 
 augmentation part      -29.4560320 magnetization 

 Broyden mixing:
  rms(total) = 0.27959E-01    rms(broyden)= 0.27959E-01
  rms(prec ) = 0.32408E-01
  weight for this iteration     100.00

 eigenvalues of (default mixing * dielectric matrix)
  average eigenvalue GAMMA=   1.8176
  2.5814  0.9386  1.8753  1.8753

 Free energy of the ion-electron system (eV)
  ---------------------------------------------------
  alpha Z        PSCENC =       210.77028614
  Ewald energy   TEWEN  =    -14475.74033453
  -Hartree energ DENC   =      -999.53894268
  -exchange      EXHF   =         0.00000000
  -V(xc)+E(xc)   XCENC  =     -1155.82652250
  PAW double counting   =      4738.69817705    -2500.59263411
  entropy T*S    EENTRO =        -0.00000000
  eigenvalues    EBANDS =       309.98671744
  atomic energy  EATOM  =     13192.48085998
  Solvation  Ediel_sol  =         0.00000000
  ---------------------------------------------------
  free energy    TOTEN  =      -679.76239319 eV

  energy without entropy =     -679.76239319  energy(sigma->0) =     -679.76239319


--------------------------------------------------------------------------------------------------------




--------------------------------------- Iteration      1(  10)  ---------------------------------------


    POTLOK:  cpu time    0.4902: real time    0.4919
    SETDIJ:  cpu time    0.5138: real time    0.5139
     EDDAV:  cpu time   77.2594: real time   77.2748
       DOS:  cpu time    0.0017: real time    0.0017
    CHARGE:  cpu time    3.0981: real time    3.0985
    MIXING:  cpu time    0.0445: real time    0.0445
    --------------------------------------------
      LOOP:  cpu time   81.4077: real time   81.4254

 eigenvalue-minimisations  :  5968
 total energy-change (2. order) :-0.2555169E-02  (-0.9393358E-03)
 number of electron     511.9999998 magnetization 
 augmentation part      -29.4659642 magnetization 

 Broyden mixing:
  rms(total) = 0.97508E-02    rms(broyden)= 0.97508E-02
  rms(prec ) = 0.11944E-01
  weight for this iteration     100.00

 eigenvalues of (default mixing * dielectric matrix)
  average eigenvalue GAMMA=   1.8628
  2.6887  2.6887  1.5134  1.5134  0.9099

 Free energy of the ion-electron system (eV)
  ---------------------------------------------------
  alpha Z        PSCENC =       210.77028614
  Ewald energy   TEWEN  =    -14475.74033453
  -Hartree energ DENC   =      -998.27823975
  -exchange      EXHF   =         0.00000000
  -V(xc)+E(xc)   XCENC  =     -1156.01119772
  PAW double counting   =      4731.06860247    -2492.77238959
  entropy T*S    EENTRO =        -0.00000000
  eigenvalues    EBANDS =       308.71746463
  atomic energy  EATOM  =     13192.48085998
  Solvation  Ediel_sol  =         0.00000000
  ---------------------------------------------------
  free energy    TOTEN  =      -679.76494836 eV

  energy without entropy =     -679.76494836  energy(sigma->0) =     -679.76494836


--------------------------------------------------------------------------------------------------------




--------------------------------------- Iteration      1(  11)  ---------------------------------------


    POTLOK:  cpu time    0.4889: real time    0.4922
    SETDIJ:  cpu time    0.5138: real time    0.5138
     EDDAV:  cpu time   76.1615: real time   76.1883
       DOS:  cpu time    0.0010: real time    0.0010
    CHARGE:  cpu time    3.1050: real time    3.1057
    MIXING:  cpu time    0.0476: real time    0.0476
    --------------------------------------------
      LOOP:  cpu time   80.3177: real time   80.3485

 eigenvalue-minimisations  :  5848
 total energy-change (2. order) :-0.1210074E-02  (-0.1889068E-03)
 number of electron     511.9999998 magnetization 
 augmentation part      -29.4679248 magnetization 

 Broyden mixing:
  rms(total) = 0.36470E-02    rms(broyden)= 0.36470E-02
  rms(prec ) = 0.51603E-02
  weight for this iteration     100.00

 eigenvalues of (default mixing * dielectric matrix)
  average eigenvalue GAMMA=   1.7914
  2.8382  2.1260  2.1260  1.5024  1.2938  0.8622

 Free energy of the ion-electron system (eV)
  ---------------------------------------------------
  alpha Z        PSCENC =       210.77028614
  Ewald energy   TEWEN  =    -14475.74033453
  -Hartree energ DENC   =      -998.29912787
  -exchange      EXHF   =         0.00000000
  -V(xc)+E(xc)   XCENC  =     -1156.00881534
  PAW double counting   =      4727.66765979    -2489.29558420
  entropy T*S    EENTRO =        -0.00000000
  eigenvalues    EBANDS =       308.65889759
  atomic energy  EATOM  =     13192.48085998
  Solvation  Ediel_sol  =         0.00000000
  ---------------------------------------------------
  free energy    TOTEN  =      -679.76615844 eV

  energy without entropy =     -679.76615844  energy(sigma->0) =     -679.76615844


--------------------------------------------------------------------------------------------------------




--------------------------------------- Iteration      1(  12)  ---------------------------------------


    POTLOK:  cpu time    0.4886: real time    0.4917
    SETDIJ:  cpu time    0.5142: real time    0.5142
     EDDAV:  cpu time   79.0061: real time   79.0272
       DOS:  cpu time    0.0010: real time    0.0010
    CHARGE:  cpu time    3.0969: real time    3.0974
    MIXING:  cpu time    0.0495: real time    0.0495
    --------------------------------------------
      LOOP:  cpu time   83.1563: real time   83.1810

 eigenvalue-minimisations  :  6136
 total energy-change (2. order) :-0.6254266E-04  (-0.4192312E-04)
 number of electron     511.9999998 magnetization 
 augmentation part      -29.4659773 magnetization 

 Broyden mixing:
  rms(total) = 0.18064E-02    rms(broyden)= 0.18064E-02
  rms(prec ) = 0.21475E-02
  weight for this iteration     100.00

 eigenvalues of (default mixing * dielectric matrix)
  average eigenvalue GAMMA=   1.8155
  3.1304  2.6626  1.7736  1.7736  0.8948  1.2366  1.2366

 Free energy of the ion-electron system (eV)
  ---------------------------------------------------
  alpha Z        PSCENC =       210.77028614
  Ewald energy   TEWEN  =    -14475.74033453
  -Hartree energ DENC   =      -998.89801535
  -exchange      EXHF   =         0.00000000
  -V(xc)+E(xc)   XCENC  =     -1155.94338457
  PAW double counting   =      4728.94353886    -2490.61555278
  entropy T*S    EENTRO =        -0.00000000
  eigenvalues    EBANDS =       309.23638126
  atomic energy  EATOM  =     13192.48085998
  Solvation  Ediel_sol  =         0.00000000
  ---------------------------------------------------
  free energy    TOTEN  =      -679.76622098 eV

  energy without entropy =     -679.76622098  energy(sigma->0) =     -679.76622098


--------------------------------------------------------------------------------------------------------




--------------------------------------- Iteration      1(  13)  ---------------------------------------


    POTLOK:  cpu time    0.4874: real time    0.4900
    SETDIJ:  cpu time    0.5170: real time    0.5173
     EDDAV:  cpu time   75.1347: real time   75.1572
       DOS:  cpu time    0.0013: real time    0.0013
    CHARGE:  cpu time    3.1063: real time    3.1077
    MIXING:  cpu time    0.0344: real time    0.0344
    --------------------------------------------
      LOOP:  cpu time   79.2811: real time   79.3079

 eigenvalue-minimisations  :  5752
 total energy-change (2. order) :-0.2577586E-04  (-0.1056607E-04)
 number of electron     511.9999998 magnetization 
 augmentation part      -29.4660009 magnetization 

 Broyden mixing:
  rms(total) = 0.49245E-03    rms(broyden)= 0.49242E-03
  rms(prec ) = 0.65568E-03
  weight for this iteration     100.00

 eigenvalues of (default mixing * dielectric matrix)
  average eigenvalue GAMMA=   1.7841
  3.1280  2.5105  1.9495  1.9495  1.4040  1.4040  0.9639  0.9639

 Free energy of the ion-electron system (eV)
  ---------------------------------------------------
  alpha Z        PSCENC =       210.77028614
  Ewald energy   TEWEN  =    -14475.74033453
  -Hartree energ DENC   =      -998.88416810
  -exchange      EXHF   =         0.00000000
  -V(xc)+E(xc)   XCENC  =     -1155.95378152
  PAW double counting   =      4728.39172937    -2490.05247661
  entropy T*S    EENTRO =        -0.00000000
  eigenvalues    EBANDS =       309.22163850
  atomic energy  EATOM  =     13192.48085998
  Solvation  Ediel_sol  =         0.00000000
  ---------------------------------------------------
  free energy    TOTEN  =      -679.76624675 eV

  energy without entropy =     -679.76624675  energy(sigma->0) =     -679.76624675


--------------------------------------------------------------------------------------------------------




--------------------------------------- Iteration      1(  14)  ---------------------------------------


    POTLOK:  cpu time    0.4940: real time    0.4977
    SETDIJ:  cpu time    0.5167: real time    0.5167
     EDDAV:  cpu time   79.9309: real time   79.9566
       DOS:  cpu time    0.0011: real time    0.0011
    CHARGE:  cpu time    3.0713: real time    3.0719
    MIXING:  cpu time    0.0251: real time    0.0251
    --------------------------------------------
      LOOP:  cpu time   84.0391: real time   84.0691

 eigenvalue-minimisations  :  6248
 total energy-change (2. order) :-0.4369367E-05  (-0.8712317E-06)
 number of electron     511.9999998 magnetization 
 augmentation part      -29.4658546 magnetization 

 Broyden mixing:
  rms(total) = 0.17222E-03    rms(broyden)= 0.17215E-03
  rms(prec ) = 0.23686E-03
  weight for this iteration     100.00

 eigenvalues of (default mixing * dielectric matrix)
  average eigenvalue GAMMA=   1.7739
  3.2359  2.6318  2.1357  1.6535  1.6535  1.4794  0.9271  1.0422  1.2058

 Free energy of the ion-electron system (eV)
  ---------------------------------------------------
  alpha Z        PSCENC =       210.77028614
  Ewald energy   TEWEN  =    -14475.74033453
  -Hartree energ DENC   =      -998.92941825
  -exchange      EXHF   =         0.00000000
  -V(xc)+E(xc)   XCENC  =     -1155.94812473
  PAW double counting   =      4728.51755900    -2490.18105631
  entropy T*S    EENTRO =        -0.00000000
  eigenvalues    EBANDS =       309.26397757
  atomic energy  EATOM  =     13192.48085998
  Solvation  Ediel_sol  =         0.00000000
  ---------------------------------------------------
  free energy    TOTEN  =      -679.76625112 eV

  energy without entropy =     -679.76625112  energy(sigma->0) =     -679.76625112


--------------------------------------------------------------------------------------------------------




--------------------------------------- Iteration      1(  15)  ---------------------------------------


    POTLOK:  cpu time    0.4909: real time    0.4914
    SETDIJ:  cpu time    0.5140: real time    0.5141
     EDDAV:  cpu time   78.3855: real time   78.4240
       DOS:  cpu time    0.0012: real time    0.0012
    CHARGE:  cpu time    3.0770: real time    3.0774
    MIXING:  cpu time    0.0460: real time    0.0460
    --------------------------------------------
      LOOP:  cpu time   82.5146: real time   82.5539

 eigenvalue-minimisations  :  6080
 total energy-change (2. order) :-0.2487050E-05  (-0.1685562E-06)
 number of electron     511.9999998 magnetization 
 augmentation part      -29.4657702 magnetization 

 Broyden mixing:
  rms(total) = 0.61720E-04    rms(broyden)= 0.61524E-04
  rms(prec ) = 0.83665E-04
  weight for this iteration     100.00

 eigenvalues of (default mixing * dielectric matrix)
  average eigenvalue GAMMA=   1.7228
  3.2480  2.5767  2.1811  1.6877  1.6877  1.4580  1.4580  1.0211  0.9694  0.9398

 Free energy of the ion-electron system (eV)
  ---------------------------------------------------
  alpha Z        PSCENC =       210.77028614
  Ewald energy   TEWEN  =    -14475.74033453
  -Hartree energ DENC   =      -998.94652749
  -exchange      EXHF   =         0.00000000
  -V(xc)+E(xc)   XCENC  =     -1155.94751226
  PAW double counting   =      4728.55921247    -2490.22409223
  entropy T*S    EENTRO =        -0.00000000
  eigenvalues    EBANDS =       309.28185431
  atomic energy  EATOM  =     13192.48085998
  Solvation  Ediel_sol  =         0.00000000
  ---------------------------------------------------
  free energy    TOTEN  =      -679.76625361 eV

  energy without entropy =     -679.76625361  energy(sigma->0) =     -679.76625361


--------------------------------------------------------------------------------------------------------




--------------------------------------- Iteration      1(  16)  ---------------------------------------


    POTLOK:  cpu time    0.4909: real time    0.4919
    SETDIJ:  cpu time    0.5176: real time    0.5187
     EDDAV:  cpu time   77.8777: real time   77.8985
       DOS:  cpu time    0.0013: real time    0.0013
    CHARGE:  cpu time    3.0911: real time    3.0921
    MIXING:  cpu time    0.0317: real time    0.0317
    --------------------------------------------
      LOOP:  cpu time   82.0103: real time   82.0342

 eigenvalue-minimisations  :  6040
 total energy-change (2. order) : 0.1935314E-06  (-0.2083666E-07)
 number of electron     511.9999998 magnetization 
 augmentation part      -29.4657647 magnetization 

 Broyden mixing:
  rms(total) = 0.25906E-04    rms(broyden)= 0.25435E-04
  rms(prec ) = 0.34158E-04
  weight for this iteration     100.00

 eigenvalues of (default mixing * dielectric matrix)
  average eigenvalue GAMMA=   1.6979
  3.2816  2.6181  2.1087  2.1087  1.4372  1.4372  1.4040  1.4040  0.9034  0.9871
  0.9871

 Free energy of the ion-electron system (eV)
  ---------------------------------------------------
  alpha Z        PSCENC =       210.77028614
  Ewald energy   TEWEN  =    -14475.74033453
  -Hartree energ DENC   =      -998.94750680
  -exchange      EXHF   =         0.00000000
  -V(xc)+E(xc)   XCENC  =     -1155.94726802
  PAW double counting   =      4728.56084976    -2490.22553812
  entropy T*S    EENTRO =        -0.00000000
  eigenvalues    EBANDS =       309.28239816
  atomic energy  EATOM  =     13192.48085998
  Solvation  Ediel_sol  =         0.00000000
  ---------------------------------------------------
  free energy    TOTEN  =      -679.76625342 eV

  energy without entropy =     -679.76625342  energy(sigma->0) =     -679.76625342


--------------------------------------------------------------------------------------------------------




--------------------------------------- Iteration      1(  17)  ---------------------------------------


    POTLOK:  cpu time    0.4931: real time    0.4936
    SETDIJ:  cpu time    0.5139: real time    0.5141
     EDDAV:  cpu time   58.4108: real time   58.4304
       DOS:  cpu time    0.0011: real time    0.0011
    CHARGE:  cpu time    3.0954: real time    3.0957
    MIXING:  cpu time    0.0257: real time    0.0257
    --------------------------------------------
      LOOP:  cpu time   62.5399: real time   62.5607

 eigenvalue-minimisations  :  4048
 total energy-change (2. order) : 0.1226308E-06  (-0.2911308E-08)
 number of electron     511.9999998 magnetization 
 augmentation part      -29.4657673 magnetization 

 Broyden mixing:
  rms(total) = 0.14331E-04    rms(broyden)= 0.13461E-04
  rms(prec ) = 0.17144E-04
  weight for this iteration     100.00

 eigenvalues of (default mixing * dielectric matrix)
  average eigenvalue GAMMA=   1.7054
  3.3059  2.6247  2.2997  1.8116  1.8116  1.7006  1.4881  0.9460  0.9460  1.1272
  1.2017  1.2017

 Free energy of the ion-electron system (eV)
  ---------------------------------------------------
  alpha Z        PSCENC =       210.77028614
  Ewald energy   TEWEN  =    -14475.74033453
  -Hartree energ DENC   =      -998.94674302
  -exchange      EXHF   =         0.00000000
  -V(xc)+E(xc)   XCENC  =     -1155.94733349
  PAW double counting   =      4728.56063958    -2490.22519422
  entropy T*S    EENTRO =        -0.00000000
  eigenvalues    EBANDS =       309.28156626
  atomic energy  EATOM  =     13192.48085998
  Solvation  Ediel_sol  =         0.00000000
  ---------------------------------------------------
  free energy    TOTEN  =      -679.76625329 eV

  energy without entropy =     -679.76625329  energy(sigma->0) =     -679.76625329


--------------------------------------------------------------------------------------------------------




--------------------------------------- Iteration      1(  18)  ---------------------------------------


    POTLOK:  cpu time    0.4908: real time    0.4922
    SETDIJ:  cpu time    0.5138: real time    0.5138
     EDDAV:  cpu time   51.4525: real time   51.4830
       DOS:  cpu time    0.0016: real time    0.0016
    CHARGE:  cpu time    3.0976: real time    3.0979
    MIXING:  cpu time    0.0376: real time    0.0376
    --------------------------------------------
      LOOP:  cpu time   55.5937: real time   55.6261

 eigenvalue-minimisations  :  3344
 total energy-change (2. order) :-0.8943971E-07  (-0.8725441E-09)
 number of electron     511.9999998 magnetization 
 augmentation part      -29.4657634 magnetization 

 Broyden mixing:
  rms(total) = 0.73542E-05    rms(broyden)= 0.54691E-05
  rms(prec ) = 0.77972E-05
  weight for this iteration     100.00
  WARNING: grid for Broyden might be to small

 eigenvalues of (default mixing * dielectric matrix)
  average eigenvalue GAMMA=   1.7142
  3.2557  2.6831  2.3865  2.3865  1.7235  1.7235  1.3245  1.3245  0.9300  0.9830
  0.9830  1.2902  1.2902

 Free energy of the ion-electron system (eV)
  ---------------------------------------------------
  alpha Z        PSCENC =       210.77028614
  Ewald energy   TEWEN  =    -14475.74033453
  -Hartree energ DENC   =      -998.94752009
  -exchange      EXHF   =         0.00000000
  -V(xc)+E(xc)   XCENC  =     -1155.94724769
  PAW double counting   =      4728.56402622    -2490.22862774
  entropy T*S    EENTRO =        -0.00000000
  eigenvalues    EBANDS =       309.28230431
  atomic energy  EATOM  =     13192.48085998
  Solvation  Ediel_sol  =         0.00000000
  ---------------------------------------------------
  free energy    TOTEN  =      -679.76625338 eV

  energy without entropy =     -679.76625338  energy(sigma->0) =     -679.76625338


--------------------------------------------------------------------------------------------------------




--------------------------------------- Iteration      1(  19)  ---------------------------------------


    POTLOK:  cpu time    0.4913: real time    0.4943
    SETDIJ:  cpu time    0.5101: real time    0.5105
     EDDAV:  cpu time   50.4147: real time   50.4389
       DOS:  cpu time    0.0015: real time    0.0015
    CHARGE:  cpu time    3.1082: real time    3.1085
    MIXING:  cpu time    0.0463: real time    0.0463
    --------------------------------------------
      LOOP:  cpu time   54.5721: real time   54.6001

 eigenvalue-minimisations  :  3240
 total energy-change (2. order) : 0.3373498E-07  (-0.1842898E-09)
 number of electron     511.9999998 magnetization 
 augmentation part      -29.4657651 magnetization 

 Broyden mixing:
  rms(total) = 0.54843E-05    rms(broyden)= 0.24299E-05
  rms(prec ) = 0.33714E-05
  weight for this iteration     100.00
  WARNING: grid for Broyden might be to small

 eigenvalues of (default mixing * dielectric matrix)
  average eigenvalue GAMMA=   1.6619
  3.3001  2.6897  2.3190  2.3190  1.7212  1.7212  1.4110  1.4110  1.3193  1.3193
  0.9956  0.9956  0.9104  0.8347

 Free energy of the ion-electron system (eV)
  ---------------------------------------------------
  alpha Z        PSCENC =       210.77028614
  Ewald energy   TEWEN  =    -14475.74033453
  -Hartree energ DENC   =      -998.94712648
  -exchange      EXHF   =         0.00000000
  -V(xc)+E(xc)   XCENC  =     -1155.94727818
  PAW double counting   =      4728.56392131    -2490.22849109
  entropy T*S    EENTRO =        -0.00000000
  eigenvalues    EBANDS =       309.28190949
  atomic energy  EATOM  =     13192.48085998
  Solvation  Ediel_sol  =         0.00000000
  ---------------------------------------------------
  free energy    TOTEN  =      -679.76625335 eV

  energy without entropy =     -679.76625335  energy(sigma->0) =     -679.76625335


--------------------------------------------------------------------------------------------------------




--------------------------------------- Iteration      1(  20)  ---------------------------------------


    POTLOK:  cpu time    0.4902: real time    0.4935
    SETDIJ:  cpu time    0.5163: real time    0.5163
     EDDAV:  cpu time   49.8257: real time   49.8473
       DOS:  cpu time    0.0014: real time    0.0014
    CHARGE:  cpu time    3.0963: real time    3.0966
    MIXING:  cpu time    0.0339: real time    0.0339
    --------------------------------------------
      LOOP:  cpu time   53.9637: real time   53.9890

 eigenvalue-minimisations  :  3176
 total energy-change (2. order) :-0.1234548E-07  (-0.6253150E-10)
 number of electron     511.9999998 magnetization 
 augmentation part      -29.4657644 magnetization 

 Broyden mixing:
  rms(total) = 0.52152E-05    rms(broyden)= 0.17392E-05
  rms(prec ) = 0.24789E-05
  weight for this iteration     100.00
  WARNING: grid for Broyden might be to small

 eigenvalues of (default mixing * dielectric matrix)
  average eigenvalue GAMMA=   1.6737
  3.2912  2.7045  2.2386  2.2386  1.8501  1.8501  1.8306  1.2445  1.2445  1.3241
  1.3241  1.1424  0.9526  0.9526  0.9163

 Free energy of the ion-electron system (eV)
  ---------------------------------------------------
  alpha Z        PSCENC =       210.77028614
  Ewald energy   TEWEN  =    -14475.74033453
  -Hartree energ DENC   =      -998.94731414
  -exchange      EXHF   =         0.00000000
  -V(xc)+E(xc)   XCENC  =     -1155.94725865
  PAW double counting   =      4728.56421626    -2490.22879661
  entropy T*S    EENTRO =        -0.00000000
  eigenvalues    EBANDS =       309.28208818
  atomic energy  EATOM  =     13192.48085998
  Solvation  Ediel_sol  =         0.00000000
  ---------------------------------------------------
  free energy    TOTEN  =      -679.76625336 eV

  energy without entropy =     -679.76625336  energy(sigma->0) =     -679.76625336


--------------------------------------------------------------------------------------------------------




--------------------------------------- Iteration      1(  21)  ---------------------------------------


    POTLOK:  cpu time    0.4877: real time    0.4908
    SETDIJ:  cpu time    0.5164: real time    0.5164
     EDDAV:  cpu time   49.6916: real time   49.7093
       DOS:  cpu time    0.0017: real time    0.0017
    --------------------------------------------
      LOOP:  cpu time   50.6973: real time   50.7182

 eigenvalue-minimisations  :  3160
 total energy-change (2. order) :-0.4623871E-08  (-0.1452341E-10)
 number of electron     511.9999998 magnetization 
 augmentation part      -29.4657644 magnetization 

 Free energy of the ion-electron system (eV)
  ---------------------------------------------------
  alpha Z        PSCENC =       210.77028614
  Ewald energy   TEWEN  =    -14475.74033453
  -Hartree energ DENC   =      -998.94734348
  -exchange      EXHF   =         0.00000000
  -V(xc)+E(xc)   XCENC  =     -1155.94725512
  PAW double counting   =      4728.56430999    -2490.22889428
  entropy T*S    EENTRO =        -0.00000000
  eigenvalues    EBANDS =       309.28211793
  atomic energy  EATOM  =     13192.48085998
  Solvation  Ediel_sol  =         0.00000000
  ---------------------------------------------------
  free energy    TOTEN  =      -679.76625337 eV

  energy without entropy =     -679.76625337  energy(sigma->0) =     -679.76625337


--------------------------------------------------------------------------------------------------------




 average (electrostatic) potential at core
  the test charge radii are     0.9892
  (the norm of the test charge is              1.0000)
       1 -83.5820       2 -83.6640       3 -83.6866       4 -83.5982       5 -83.5177
       6 -83.4487       7 -83.5104       8 -83.3967       9 -83.5149      10 -83.5801
      11 -83.4167      12 -83.5160      13 -83.5693      14 -83.4742      15 -83.4896
      16 -83.5326      17 -83.6492      18 -83.6531      19 -83.5153      20 -83.4397
      21 -83.3838      22 -83.5176      23 -83.4766      24 -83.3359      25 -83.5197
      26 -83.3732      27 -83.4994      28 -83.4440      29 -83.4082      30 -83.3920
      31 -83.4697      32 -83.4325      33 -83.5849      34 -83.6375      35 -83.5914
      36 -83.5434      37 -83.4006      38 -83.4868      39 -83.5641      40 -83.4743
      41 -83.4439      42 -83.4411      43 -83.4951      44 -83.4832      45 -83.5391
      46 -83.5233      47 -83.5700      48 -83.4013      49 -83.6664      50 -83.5240
      51 -83.6013      52 -83.6491      53 -83.4827      54 -83.4795      55 -83.5881
      56 -83.4905      57 -83.5109      58 -83.5164      59 -83.5068      60 -83.4686
      61 -83.5541      62 -83.6421      63 -83.5379      64 -83.5625      65 -83.5902
      66 -83.6283      67 -83.6353      68 -83.5879      69 -83.4634      70 -83.5494
      71 -83.4088      72 -83.5268      73 -83.5081      74 -83.4975      75 -83.5435
      76 -83.5130      77 -83.5575      78 -83.5522      79 -83.4803      80 -83.5372
      81 -83.5272      82 -83.6279      83 -83.5078      84 -83.4850      85 -83.4634
      86 -83.3702      87 -83.4460      88 -83.4771      89 -83.4330      90 -83.4419
      91 -83.4739      92 -83.4003      93 -83.4957      94 -83.4808      95 -83.5868
      96 -83.4403      97 -83.5669      98 -83.5483      99 -83.5894     100 -83.6441
     101 -83.4652     102 -83.4630     103 -83.4778     104 -83.4311     105 -83.4372
     106 -83.4333     107 -83.4686     108 -83.4007     109 -83.5046     110 -83.6105
     111 -83.4742     112 -83.4515     113 -83.5250     114 -83.6095     115 -83.6478
     116 -83.6786     117 -83.4619     118 -83.4940     119 -83.5732     120 -83.5022
     121 -83.5387     122 -83.6189     123 -83.5082     124 -83.5172     125 -83.5574
     126 -83.4839     127 -83.5244     128 -83.5938
 
 
 
 E-fermi :   5.9073     XC(G=0):  -9.3331     alpha+bet :-11.7321


 k-point     1 :       0.0000    0.0000    0.0000
  band No.  band energies     occupation 
      1      -6.2994      2.00000
      2      -5.6710      2.00000
      3      -5.6628      2.00000
      4      -5.6145      2.00000
      5      -5.5704      2.00000
      6      -5.5085      2.00000
      7      -5.4967      2.00000
      8      -5.4434      2.00000
      9      -5.3333      2.00000
     10      -5.3147      2.00000
     11      -5.2705      2.00000
     12      -5.1872      2.00000
     13      -5.1558      2.00000
     14      -5.1239      2.00000
     15      -5.0825      2.00000
     16      -4.4976      2.00000
     17      -4.4794      2.00000
     18      -4.4432      2.00000
     19      -4.3667      2.00000
     20      -4.3410      2.00000
     21      -4.3226      2.00000
     22      -4.2842      2.00000
     23      -4.2487      2.00000
     24      -4.2220      2.00000
     25      -4.1696      2.00000
     26      -4.1330      2.00000
     27      -4.1093      2.00000
     28      -4.0562      2.00000
     29      -4.0080      2.00000
     30      -3.9792      2.00000
     31      -3.9371      2.00000
     32      -3.8726      2.00000
     33      -3.8060      2.00000
     34      -3.7961      2.00000
     35      -3.7513      2.00000
     36      -3.7351      2.00000
     37      -3.6933      2.00000
     38      -3.6834      2.00000
     39      -3.6723      2.00000
     40      -3.6334      2.00000
     41      -3.6149      2.00000
     42      -3.5930      2.00000
     43      -3.5835      2.00000
     44      -3.5440      2.00000
     45      -3.5276      2.00000
[...]
   0.678E+01 -.118E+02 0.175E+01   -.608E+01 0.112E+02 -.171E+01   -.211E+01 0.308E+01 -.457E+00   -.646E-06 0.828E-06 -.109E-05
   0.311E+01 -.786E+01 -.522E+00   -.283E+01 0.694E+01 0.937E+00   -.928E+00 0.315E+01 -.500E+00   0.517E-06 0.485E-06 -.777E-06
   -.880E+01 -.628E+01 0.224E+01   0.761E+01 0.595E+01 -.282E+01   0.223E+01 0.101E+01 -.210E+00   0.574E-07 -.548E-06 0.440E-06
   -.531E+01 0.112E+02 -.476E+01   0.504E+01 -.101E+02 0.397E+01   -.198E+00 -.231E+01 0.143E+01   -.567E-07 -.412E-06 -.505E-06
   -.454E+00 0.483E+01 -.292E+01   0.794E+00 -.445E+01 0.250E+01   -.740E+00 -.239E+00 0.796E-01   0.284E-06 0.794E-06 0.676E-06
   0.300E+01 -.115E+02 0.231E+01   -.266E+01 0.979E+01 -.184E+01   0.593E+00 0.329E+01 -.396E-01   0.722E-06 -.746E-06 0.697E-06
   0.104E+01 0.485E+01 0.121E+02   -.154E+01 -.455E+01 -.104E+02   -.377E+00 -.164E+00 -.333E+01   0.735E-06 0.179E-06 0.410E-06
   -.337E+01 -.703E+00 -.928E+00   0.262E+01 0.927E+00 0.961E+00   0.176E+01 0.647E-01 0.119E+01   -.459E-06 -.465E-06 0.160E-06
   0.884E+01 -.170E+02 -.902E+01   -.801E+01 0.147E+02 0.850E+01   -.136E+01 0.366E+01 0.222E+01   0.332E-06 -.521E-06 0.172E-06
   0.361E-01 -.277E+00 -.163E+02   0.159E+00 0.203E+00 0.136E+02   -.174E+00 0.108E+01 0.449E+01   -.146E-06 0.674E-06 -.503E-06
   -.978E+01 0.226E+01 0.827E+00   0.954E+01 -.238E+01 -.935E+00   0.163E+01 0.124E+01 0.135E+01   0.211E-06 -.657E-06 -.115E-06
   -.120E+02 -.434E+01 0.269E+01   0.101E+02 0.420E+01 -.150E+01   0.335E+01 0.238E+00 -.965E+00   0.369E-06 0.131E-05 0.795E-06
   0.105E+02 0.566E+01 -.378E+01   -.970E+01 -.490E+01 0.378E+01   -.323E+01 -.122E+01 -.783E+00   0.684E-07 -.551E-06 -.648E-06
   0.555E+01 -.252E+01 0.111E+02   -.516E+01 0.260E+01 -.956E+01   -.106E+01 0.102E+00 -.300E+01   0.885E-06 -.768E-06 0.415E-06
   -.132E+01 0.222E+01 -.278E+01   0.135E+01 -.261E+01 0.244E+01   -.415E+00 -.467E+00 0.826E+00   -.292E-06 -.296E-06 -.764E-06
   -.477E+01 -.802E+01 0.646E+00   0.407E+01 0.695E+01 0.149E+00   -.817E-01 0.327E+01 -.100E+01   -.215E-06 0.178E-05 -.376E-06
   -.620E+00 -.615E+01 0.142E+02   0.609E+00 0.578E+01 -.129E+02   -.539E+00 0.191E+01 -.278E+01   0.362E-06 -.338E-06 0.525E-06
   -.326E+01 0.549E+01 -.517E+01   0.266E+01 -.489E+01 0.529E+01   0.454E+00 -.674E+00 0.153E+01   -.101E-05 -.644E-06 -.162E-05
   -.259E+01 0.103E+01 -.146E+02   0.214E+01 -.126E+01 0.128E+02   0.125E+01 0.375E+00 0.467E+01   0.373E-06 0.976E-06 -.308E-06
   0.169E+01 -.131E+01 0.781E+00   -.161E+01 0.114E+01 -.952E+00   0.278E-01 0.198E+00 0.529E+00   0.552E-07 0.435E-06 0.143E-06
   -.858E+01 0.550E+01 -.174E+01   0.743E+01 -.493E+01 0.193E+01   0.272E+01 -.228E+01 0.105E-02   -.603E-06 0.111E-05 -.262E-06
   -.794E+00 0.359E+01 -.785E+01   0.111E+01 -.387E+01 0.720E+01   0.445E-02 -.278E+00 0.889E+00   -.593E-07 0.588E-06 0.106E-05
   -.939E+01 0.590E+01 -.649E+01   0.856E+01 -.579E+01 0.645E+01   0.265E+01 0.870E+00 0.256E+01   0.955E-06 0.493E-07 -.706E-06
   0.717E+01 0.946E+01 -.464E+01   -.645E+01 -.836E+01 0.409E+01   -.157E+01 -.333E+01 0.271E+01   0.128E-05 0.785E-07 0.153E-06
   0.193E+01 0.289E+00 0.239E+01   -.216E+01 -.456E+00 -.180E+01   0.121E+01 -.916E+00 -.175E+01   0.110E-05 -.110E-05 -.806E-07
   0.359E+01 0.482E+01 0.447E+01   -.322E+01 -.474E+01 -.437E+01   -.120E+01 0.287E-01 -.254E+00   -.798E-06 0.313E-06 0.408E-06
   -.370E+01 0.167E+01 0.244E+01   0.355E+01 -.218E+01 -.234E+01   0.191E+01 0.143E+01 0.553E+00   0.142E-06 0.101E-05 0.614E-06
   -.104E-01 -.124E+02 -.715E+01   0.742E-01 0.109E+02 0.705E+01   0.101E+00 0.360E+01 0.284E-01   0.514E-07 -.103E-05 0.618E-06
   -.957E+01 0.681E+00 -.454E+01   0.867E+01 -.390E+00 0.473E+01   0.165E+01 -.908E+00 -.119E+01   -.273E-06 -.659E-06 -.950E-06
   0.538E+01 0.452E+01 -.467E+01   -.512E+01 -.422E+01 0.370E+01   -.186E+01 -.848E+00 0.194E+01   0.344E-06 -.136E-06 -.188E-06
   -.110E+02 0.625E+01 -.165E+01   0.976E+01 -.526E+01 0.123E+01   0.333E+01 -.228E+01 -.442E+00   -.880E-06 0.904E-06 -.179E-06
   0.104E+02 0.621E+01 -.272E+01   -.975E+01 -.522E+01 0.337E+01   -.232E+01 -.145E+01 -.188E+00   -.465E-06 0.448E-06 -.785E-06
   0.644E+01 -.130E+01 0.263E+01   -.629E+01 0.111E+01 -.262E+01   -.816E+00 -.283E+00 -.892E+00   0.927E-06 -.134E-05 0.133E-05
   -.653E+01 0.340E+01 0.138E+01   0.586E+01 -.324E+01 -.864E+00   0.339E+01 -.154E+01 -.151E+01   -.194E-06 0.136E-05 -.543E-06
   0.131E+02 0.268E+01 0.119E+01   -.126E+02 -.249E+01 -.106E+01   -.234E+01 -.749E+00 -.437E+00   0.299E-06 -.670E-06 -.190E-06
   0.237E+00 0.770E+01 0.402E+01   -.345E+00 -.674E+01 -.358E+01   0.114E+01 -.311E+01 -.186E+01   -.814E-06 0.101E-05 0.100E-06
   -.216E+01 -.776E+01 -.995E+00   0.215E+01 0.701E+01 0.990E+00   0.170E+01 0.144E+01 0.343E+00   -.163E-05 -.832E-06 -.664E-06
   -.559E+01 0.460E+01 0.996E+01   0.563E+01 -.470E+01 -.915E+01   0.400E+00 0.323E+00 -.222E+01   -.477E-06 0.121E-05 0.770E-06
   0.241E+01 -.766E+01 -.288E+01   -.148E+01 0.647E+01 0.286E+01   -.105E+01 0.189E+01 0.231E+01   -.148E-06 -.404E-06 -.611E-06
   -.855E+00 0.212E+01 -.278E+00   0.117E+01 -.155E+01 0.416E-01   0.940E-01 -.262E+01 0.442E+00   -.500E-06 -.984E-06 -.240E-06
   0.391E+01 -.151E+02 -.386E+00   -.248E+01 0.132E+02 0.904E+00   -.252E+01 0.472E+01 -.238E+01   0.654E-06 0.296E-06 -.168E-06
   0.418E-01 0.333E+01 0.257E+01   0.147E+00 -.276E+01 -.267E+01   -.150E+01 -.501E+00 -.918E+00   -.565E-06 -.310E-06 0.426E-06
   -.887E+01 0.888E+01 0.262E+01   0.829E+01 -.804E+01 -.233E+01   0.137E+01 -.184E+01 -.608E+00   -.706E-06 -.172E-06 -.132E-06
   0.427E+01 -.321E+00 0.172E+01   -.399E+01 0.441E+00 -.120E+01   -.902E+00 -.302E+00 -.101E+01   0.830E-07 -.762E-07 0.181E-05
   0.121E+02 0.232E+01 0.142E+01   -.113E+02 -.169E+01 -.114E+01   -.163E+01 -.276E+00 -.178E+01   0.445E-07 -.593E-06 -.115E-05
   0.523E+01 0.326E+01 0.106E+01   -.454E+01 -.246E+01 -.147E+01   -.463E+00 -.135E+00 0.403E+00   0.153E-06 -.100E-05 0.351E-06
   0.418E+00 -.115E+01 -.668E+01   -.869E+00 0.954E+00 0.531E+01   -.227E+00 0.258E-01 0.257E+01   -.786E-07 0.760E-06 0.154E-06
   -.217E+00 -.176E+01 -.550E+01   0.564E-02 0.151E+01 0.489E+01   0.132E+00 0.148E+01 0.145E+01   -.133E-06 0.856E-06 -.799E-06
   0.107E+01 -.911E+00 -.526E+01   -.128E+01 0.924E+00 0.458E+01   0.106E+01 -.204E+00 0.121E+01   -.110E-06 0.463E-06 -.252E-06
   -.575E+01 -.565E+01 -.128E+01   0.536E+01 0.499E+01 0.101E+01   0.149E+01 0.553E+00 -.153E+00   -.276E-06 -.586E-06 -.145E-06
   -.242E+00 -.288E+01 0.735E+01   0.741E+00 0.326E+01 -.702E+01   -.465E+00 0.216E+00 -.164E+01   0.105E-05 -.724E-06 0.760E-06
   0.254E+01 -.172E+01 0.425E+01   -.202E+01 0.212E+01 -.407E+01   -.136E+01 -.207E+00 -.129E+01   0.374E-06 -.100E-05 -.607E-06
   -.159E+01 -.208E+01 0.961E+01   0.119E+01 0.168E+01 -.894E+01   0.144E+01 0.904E+00 -.274E+01   0.685E-08 0.103E-05 0.127E-05
 -----------------------------------------------------------------------------------------------
   0.487E+00 -.531E+00 0.103E+00   0.183E-12 -.462E-13 -.675E-13   -.487E+00 0.531E+00 -.103E+00   0.300E-06 0.481E-06 0.136E-05
 
 
 POSITION                                       TOTAL-FORCE (eV/Angst)
 -----------------------------------------------------------------------------------
     10.92526      0.05385     10.89499         0.442611     -2.220204      0.088332
     11.01560     13.56793      2.73627        -1.098719      1.958010      0.048341
     11.01472     16.11456      5.58453        -0.178277      2.709499     -1.157222
      0.03711      8.15648      8.15227        -1.087164     -0.484119      1.222305
      2.72271      0.04359      2.71661         1.361173     -0.994175      0.814120
      2.69983      2.77901      5.42031        -0.003554      0.229845      0.513724
     13.80753     16.33835      8.29576        -1.364862     -0.064919     -1.970132
     13.72447     19.04728     11.02273        -1.001594     -0.670707     -1.252083
     16.39901     21.74898     16.51549        -0.001242      0.022629     -0.867188
      5.49100      2.76769      8.12613         0.226068      0.349712      0.254996
      5.45361      5.50286     10.95577        -0.908188      0.309639     -0.214539
      5.48149      8.24893     13.72733        -0.905819     -0.038887     -0.111081
     19.08610     21.80999     19.07076        -0.090035      0.168506      0.505468
     19.13194     13.69928     10.97750        -0.687843     -1.284442     -0.535137
      8.13128      5.48948     13.57217         0.774023     -0.224939      1.309753
      8.27259      8.30213     16.30943         0.805913     -2.248400      1.639813
      2.67409      2.65174      0.17242        -0.437016     -0.702609     -2.086877
      2.74378      5.54336      2.88710         0.053452      0.600234     -1.955233
     13.69766      8.22270     16.38493        -1.421815      0.239298      0.052865
      2.88169     10.82373      8.27616        -1.375401      0.507875     -2.244193
      5.43801     13.77218     13.48445        -0.298567     -1.847296      1.041381
      5.42904      5.65254      5.54418         1.136216     -2.545207     -0.828994
      5.57507      8.15455      8.38803        -0.304502      0.058590     -2.725617
      5.37315     10.83717     10.76606         1.147422      1.038962      1.717386
      8.27148     13.54098     16.43246        -0.234694      0.707852     -0.482508
      8.33831      5.38776      8.27707        -1.408113      0.531860      0.243521
      8.07253      8.13135     10.94196         0.321916      0.009452     -0.270714
      8.15361     10.93864     13.58600         1.444957     -1.307198      0.664989
     10.90997      2.71881      8.19784        -0.063487     -0.531344      1.075702
     11.01391      5.43472     10.83707        -1.390295     -0.936416     -0.328015
     10.88330      8.22794     13.70030         1.295197     -0.585105     -0.687949
     10.87239     10.97434     16.58887         1.229728     -0.865542     -0.437185
      5.59725     16.36560     10.87855        -2.587475      1.187253      1.012735
     16.27560      8.30546     13.68522        -0.104011     -1.838633     -0.773329
      5.53790     10.85610      5.40958        -0.434258      0.243627     -0.384092
      5.49606     13.58725      8.16970        -0.406623      1.194605     -0.510201
      8.07333     16.24625     13.64900         0.602824      1.926930      0.380649
      8.24245      8.20190      5.59524        -1.606695     -1.332259     -1.972468
      8.31050     11.07314      8.27129        -2.396152     -1.296694     -1.775152
      8.12784     13.67334     10.85956         0.932586      0.844392      0.292475
     10.90048      5.47739      5.50768         0.863821     -0.199503      0.252166
     10.92149      8.32966      8.15550         0.339249     -0.203246     -0.551924
     10.82384     11.02418     10.75271         0.689326     -0.851161      3.322022
     11.00192     13.69564     13.71168        -0.036208     -0.207127      0.392213
     13.75703      5.50345      8.30893        -0.279930     -0.139241     -1.107316
     13.67143      8.17633     10.84769        -1.130180      2.432889      0.967472
     13.60964     10.95757     13.64673         0.464455      0.241055      0.431595
     13.80803     13.55088     16.42164        -2.164468      1.590030      0.913877
     19.03099      8.21852     10.96470         0.739431     -0.527021      0.156943
      8.26367     10.91182      2.81386        -1.282935     -0.812738     -0.817938
      8.15871     13.58841      5.50793         2.051468      1.405075     -1.899488
     19.16113     16.36252     18.98975        -0.507167      0.145724      1.723876
     10.86154      8.24833      2.66087         1.150108     -0.527316      1.379070
     10.82225     11.01747      5.42212         0.653652     -0.618481      0.350645
     10.97690     13.56038      8.17686        -0.491851      1.406057      0.581435
     10.85125     16.38969     10.72242         1.841733     -1.301222      3.248399
     13.54037      8.17416      5.49785         1.416206      0.400549     -0.224804
     13.80470     10.98469      8.24281        -1.128188     -0.431675     -0.698324
     13.62557     13.76339     11.01460         0.672770     -0.886387     -1.485571
     13.75974     16.41877     13.62497        -0.216483     -0.955417      0.426964
     16.68611     19.14870     19.18112        -2.876048     -0.101197      0.452889
     16.35337     10.84730     10.92739         0.306928      1.988782      0.210871
     16.34598     13.63222     13.61779         1.015815      0.319722      1.047322
     16.46244     16.49896     16.36422        -1.265240     -0.716926      0.209461
      1.23164      1.23280      1.48666         1.215883      0.207769     -1.580912
      1.36618      4.11112      4.02694         0.228807     -0.749762      0.347676
      1.31946      6.87408      6.80168         1.277032     -1.668516     -0.080025
      1.47812      9.46633      9.43538        -0.580854      0.176099      2.057302
      4.11469      1.40746      4.25767         0.650567     -0.610487     -1.843664
      4.17314      4.11721      6.74691        -0.911524      0.103037      0.381604
      4.12036      6.81769      9.45486         0.058375      0.318194      2.478584
      4.16284      9.47208     12.18302        -0.285056      1.224762      1.382451
      6.80100      1.37436      6.82319         0.367902     -0.598369     -0.014755
      6.68079      4.13940      9.63702         2.153980     -0.520795     -0.595821
      6.67238      6.83552     12.39042         0.858780     -0.106961     -0.797081
      6.94470      9.44796     15.00802        -1.412511      2.481396     -0.414998
      9.55133      1.17366      9.52462        -0.649888      2.226385     -0.084361
      9.53139      4.03263     12.37271         1.044457      0.682699     -0.787207
      9.63186      6.81855     15.00452        -0.476840     -1.176634      0.639923
      9.58680      9.51112     17.83690        -0.399656      0.136618     -0.344325
      3.97134      4.09081      1.31940         0.935265      1.561896      0.423497
      4.16211      6.91867      4.25156        -0.874429      0.131310     -1.681833
      4.12874      9.49134      6.76624         1.005178      0.288499      1.223840
      4.15360     12.21629      9.44466        -0.526870      1.343862      1.691912
      6.79464      3.92414      4.00077         0.021082      1.004374      1.827774
      6.84284      6.72142      6.88974         1.382770      1.114928      1.239141
      6.82314      9.62496      9.54515         1.463330      0.090919      0.220489
      6.97552     12.35449     12.29607        -2.472312     -0.457620     -0.779131
      9.62061      4.05058      6.93227        -0.666037      0.176991     -1.480810
      9.62601      6.95298      9.52796        -0.388469     -0.855334      0.489353
      9.58043      9.36763     12.22800        -0.777050      2.201543     -0.207519
      9.61329     12.09482     15.11449        -0.550123      1.542114     -1.483850
     12.37330      4.03255      9.44000        -0.146789     -0.074744      1.655300
     12.22691      6.87241     12.04484         0.788263      0.144921      2.935226
     12.24330      9.61953     15.05221         0.106742      0.027213      0.358557
     12.23040     12.45068     17.77148         1.568118     -1.714622      0.197593
      6.72955      6.87889      1.41054         0.318404     -0.558448      0.234234
      6.78800      9.45469      3.92411         1.814687      0.978868      2.522472
      6.83944     12.37368      6.69011        -0.842061     -2.235148      2.163591
      6.78518     15.07362      9.51633         0.980571     -1.083081     -1.156894
      9.58709      6.79873      4.08861        -0.824957      0.117512     -0.153729
      9.41249      9.62810      6.81506         1.759442      0.914004      0.649235
      9.53248     12.31956      9.57139         0.164738      2.130125     -0.071760
      9.51585     15.05090     12.32411         0.753574     -0.616347     -1.000646
     12.38661      6.82249      6.85482        -1.612459     -0.550452      0.964699
     12.17137      9.75862      9.54501         2.053134     -1.294214     -0.865754
     12.36995     12.33240     12.22857        -1.683543     -0.455540      0.458412
     12.46957     15.09773     15.18253        -0.669913     -0.481889     -0.881405
     14.99959      6.96291      9.60628         2.713961     -1.384041     -0.998992
     15.05249      9.62370     12.30736        -1.821140     -0.558293     -0.302781
     15.03229     12.37092     15.07786         1.028877     -2.158308     -1.422746
     14.95102     15.00854     17.76783         1.687985      0.693157      0.337667
      9.49587      9.57820      1.40240         0.437175      0.225634     -1.404054
      9.57269     12.30445      3.93433        -0.130132      0.701303      2.280711
      9.52598     15.02018      6.83412         0.408459     -2.061683      0.205612
      9.47733     17.60432      9.62443        -1.094590      2.807253     -1.856743
     12.35348      9.63048      4.18024        -1.310208      0.071426     -1.015337
     12.28932     12.33944      6.79884         0.784427     -0.998909     -0.320111
     12.34950     15.02513      9.56470        -0.629920     -0.181981     -0.492117
     12.28793     17.69846     12.39839        -0.760948      0.352163     -1.499581
     15.05105      9.38248      6.91863         0.220965      0.662413     -0.008654
     15.12168     12.40702      9.50951        -0.677403     -0.168768      1.199035
     15.09227     14.96546     12.21537        -0.078571      1.230413      0.841479
     14.94197     17.86270     14.99572         0.851230     -0.190890      0.536092
     17.74214      9.62973      9.63759         1.102877     -0.110022     -0.419620
     17.76867     12.18064     12.42919         0.034788      0.590262     -1.307842
     17.84943     15.03261     15.10779        -0.833455      0.191877     -1.104140
     17.76222     17.73480     17.85392         1.041934      0.499020     -2.074762
 -----------------------------------------------------------------------------------
    total drift:                                0.000003     -0.000007     -0.000011


--------------------------------------------------------------------------------------------------------



  FREE ENERGIE OF THE ION-ELECTRON SYSTEM (eV)
  ---------------------------------------------------
  free  energy   TOTEN  =      -679.76625337 eV

  energy  without entropy=     -679.76625337  energy(sigma->0) =     -679.76625337
 


--------------------------------------------------------------------------------------------------------


    POTLOK:  cpu time    0.9983: real time    0.9984


--------------------------------------------------------------------------------------------------------


     LOOP+:  cpu time 1683.0912: real time 1683.7468
    4ORBIT:  cpu time    0.0000: real time    0.0000

 total amount of memory used by VASP MPI-rank0   221701. kBytes
=======================================================================

   base      :      30000. kBytes
   nonl-proj :      10690. kBytes
   fftplans  :      66746. kBytes
   grid      :      26864. kBytes
   one-center:         24. kBytes
   wavefun   :      87377. kBytes
 
  
  
 General timing and accounting informations for this job:
 ========================================================
  
                  Total CPU time used (sec):     1707.113
                            User time (sec):     1705.965
                          System time (sec):        1.148
                         Elapsed time (sec):     1708.834
  
                   Maximum memory used (kb):      337632.
                   Average memory used (kb):           0.
  
                          Minor page faults:       140861
                          Major page faults:            0
                 Voluntary context switches:         1326
