<?xml version="1.0" encoding="ISO-8859-1"?>
<modeling>
 <generator>
  <i name="program" type="string">vasp </i>
  <i name="version" type="string">5.4.4.18Apr17-6-g9f103f2a35  </i>
  <i name="subversion" type="string">(build Nov 08 2017 09:05:29) complex            parallel </i>
  <i name="platform" type="string">Intel_17.33 </i>
  <i name="date" type="string">2020 07 18 </i>
  <i name="time" type="string">21:24:58 </i>
 </generator>
 <incar>
  <i type="string" name="SYSTEM">potpaw_PBE@./ARUN.APL1ZEROSTATE</i>
  <i type="string" name="PREC">accurate</i>
  <i type="string" name="ALGO">Normal</i>
  <i type="int" name="NSIM">     4</i>
  <i type="logical" name="ADDGRID"> T  </i>
  <i type="int" name="NELM">   120</i>
  <i type="int" name="NELMIN">     4</i>
  <i name="EDIFF">      0.00000001</i>
  <i type="int" name="NSW">     0</i>
  <i type="int" name="ISYM">     2</i>
  <i name="ENMAX">    500.00000000</i>
  <i type="logical" name="LREAL"> F  </i>
  <i type="logical" name="LPLANE"> T  </i>
  <i type="int" name="ISMEAR">     0</i>
  <i name="SIGMA">      0.01000000</i>
  <i type="logical" name="LWAVE"> F  </i>
  <i type="logical" name="LCHARG"> F  </i>
  <i type="logical" name="LELF"> F  </i>
  <i type="logical" name="LAECHG"> F  </i>
  <v type="int" name="KPOINT_BSE">    -1     0     0     0</v>
  <i type="int" name="NELM">   120</i>
 </incar>
 <structure name="primitive_cell" >
  <crystal>
   <varray name="basis" >
    <v>       0.00000000      10.93733369      10.93733369 </v>
    <v>      10.93733369       0.00000000      10.93733369 </v>
    <v>      10.93733369      10.93733369       0.00000000 </v>
   </varray>
   <i name="volume">   2616.76295363 </i>
   <varray name="rec_basis" >
    <v>      -0.04571498       0.04571498       0.04571498 </v>
    <v>       0.04571498      -0.04571498       0.04571498 </v>
    <v>       0.04571498       0.04571498      -0.04571498 </v>
   </varray>
  </crystal>
  <varray name="positions" >
   <v>       0.00107817      -0.00494964       0.00384552 </v>
   <v>       0.05243275      -0.18159712       0.05487478 </v>
   <v>       0.06801555       0.06790969       0.04469907 </v>
   <v>       0.06787435       0.06034695      -0.19214021 </v>
   <v>      -0.20348120       0.06615738       0.06898710 </v>
   <v>       0.00686021       0.00890402       0.23558792 </v>
   <v>       0.24176813       0.00840905      -0.00125275 </v>
   <v>       0.00030513      -0.25077731       0.24827574 </v>
   <v>       0.25348241      -0.24980999      -0.00095791 </v>
   <v>       0.00217890       0.24110459      -0.24803430 </v>
   <v>       0.00171376       0.24666610       0.00227148 </v>
   <v>       0.24969557       0.00757585      -0.25202845 </v>
   <v>      -0.25858530       0.01527390       0.24819857 </v>
   <v>      -0.00365827      -0.25270332      -0.00225525 </v>
   <v>      -0.25614232       0.00150393       0.00188862 </v>
   <v>       0.00695920      -0.00445669      -0.25554019 </v>
   <v>      -0.25276401       0.26057168      -0.00574414 </v>
   <v>       0.30474039       0.05497566      -0.17974529 </v>
   <v>      -0.18804607      -0.18112694       0.05764785 </v>
   <v>       0.31424198      -0.18300579       0.05446082 </v>
   <v>       0.05025220      -0.18715379       0.31844395 </v>
   <v>      -0.17750665      -0.19764733       0.31587214 </v>
   <v>       0.06972360      -0.18855879      -0.18927801 </v>
   <v>       0.31274355      -0.17634305      -0.19906805 </v>
   <v>      -0.19965171       0.06317685       0.31658686 </v>
   <v>      -0.20034204       0.31423468       0.06637378 </v>
   <v>       0.06661726       0.31558184      -0.18610328 </v>
   <v>      -0.18586524       0.31944985      -0.19596512 </v>
   <v>      -0.18849406       0.06845574      -0.20194378 </v>
   <v>      -0.23697934      -0.24630059       0.24036237 </v>
   <v>       0.24036410      -0.24953099       0.25653220 </v>
   <v>      -0.25804173       0.24238258       0.24888401 </v>
   <v>       0.25679643       0.23894779      -0.24946991 </v>
   <v>       0.24783532      -0.24874469      -0.25606744 </v>
   <v>      -0.25663522       0.23698525      -0.24485580 </v>
   <v>       0.06227475      -0.42845752       0.30806925 </v>
   <v>       0.06577801       0.05485511       0.30824475 </v>
   <v>       0.30957654       0.05860676       0.06630310 </v>
   <v>       0.30129798       0.05748296      -0.43685649 </v>
   <v>       0.06384344      -0.43999957       0.06181439 </v>
   <v>      -0.43513179       0.05700947       0.06362871 </v>
   <v>       0.32437628      -0.44326405       0.05408882 </v>
   <v>       0.05944081       0.31438059      -0.43783340 </v>
   <v>      -0.44553021       0.06416772       0.31332294 </v>
   <v>      -0.44446325       0.30892055       0.06780418 </v>
   <v>       0.07130970       0.05765588      -0.44237347 </v>
   <v>       0.07087856       0.31840017       0.05780552 </v>
   <v>      -0.01055861      -0.23571276      -0.23867662 </v>
   <v>       0.24350156      -0.48672914       0.24910075 </v>
   <v>      -0.00789520      -0.48968583       0.24594683 </v>
   <v>      -0.26104080      -0.23752964       0.49999722 </v>
   <v>      -0.00256213       0.23544489       0.26175170 </v>
   <v>       0.00253042      -0.24284526      -0.49934988 </v>
   <v>      -0.25663392       0.00358926       0.49891527 </v>
   <v>       0.49968172      -0.25877866       0.00222115 </v>
   <v>       0.24699005       0.49598179       0.00605986 </v>
   <v>       0.25140925       0.24416985       0.00267544 </v>
   <v>      -0.25306380      -0.25576521       0.01212750 </v>
   <v>       0.49847755      -0.25340365      -0.25208390 </v>
   <v>       0.49874930      -0.00067542       0.25305163 </v>
   <v>      -0.49998663       0.00357628      -0.25762560 </v>
   <v>       0.00601798       0.49665012      -0.25865467 </v>
   <v>      -0.49862076       0.26553788       0.24419083 </v>
   <v>      -0.24594217      -0.49896829       0.00014107 </v>
   <v>      -0.25557720      -0.49869212      -0.24325546 </v>
   <v>       0.26126480      -0.01002565       0.49810310 </v>
   <v>       0.25996674       0.00400109       0.24686266 </v>
   <v>       0.49493652       0.26354406      -0.00112217 </v>
   <v>      -0.25982193      -0.00394560      -0.24415328 </v>
   <v>       0.25393208       0.25764016       0.49596690 </v>
   <v>      -0.00241141       0.25033939       0.48780524 </v>
   <v>      -0.19559815      -0.42248443       0.30142753 </v>
   <v>      -0.18511477      -0.19037366      -0.44265530 </v>
   <v>       0.31062655      -0.44117260      -0.17625324 </v>
   <v>      -0.18094967      -0.44799206      -0.18586455 </v>
   <v>       0.30584832      -0.20458933       0.32249547 </v>
   <v>      -0.43183409      -0.19194271       0.31134752 </v>
   <v>      -0.43811805      -0.18057701      -0.18745070 </v>
   <v>      -0.18506242      -0.18255461      -0.19344587 </v>
   <v>       0.31445384      -0.18919235      -0.43455892 </v>
   <v>      -0.43555833       0.30827106       0.31556820 </v>
   <v>       0.31310003       0.30851772      -0.18490568 </v>
   <v>       0.31337280      -0.44223184       0.32233780 </v>
   <v>       0.32140703       0.30169329      -0.44111008 </v>
   <v>      -0.18356918       0.31036179      -0.44032790 </v>
   <v>      -0.44043400       0.31493391      -0.18581924 </v>
   <v>      -0.19198601       0.31621535       0.32155652 </v>
   <v>       0.48843562       0.02215779      -0.01508224 </v>
   <v>      -0.00042086      -0.48956885      -0.01107067 </v>
   <v>       0.00386650       0.49970004       0.49693060 </v>
   <v>       0.49042040       0.00417745      -0.49784749 </v>
   <v>      -0.01041205       0.00503744      -0.49328152 </v>
   <v>      -0.49690585       0.49859185       0.00003177 </v>
   <v>      -0.44737173      -0.43577700      -0.18433725 </v>
   <v>      -0.18578438      -0.42607722      -0.43383057 </v>
   <v>      -0.44116427       0.05284046      -0.42751087 </v>
   <v>      -0.42611434      -0.44103018       0.05108585 </v>
   <v>       0.05900405      -0.43226834      -0.43522423 </v>
   <v>      -0.44267939      -0.18545830       0.06609880 </v>
   <v>      -0.43238025      -0.18905150      -0.43654701 </v>
   <v>      -0.18605491       0.05613298      -0.43576452 </v>
   <v>       0.05714632      -0.42457609      -0.19930674 </v>
   <v>      -0.19947245      -0.42834502       0.06329883 </v>
   <v>       0.07175417      -0.19345224      -0.43513587 </v>
   <v>      -0.43641125       0.06125432      -0.19029451 </v>
   <v>       0.24790325      -0.49426349      -0.24357357 </v>
   <v>      -0.25002750      -0.49631447      -0.49778077 </v>
   <v>      -0.49709901       0.49752241       0.24054831 </v>
   <v>      -0.25004257       0.24293216      -0.49980409 </v>
   <v>       0.24469326      -0.25288953      -0.49713180 </v>
   <v>      -0.49508108      -0.25230088       0.24736088 </v>
   <v>      -0.25159865       0.49376637       0.25171806 </v>
   <v>      -0.49016740       0.49723168      -0.25144642 </v>
   <v>       0.49190909       0.25570121      -0.25208381 </v>
   <v>      -0.49737971      -0.25490052       0.49922979 </v>
   <v>       0.25434303       0.49131424      -0.49276247 </v>
   <v>      -0.49558436       0.25182823      -0.49199918 </v>
   <v>       0.30941312       0.32051517       0.30512582 </v>
   <v>       0.05167018       0.31411996       0.30711409 </v>
   <v>       0.32037588       0.06834441       0.31219750 </v>
   <v>       0.30587772       0.31099186       0.07055851 </v>
   <v>       0.26366961       0.24323470       0.25314185 </v>
   <v>      -0.25024033      -0.25358005      -0.24126000 </v>
   <v>      -0.45072539      -0.43126920       0.30720745 </v>
   <v>      -0.44268768      -0.43925436      -0.42976147 </v>
   <v>      -0.43503251       0.31014409      -0.43859019 </v>
   <v>       0.32605099      -0.45335116      -0.43382081 </v>
   <v>      -0.49928158       0.48240109      -0.49277774 </v>
  </varray>
 </structure>
 <varray name="primitive_index" >
  <v type="int" >        1 </v>
  <v type="int" >       77 </v>
  <v type="int" >       65 </v>
  <v type="int" >      113 </v>
  <v type="int" >       68 </v>
  <v type="int" >       17 </v>
  <v type="int" >        2 </v>
  <v type="int" >       29 </v>
  <v type="int" >       14 </v>
  <v type="int" >       53 </v>
  <v type="int" >        5 </v>
  <v type="int" >       50 </v>
  <v type="int" >       20 </v>
  <v type="int" >       13 </v>
  <v type="int" >        4 </v>
  <v type="int" >       49 </v>
  <v type="int" >        8 </v>
  <v type="int" >      114 </v>
  <v type="int" >       80 </v>
  <v type="int" >       78 </v>
  <v type="int" >       93 </v>
  <v type="int" >       96 </v>
  <v type="int" >      125 </v>
  <v type="int" >      126 </v>
  <v type="int" >       84 </v>
  <v type="int" >       72 </v>
  <v type="int" >      117 </v>
  <v type="int" >      120 </v>
  <v type="int" >      116 </v>
  <v type="int" >       32 </v>
  <v type="int" >       30 </v>
  <v type="int" >       24 </v>
  <v type="int" >       54 </v>
  <v type="int" >       62 </v>
  <v type="int" >       56 </v>
  <v type="int" >       89 </v>
  <v type="int" >       81 </v>
  <v type="int" >       66 </v>
  <v type="int" >       98 </v>
  <v type="int" >       73 </v>
  <v type="int" >       67 </v>
  <v type="int" >       74 </v>
  <v type="int" >      101 </v>
  <v type="int" >       83 </v>
  <v type="int" >       71 </v>
  <v type="int" >       97 </v>
  <v type="int" >       69 </v>
  <v type="int" >       61 </v>
  <v type="int" >       26 </v>
  <v type="int" >       25 </v>
  <v type="int" >       48 </v>
  <v type="int" >       21 </v>
  <v type="int" >       45 </v>
  <v type="int" >       36 </v>
  <v type="int" >       15 </v>
  <v type="int" >       10 </v>
  <v type="int" >        6 </v>
  <v type="int" >       16 </v>
  <v type="int" >       63 </v>
  <v type="int" >       19 </v>
  <v type="int" >       51 </v>
  <v type="int" >       57 </v>
  <v type="int" >       23 </v>
  <v type="int" >       12 </v>
  <v type="int" >       60 </v>
  <v type="int" >       34 </v>
  <v type="int" >       18 </v>
  <v type="int" >        7 </v>
  <v type="int" >       52 </v>
  <v type="int" >       38 </v>
  <v type="int" >       37 </v>
  <v type="int" >       92 </v>
  <v type="int" >      112 </v>
  <v type="int" >      122 </v>
  <v type="int" >      124 </v>
  <v type="int" >       94 </v>
  <v type="int" >       95 </v>
  <v type="int" >      127 </v>
  <v type="int" >      128 </v>
  <v type="int" >      110 </v>
  <v type="int" >       87 </v>
  <v type="int" >      118 </v>
  <v type="int" >       90 </v>
  <v type="int" >      102 </v>
  <v type="int" >      104 </v>
  <v type="int" >      119 </v>
  <v type="int" >       88 </v>
  <v type="int" >        3 </v>
  <v type="int" >        9 </v>
  <v type="int" >       41 </v>
  <v type="int" >       35 </v>
  <v type="int" >       33 </v>
  <v type="int" >       11 </v>
  <v type="int" >      123 </v>
  <v type="int" >      108 </v>
  <v type="int" >       99 </v>
  <v type="int" >       75 </v>
  <v type="int" >      105 </v>
  <v type="int" >       79 </v>
  <v type="int" >      111 </v>
  <v type="int" >      100 </v>
  <v type="int" >      121 </v>
  <v type="int" >       76 </v>
  <v type="int" >      109 </v>
  <v type="int" >      115 </v>
  <v type="int" >       58 </v>
  <v type="int" >       44 </v>
  <v type="int" >       27 </v>
  <v type="int" >       40 </v>
  <v type="int" >       46 </v>
  <v type="int" >       31 </v>
  <v type="int" >       28 </v>
  <v type="int" >       59 </v>
  <v type="int" >       55 </v>
  <v type="int" >       47 </v>
  <v type="int" >       42 </v>
  <v type="int" >       39 </v>
  <v type="int" >       86 </v>
  <v type="int" >       85 </v>
  <v type="int" >       82 </v>
  <v type="int" >       70 </v>
  <v type="int" >       22 </v>
  <v type="int" >       64 </v>
  <v type="int" >       91 </v>
  <v type="int" >      107 </v>
  <v type="int" >      103 </v>
  <v type="int" >      106 </v>
  <v type="int" >       43 </v>
 </varray>
 <kpoints>
  <generation param="Gamma">
   <v type="int" name="divisions">       2        2        2 </v>
   <v name="usershift">      0.00000000       0.00000000       0.00000000 </v>
   <v name="genvec1">      0.50000000       0.00000000       0.00000000 </v>
   <v name="genvec2">      0.00000000       0.50000000       0.00000000 </v>
   <v name="genvec3">      0.00000000       0.00000000       0.50000000 </v>
   <v name="shift">      0.00000000       0.00000000       0.00000000 </v>
  </generation>
  <varray name="kpointlist" >
   <v>       0.00000000       0.00000000       0.00000000 </v>
   <v>       0.50000000       0.00000000       0.00000000 </v>
   <v>       0.00000000       0.50000000       0.00000000 </v>
   <v>       0.50000000       0.50000000       0.00000000 </v>
   <v>       0.00000000       0.00000000       0.50000000 </v>
   <v>       0.50000000       0.00000000       0.50000000 </v>
   <v>       0.00000000       0.50000000       0.50000000 </v>
   <v>       0.50000000       0.50000000       0.50000000 </v>
  </varray>
  <varray name="weights" >
   <v>       0.12500000 </v>
   <v>       0.12500000 </v>
   <v>       0.12500000 </v>
   <v>       0.12500000 </v>
   <v>       0.12500000 </v>
   <v>       0.12500000 </v>
   <v>       0.12500000 </v>
   <v>       0.12500000 </v>
  </varray>
 </kpoints>
 <parameters>
  <separator name="general" >
   <i type="string" name="SYSTEM">potpaw_PBE@./ARUN.APL1ZEROSTATE</i>
   <i type="logical" name="LCOMPAT"> F  </i>
  </separator>
  <separator name="electronic" >
   <i type="string" name="PREC">accura</i>
   <i name="ENMAX">    500.00000000</i>
   <i name="ENAUG">    322.06900000</i>
   <i name="EDIFF">      0.00000001</i>
   <i type="int" name="IALGO">    38</i>
   <i type="int" name="IWAVPR">    10</i>
   <i type="int" name="NBANDS">   322</i>
   <i name="NELECT">    512.00000000</i>
   <i type="int" name="TURBO">     0</i>
   <i type="int" name="IRESTART">     0</i>
   <i type="int" name="NREBOOT">     0</i>
   <i type="int" name="NMIN">     0</i>
   <i name="EREF">      0.00000000</i>
   <separator name="electronic smearing" >
    <i type="int" name="ISMEAR">     0</i>
    <i name="SIGMA">      0.01000000</i>
    <i name="KSPACING">      0.50000000</i>
    <i type="logical" name="KGAMMA"> T  </i>
   </separator>
   <separator name="electronic projectors" >
    <i type="logical" name="LREAL"> F  </i>
    <v name="ROPT">      0.00000000</v>
    <i type="int" name="LMAXPAW">  -100</i>
    <i type="int" name="LMAXMIX">     2</i>
    <i type="logical" name="NLSPLINE"> F  </i>
   </separator>
   <separator name="electronic startup" >
    <i type="int" name="ISTART">     0</i>
    <i type="int" name="ICHARG">     2</i>
    <i type="int" name="INIWAV">     1</i>
   </separator>
   <separator name="electronic spin" >
    <i type="int" name="ISPIN">     1</i>
    <i type="logical" name="LNONCOLLINEAR"> F  </i>
    <v name="MAGMOM">      1.00000000      1.00000000      1.00000000      1.00000000      1.00000000      1.00000000      1.00000000      1.00000000      1.00000000      1.00000000      1.00000000      1.00000000      1.00000000      1.00000000      1.00000000      1.00000000      1.00000000      1.00000000      1.00000000      1.00000000
      1.00000000      1.00000000      1.00000000      1.00000000      1.00000000      1.00000000      1.00000000      1.00000000      1.00000000      1.00000000      1.00000000      1.00000000      1.00000000      1.00000000      1.00000000      1.00000000      1.00000000      1.00000000      1.00000000      1.00000000
      1.00000000      1.00000000      1.00000000      1.00000000      1.00000000      1.00000000      1.00000000      1.00000000      1.00000000      1.00000000      1.00000000      1.00000000      1.00000000      1.00000000      1.00000000      1.00000000      1.00000000      1.00000000      1.00000000      1.00000000
      1.00000000      1.00000000      1.00000000      1.00000000      1.00000000      1.00000000      1.00000000      1.00000000      1.00000000      1.00000000      1.00000000      1.00000000      1.00000000      1.00000000      1.00000000      1.00000000      1.00000000      1.00000000      1.00000000      1.00000000
      1.00000000      1.00000000      1.00000000      1.00000000      1.00000000      1.00000000      1.00000000      1.00000000      1.00000000      1.00000000      1.00000000      1.00000000      1.00000000      1.00000000      1.00000000      1.00000000      1.00000000      1.00000000      1.00000000      1.00000000
      1.00000000      1.00000000      1.00000000      1.00000000      1.00000000      1.00000000      1.00000000      1.00000000      1.00000000      1.00000000      1.00000000      1.00000000      1.00000000      1.00000000      1.00000000      1.00000000      1.00000000      1.00000000      1.00000000      1.00000000
      1.00000000      1.00000000      1.00000000      1.00000000      1.00000000      1.00000000      1.00000000      1.00000000</v>
    <i name="NUPDOWN">     -1.00000000</i>
    <i type="logical" name="LSORBIT"> F  </i>
    <v name="SAXIS">      0.00000000      0.00000000      1.00000000</v>
    <i type="logical" name="LSPIRAL"> F  </i>
    <v name="QSPIRAL">      0.00000000      0.00000000      0.00000000</v>
    <i type="logical" name="LZEROZ"> F  </i>
   </separator>
   <separator name="electronic exchange-correlation" >
    <i type="logical" name="LASPH"> F  </i>
    <i type="logical" name="LMETAGGA"> F  </i>
   </separator>
   <separator name="electronic convergence" >
    <i type="int" name="NELM">   120</i>
    <i type="int" name="NELMDL">    -5</i>
    <i type="int" name="NELMIN">     4</i>
    <i name="ENINI">    500.00000000</i>
    <separator name="electronic convergence detail" >
     <i type="logical" name="LDIAG"> T  </i>
     <i type="logical" name="LSUBROT"> F  </i>
     <i name="WEIMIN">      0.00000000</i>
     <i name="EBREAK">      0.00000000</i>
     <i name="DEPER">      0.30000000</i>
     <i type="int" name="NRMM">     4</i>
     <i name="TIME">      0.40000000</i>
    </separator>
   </separator>
   <separator name="electronic mixer" >
    <i name="AMIX">      0.40000000</i>
    <i name="BMIX">      1.00000000</i>
    <i name="AMIN">      0.10000000</i>
    <i name="AMIX_MAG">      1.60000000</i>
    <i name="BMIX_MAG">      1.00000000</i>
    <separator name="electronic mixer details" >
     <i type="int" name="IMIX">     4</i>
     <i type="logical" name="MIXFIRST"> F  </i>
     <i type="int" name="MAXMIX">   -45</i>
     <i name="WC">    100.00000000</i>
     <i type="int" name="INIMIX">     1</i>
     <i type="int" name="MIXPRE">     1</i>
     <i type="int" name="MREMOVE">     5</i>
    </separator>
   </separator>
   <separator name="electronic dipolcorrection" >
    <i type="logical" name="LDIPOL"> F  </i>
    <i type="logical" name="LMONO"> F  </i>
    <i type="int" name="IDIPOL">     0</i>
    <i name="EPSILON">      1.00000000</i>
    <v name="DIPOL">   -100.00000000   -100.00000000   -100.00000000</v>
    <i name="EFIELD">      0.00000000</i>
   </separator>
  </separator>
  <separator name="grids" >
   <i type="int" name="NGX">   120</i>
   <i type="int" name="NGY">   120</i>
   <i type="int" name="NGZ">   120</i>
   <i type="int" name="NGXF">   240</i>
   <i type="int" name="NGYF">   240</i>
   <i type="int" name="NGZF">   240</i>
   <i type="logical" name="ADDGRID"> T  </i>
  </separator>
  <separator name="ionic" >
   <i type="int" name="NSW">     0</i>
   <i type="int" name="IBRION">    -1</i>
   <i type="int" name="MDALGO">     0</i>
   <i type="int" name="ISIF">     2</i>
   <i name="PSTRESS">      0.00000000</i>
   <i name="EDIFFG">      0.00000010</i>
   <i type="int" name="NFREE">     0</i>
   <i name="POTIM">      0.50000000</i>
   <i name="SMASS">     -3.00000000</i>
   <i name="SCALEE">      1.00000000</i>
  </separator>
  <separator name="ionic md" >
   <i name="TEBEG">      0.00010000</i>
   <i name="TEEND">      0.00010000</i>
   <i type="int" name="NBLOCK">     1</i>
   <i type="int" name="KBLOCK">     1</i>
   <i type="int" name="NPACO">   256</i>
   <i name="APACO">     16.00000000</i>
  </separator>
  <separator name="symmetry" >
   <i type="int" name="ISYM">     2</i>
   <i name="SYMPREC">      0.00001000</i>
  </separator>
  <separator name="dos" >
   <i type="int" name="LORBIT">     0</i>
   <v name="RWIGS">     -1.00000000</v>
   <i type="int" name="NEDOS">   301</i>
   <i name="EMIN">     10.00000000</i>
   <i name="EMAX">    -10.00000000</i>
   <i name="EFERMI">      0.00000000</i>
  </separator>
  <separator name="writing" >
   <i type="int" name="NWRITE">     2</i>
   <i type="logical" name="LWAVE"> F  </i>
   <i type="logical" name="LDOWNSAMPLE"> F  </i>
   <i type="logical" name="LCHARG"> F  </i>
   <i type="logical" name="LPARD"> F  </i>
   <i type="logical" name="LVTOT"> F  </i>
   <i type="logical" name="LVHAR"> F  </i>
   <i type="logical" name="LELF"> F  </i>
   <i type="logical" name="LOPTICS"> F  </i>
   <v name="STM">      0.00000000      0.00000000      0.00000000      0.00000000      0.00000000      0.00000000      0.00000000</v>
  </separator>
  <separator name="performance" >
   <i type="int" name="NPAR">     2</i>
   <i type="int" name="NSIM">     4</i>
   <i type="int" name="NBLK">    -1</i>
   <i type="logical" name="LPLANE"> T  </i>
   <i type="logical" name="LSCALAPACK"> T  </i>
   <i type="logical" name="LSCAAWARE"> F  </i>
   <i type="logical" name="LSCALU"> F  </i>
   <i type="logical" name="LASYNC"> F  </i>
   <i type="logical" name="LORBITALREAL"> F  </i>
  </separator>
  <separator name="miscellaneous" >
   <i type="int" name="IDIOT">     3</i>
   <i type="int" name="ISPECIAL">     0</i>
   <i type="logical" name="LMUSIC"> F  </i>
   <v name="POMASS">     28.08500000</v>
   <v name="DARWINR">      0.00000000</v>
   <v name="DARWINV">      1.00000000</v>
   <i type="logical" name="LCORR"> T  </i>
  </separator>
  <i type="logical" name="GGA_COMPAT"> T  </i>
  <i type="logical" name="LBERRY"> F  </i>
  <i type="int" name="ICORELEVEL">     0</i>
  <i type="logical" name="LDAU"> F  </i>
  <i type="int" name="I_CONSTRAINED_M">     0</i>
  <separator name="electronic exchange-correlation" >
   <i type="string" name="GGA">--</i>
   <i type="int" name="VOSKOWN">     0</i>
   <i type="logical" name="LHFCALC"> F  </i>
   <i type="string" name="PRECFOCK"></i>
   <i type="logical" name="LSYMGRAD"> F  </i>
   <i type="logical" name="LHFONE"> F  </i>
   <i type="logical" name="LRHFCALC"> F  </i>
   <i type="logical" name="LTHOMAS"> F  </i>
   <i type="logical" name="LMODELHF"> F  </i>
   <i name="ENCUT4O">     -1.00000000</i>
   <i type="int" name="EXXOEP">     0</i>
   <i type="int" name="FOURORBIT">     0</i>
   <i name="AEXX">      0.00000000</i>
   <i name="HFALPHA">      0.00000000</i>
   <i name="MCALPHA">      0.00000000</i>
   <i name="ALDAX">      1.00000000</i>
   <i name="AGGAX">      1.00000000</i>
   <i name="ALDAC">      1.00000000</i>
   <i name="AGGAC">      1.00000000</i>
   <i type="int" name="NKREDX">     1</i>
   <i type="int" name="NKREDY">     1</i>
   <i type="int" name="NKREDZ">     1</i>
   <i type="logical" name="SHIFTRED"> F  </i>
   <i type="logical" name="ODDONLY"> F  </i>
   <i type="logical" name="EVENONLY"> F  </i>
   <i type="int" name="LMAXFOCK">     0</i>
   <i type="int" name="NMAXFOCKAE">     0</i>
   <i type="logical" name="LFOCKAEDFT"> F  </i>
   <i name="HFSCREEN">      0.00000000</i>
   <i name="HFSCREENC">      0.00000000</i>
   <i type="int" name="NBANDSGWLOW">     0</i>
  </separator>
  <separator name="vdW DFT" >
   <i type="logical" name="LUSE_VDW"> F  </i>
   <i name="Zab_VDW">     -0.84910000</i>
   <i name="PARAM1">      0.12340000</i>
   <i name="PARAM2">      1.00000000</i>
   <i name="PARAM3">      0.00000000</i>
  </separator>
  <separator name="model GW" >
   <i type="int" name="MODEL_GW">     0</i>
   <i name="MODEL_EPS0">     12.26607635</i>
   <i name="MODEL_ALPHA">      1.00000000</i>
  </separator>
  <separator name="linear response parameters" >
   <i type="logical" name="LEPSILON"> F  </i>
   <i type="logical" name="LRPA"> F  </i>
   <i type="logical" name="LNABLA"> F  </i>
   <i type="logical" name="LVEL"> F  </i>
   <i type="int" name="KINTER">     0</i>
   <i name="CSHIFT">      0.10000000</i>
   <i name="OMEGAMAX">     -1.00000000</i>
   <i name="DEG_THRESHOLD">      0.00200000</i>
   <i name="RTIME">     -0.10000000</i>
   <i name="WPLASMAI">      0.00000000</i>
   <v name="DFIELD">      0.00000000      0.00000000      0.00000000</v>
   <v name="WPLASMA">      0.00000000      0.00000000      0.00000000      0.00000000      0.00000000      0.00000000      0.00000000      0.00000000      0.00000000</v>
  </separator>
  <separator name="orbital magnetization" >
   <i type="logical" name="NUCIND"> F  </i>
   <v name="MAGPOS">      0.00000000      0.00000000      0.00000000</v>
   <i type="logical" name="LNICSALL"> T  </i>
   <i type="logical" name="ORBITALMAG"> F  </i>
   <i type="logical" name="LMAGBLOCH"> F  </i>
   <i type="logical" name="LCHIMAG"> F  </i>
   <i type="logical" name="LGAUGE"> T  </i>
   <i type="int" name="MAGATOM">     0</i>
   <v name="MAGDIPOL">      0.00000000      0.00000000      0.00000000</v>
   <v name="AVECCONST">      0.00000000      0.00000000      0.00000000</v>
  </separator>
  <separator name="response functions" >
   <i type="logical" name="LADDER"> F  </i>
   <i type="logical" name="LRPAFORCE"> F  </i>
   <i type="logical" name="LFXC"> F  </i>
   <i type="logical" name="LHARTREE"> T  </i>
   <i type="int" name="IBSE">     0</i>
   <v type="int" name="KPOINT">    -1     0     0     0</v>
   <i type="logical" name="LTCTE"> F  </i>
   <i type="logical" name="LTETE"> F  </i>
   <i type="logical" name="LTRIPLET"> F  </i>
   <i type="logical" name="LFXCEPS"> F  </i>
   <i type="logical" name="LFXHEG"> F  </i>
   <i type="int" name="NATURALO">     2</i>
   <i type="logical" name="L2ORDER"> F  </i>
   <i type="logical" name="LMP2LT"> F  </i>
   <i type="logical" name="LUSEW"> F  </i>
   <i name="ENCUTGW">     -2.00000000</i>
   <i name="ENCUTGWSOFT">     -2.00000000</i>
   <i name="ENCUTLF">     -1.00000000</i>
   <i type="int" name="LMAXMP2">    -1</i>
   <i name="SCISSOR">      0.00000000</i>
   <i type="int" name="NOMEGA">     0</i>
   <i type="int" name="NOMEGAR">     0</i>
   <i type="int" name="NBANDSGW">    -1</i>
   <i type="int" name="NBANDSO">    -1</i>
   <i type="int" name="NBANDSV">    -1</i>
   <i type="int" name="NELM">   120</i>
   <i type="int" name="NELMHF">     1</i>
   <i type="int" name="DIM">     3</i>
   <i type="int" name="ANTIRES">     0</i>
   <i name="OMEGAMAX">    -30.00000000</i>
   <i name="OMEGAMIN">    -30.00000000</i>
   <i name="OMEGATL">   -200.00000000</i>
   <i type="int" name="OMEGAGRID">   140</i>
   <i name="CSHIFT">     -0.10000000</i>
   <i type="logical" name="SELFENERGY"> F  </i>
   <i type="logical" name="LSPECTRAL"> F  </i>
   <i type="logical" name="LSPECTRALGW"> F  </i>
   <i type="logical" name="LSINGLES"> F  </i>
   <i type="logical" name="LFERMIGW"> F  </i>
   <i type="logical" name="ODDONLYGW"> F  </i>
   <i type="logical" name="EVENONLYGW"> F  </i>
   <i type="int" name="NKREDLFX">     1</i>
   <i type="int" name="NKREDLFY">     1</i>
   <i type="int" name="NKREDLFZ">     1</i>
   <i type="int" name="MAXMEM">  2800</i>
   <i type="int" name="TELESCOPE">     0</i>
   <i type="int" name="TAUPAR">     1</i>
   <i type="int" name="OMEGAPAR">    -1</i>
   <i name="LAMBDA">      1.00000000</i>
  </separator>
  <separator name="External order field" >
   <i name="OFIELD_KAPPA">      0.00000000</i>
   <v name="OFIELD_K">      0.00000000      0.00000000      0.00000000</v>
   <i name="OFIELD_Q6_NEAR">      0.00000000</i>
   <i name="OFIELD_Q6_FAR">      0.00000000</i>
   <i name="OFIELD_A">      0.00000000</i>
  </separator>
 </parameters>
 <atominfo>
  <atoms>     128 </atoms>
  <types>       1 </types>
  <array name="atoms" >
   <dimension dim="1">ion</dimension>
   <field type="string">element</field>
   <field type="int">atomtype</field>
   <set>
    <rc><c>Si</c><c>   1</c></rc>
    <rc><c>Si</c><c>   1</c></rc>
    <rc><c>Si</c><c>   1</c></rc>
    <rc><c>Si</c><c>   1</c></rc>
    <rc><c>Si</c><c>   1</c></rc>
    <rc><c>Si</c><c>   1</c></rc>
    <rc><c>Si</c><c>   1</c></rc>
    <rc><c>Si</c><c>   1</c></rc>
    <rc><c>Si</c><c>   1</c></rc>
    <rc><c>Si</c><c>   1</c></rc>
    <rc><c>Si</c><c>   1</c></rc>
    <rc><c>Si</c><c>   1</c></rc>
    <rc><c>Si</c><c>   1</c></rc>
    <rc><c>Si</c><c>   1</c></rc>
    <rc><c>Si</c><c>   1</c></rc>
    <rc><c>Si</c><c>   1</c></rc>
    <rc><c>Si</c><c>   1</c></rc>
    <rc><c>Si</c><c>   1</c></rc>
    <rc><c>Si</c><c>   1</c></rc>
    <rc><c>Si</c><c>   1</c></rc>
    <rc><c>Si</c><c>   1</c></rc>
    <rc><c>Si</c><c>   1</c></rc>
    <rc><c>Si</c><c>   1</c></rc>
    <rc><c>Si</c><c>   1</c></rc>
    <rc><c>Si</c><c>   1</c></rc>
    <rc><c>Si</c><c>   1</c></rc>
    <rc><c>Si</c><c>   1</c></rc>
    <rc><c>Si</c><c>   1</c></rc>
    <rc><c>Si</c><c>   1</c></rc>
    <rc><c>Si</c><c>   1</c></rc>
    <rc><c>Si</c><c>   1</c></rc>
    <rc><c>Si</c><c>   1</c></rc>
    <rc><c>Si</c><c>   1</c></rc>
    <rc><c>Si</c><c>   1</c></rc>
    <rc><c>Si</c><c>   1</c></rc>
    <rc><c>Si</c><c>   1</c></rc>
    <rc><c>Si</c><c>   1</c></rc>
    <rc><c>Si</c><c>   1</c></rc>
    <rc><c>Si</c><c>   1</c></rc>
    <rc><c>Si</c><c>   1</c></rc>
    <rc><c>Si</c><c>   1</c></rc>
    <rc><c>Si</c><c>   1</c></rc>
    <rc><c>Si</c><c>   1</c></rc>
    <rc><c>Si</c><c>   1</c></rc>
    <rc><c>Si</c><c>   1</c></rc>
    <rc><c>Si</c><c>   1</c></rc>
    <rc><c>Si</c><c>   1</c></rc>
    <rc><c>Si</c><c>   1</c></rc>
    <rc><c>Si</c><c>   1</c></rc>
    <rc><c>Si</c><c>   1</c></rc>
    <rc><c>Si</c><c>   1</c></rc>
    <rc><c>Si</c><c>   1</c></rc>
    <rc><c>Si</c><c>   1</c></rc>
    <rc><c>Si</c><c>   1</c></rc>
    <rc><c>Si</c><c>   1</c></rc>
    <rc><c>Si</c><c>   1</c></rc>
    <rc><c>Si</c><c>   1</c></rc>
    <rc><c>Si</c><c>   1</c></rc>
    <rc><c>Si</c><c>   1</c></rc>
    <rc><c>Si</c><c>   1</c></rc>
    <rc><c>Si</c><c>   1</c></rc>
    <rc><c>Si</c><c>   1</c></rc>
    <rc><c>Si</c><c>   1</c></rc>
    <rc><c>Si</c><c>   1</c></rc>
    <rc><c>Si</c><c>   1</c></rc>
    <rc><c>Si</c><c>   1</c></rc>
    <rc><c>Si</c><c>   1</c></rc>
    <rc><c>Si</c><c>   1</c></rc>
    <rc><c>Si</c><c>   1</c></rc>
    <rc><c>Si</c><c>   1</c></rc>
    <rc><c>Si</c><c>   1</c></rc>
    <rc><c>Si</c><c>   1</c></rc>
    <rc><c>Si</c><c>   1</c></rc>
    <rc><c>Si</c><c>   1</c></rc>
    <rc><c>Si</c><c>   1</c></rc>
    <rc><c>Si</c><c>   1</c></rc>
    <rc><c>Si</c><c>   1</c></rc>
    <rc><c>Si</c><c>   1</c></rc>
    <rc><c>Si</c><c>   1</c></rc>
    <rc><c>Si</c><c>   1</c></rc>
    <rc><c>Si</c><c>   1</c></rc>
    <rc><c>Si</c><c>   1</c></rc>
    <rc><c>Si</c><c>   1</c></rc>
    <rc><c>Si</c><c>   1</c></rc>
    <rc><c>Si</c><c>   1</c></rc>
    <rc><c>Si</c><c>   1</c></rc>
    <rc><c>Si</c><c>   1</c></rc>
    <rc><c>Si</c><c>   1</c></rc>
    <rc><c>Si</c><c>   1</c></rc>
    <rc><c>Si</c><c>   1</c></rc>
    <rc><c>Si</c><c>   1</c></rc>
    <rc><c>Si</c><c>   1</c></rc>
    <rc><c>Si</c><c>   1</c></rc>
    <rc><c>Si</c><c>   1</c></rc>
    <rc><c>Si</c><c>   1</c></rc>
    <rc><c>Si</c><c>   1</c></rc>
    <rc><c>Si</c><c>   1</c></rc>
    <rc><c>Si</c><c>   1</c></rc>
    <rc><c>Si</c><c>   1</c></rc>
    <rc><c>Si</c><c>   1</c></rc>
    <rc><c>Si</c><c>   1</c></rc>
    <rc><c>Si</c><c>   1</c></rc>
    <rc><c>Si</c><c>   1</c></rc>
    <rc><c>Si</c><c>   1</c></rc>
    <rc><c>Si</c><c>   1</c></rc>
    <rc><c>Si</c><c>   1</c></rc>
    <rc><c>Si</c><c>   1</c></rc>
    <rc><c>Si</c><c>   1</c></rc>
    <rc><c>Si</c><c>   1</c></rc>
    <rc><c>Si</c><c>   1</c></rc>
    <rc><c>Si</c><c>   1</c></rc>
    <rc><c>Si</c><c>   1</c></rc>
    <rc><c>Si</c><c>   1</c></rc>
    <rc><c>Si</c><c>   1</c></rc>
    <rc><c>Si</c><c>   1</c></rc>
    <rc><c>Si</c><c>   1</c></rc>
    <rc><c>Si</c><c>   1</c></rc>
    <rc><c>Si</c><c>   1</c></rc>
    <rc><c>Si</c><c>   1</c></rc>
    <rc><c>Si</c><c>   1</c></rc>
    <rc><c>Si</c><c>   1</c></rc>
    <rc><c>Si</c><c>   1</c></rc>
    <rc><c>Si</c><c>   1</c></rc>
    <rc><c>Si</c><c>   1</c></rc>
    <rc><c>Si</c><c>   1</c></rc>
    <rc><c>Si</c><c>   1</c></rc>
    <rc><c>Si</c><c>   1</c></rc>
    <rc><c>Si</c><c>   1</c></rc>
   </set>
  </array>
  <array name="atomtypes" >
   <dimension dim="1">type</dimension>
   <field type="int">atomspertype</field>
   <field type="string">element</field>
   <field>mass</field>
   <field>valence</field>
   <field type="string">pseudopotential</field>
   <set>
    <rc><c> 128</c><c>Si</c><c>     28.08500000</c><c>      4.00000000</c><c> PAW_PBE Si 05Jan2001                   </c></rc>
   </set>
  </array>
 </atominfo>
 <structure name="initialpos" >
  <crystal>
   <varray name="basis" >
    <v>       0.00000000      10.93733369      10.93733369 </v>
    <v>      10.93733369       0.00000000      10.93733369 </v>
    <v>      10.93733369      10.93733369       0.00000000 </v>
   </varray>
   <i name="volume">   2616.76295363 </i>
   <varray name="rec_basis" >
    <v>      -0.04571498       0.04571498       0.04571498 </v>
    <v>       0.04571498      -0.04571498       0.04571498 </v>
    <v>       0.04571498       0.04571498      -0.04571498 </v>
   </varray>
  </crystal>
  <varray name="positions" >
   <v>       0.00107817       0.99505036       0.00384552 </v>
   <v>       0.24176813       0.00840905       0.99874725 </v>
   <v>       0.48843562       0.02215779       0.98491776 </v>
   <v>       0.74385768       0.00150393       0.00188862 </v>
   <v>       0.00171376       0.24666610       0.00227148 </v>
   <v>       0.25140925       0.24416985       0.00267544 </v>
   <v>       0.49493652       0.26354406       0.99887783 </v>
   <v>       0.74723599       0.26057168       0.99425586 </v>
   <v>       0.99957914       0.51043115       0.98892933 </v>
   <v>       0.24699005       0.49598179       0.00605986 </v>
   <v>       0.50309415       0.49859185       0.00003177 </v>
   <v>       0.75405783       0.50103171       0.00014107 </v>
   <v>       0.99634173       0.74729668       0.99774475 </v>
   <v>       0.25348241       0.75019001       0.99904209 </v>
   <v>       0.49968172       0.74122134       0.00222115 </v>
   <v>       0.74693620       0.74423479       0.01212750 </v>
   <v>       0.00686021       0.00890402       0.23558792 </v>
   <v>       0.25996674       0.00400109       0.24686266 </v>
   <v>       0.49874930       0.99932458       0.25305163 </v>
   <v>       0.74141470       0.01527390       0.24819857 </v>
   <v>       0.99743787       0.23544489       0.26175170 </v>
   <v>       0.26366961       0.24323470       0.25314185 </v>
   <v>       0.50137924       0.26553788       0.24419083 </v>
   <v>       0.74195827       0.24238258       0.24888401 </v>
   <v>       0.99210480       0.51031417       0.24594683 </v>
   <v>       0.24350156       0.51327086       0.24910075 </v>
   <v>       0.50290099       0.49752241       0.24054831 </v>
   <v>       0.74840135       0.49376637       0.25171806 </v>
   <v>       0.00030513       0.74922269       0.24827574 </v>
   <v>       0.24036410       0.75046901       0.25653220 </v>
   <v>       0.50491892       0.74769912       0.24736088 </v>
   <v>       0.76302066       0.75369941       0.24036237 </v>
   <v>       0.98958795       0.00503744       0.50671848 </v>
   <v>       0.26126480       0.98997435       0.49810310 </v>
   <v>       0.49042040       0.00417745       0.50215251 </v>
   <v>       0.74336608       0.00358926       0.49891527 </v>
   <v>       0.99758859       0.25033939       0.48780524 </v>
   <v>       0.25393208       0.25764016       0.49596690 </v>
   <v>       0.50441564       0.25182823       0.50800082 </v>
   <v>       0.74995743       0.24293216       0.50019591 </v>
   <v>       0.00386650       0.49970004       0.49693060 </v>
   <v>       0.25434303       0.49131424       0.50723753 </v>
   <v>       0.50071842       0.48240109       0.50722226 </v>
   <v>       0.74997250       0.50368553       0.50221923 </v>
   <v>       0.00253042       0.75715474       0.50065012 </v>
   <v>       0.24469326       0.74711047       0.50286820 </v>
   <v>       0.50262029       0.74509948       0.49922979 </v>
   <v>       0.73895920       0.76247036       0.49999722 </v>
   <v>       0.00695920       0.99554331       0.74445981 </v>
   <v>       0.24969557       0.00757585       0.74797155 </v>
   <v>       0.50001337       0.00357628       0.74237440 </v>
   <v>       0.74017807       0.99605440       0.75584672 </v>
   <v>       0.00217890       0.24110459       0.75196570 </v>
   <v>       0.25679643       0.23894779       0.75053009 </v>
   <v>       0.49190909       0.25570121       0.74791619 </v>
   <v>       0.74336478       0.23698525       0.75514420 </v>
   <v>       0.00601798       0.49665012       0.74134533 </v>
   <v>       0.24790325       0.50573651       0.75642643 </v>
   <v>       0.50983260       0.49723168       0.74855358 </v>
   <v>       0.74442280       0.50130788       0.75674454 </v>
   <v>       0.98944139       0.76428724       0.76132338 </v>
   <v>       0.24783532       0.75125531       0.74393256 </v>
   <v>       0.49847755       0.74659635       0.74791610 </v>
   <v>       0.74975967       0.74641995       0.75874000 </v>
   <v>       0.06801555       0.06790969       0.04469907 </v>
   <v>       0.30957654       0.05860676       0.06630310 </v>
   <v>       0.56486821       0.05700947       0.06362871 </v>
   <v>       0.79651880       0.06615738       0.06898710 </v>
   <v>       0.07087856       0.31840017       0.05780552 </v>
   <v>       0.30587772       0.31099186       0.07055851 </v>
   <v>       0.55553675       0.30892055       0.06780418 </v>
   <v>       0.79965796       0.31423468       0.06637378 </v>
   <v>       0.06384344       0.56000043       0.06181439 </v>
   <v>       0.32437628       0.55673595       0.05408882 </v>
   <v>       0.57388566       0.55896982       0.05108585 </v>
   <v>       0.80052755       0.57165498       0.06329883 </v>
   <v>       0.05243275       0.81840288       0.05487478 </v>
   <v>       0.31424198       0.81699421       0.05446082 </v>
   <v>       0.55732061       0.81454170       0.06609880 </v>
   <v>       0.81195393       0.81887306       0.05764785 </v>
   <v>       0.06577801       0.05485511       0.30824475 </v>
   <v>       0.32037588       0.06834441       0.31219750 </v>
   <v>       0.55446979       0.06416772       0.31332294 </v>
   <v>       0.80034829       0.06317685       0.31658686 </v>
   <v>       0.05167018       0.31411996       0.30711409 </v>
   <v>       0.30941312       0.32051517       0.30512582 </v>
   <v>       0.56444167       0.30827106       0.31556820 </v>
   <v>       0.80801399       0.31621535       0.32155652 </v>
   <v>       0.06227475       0.57154248       0.30806925 </v>
   <v>       0.31337280       0.55776816       0.32233780 </v>
   <v>       0.54927461       0.56873080       0.30720745 </v>
   <v>       0.80440185       0.57751557       0.30142753 </v>
   <v>       0.05025220       0.81284621       0.31844395 </v>
   <v>       0.30584832       0.79541067       0.32249547 </v>
   <v>       0.56816591       0.80805729       0.31134752 </v>
   <v>       0.82249335       0.80235267       0.31587214 </v>
   <v>       0.07130970       0.05765588       0.55762653 </v>
   <v>       0.30129798       0.05748296       0.56314351 </v>
   <v>       0.55883573       0.05284046       0.57248913 </v>
   <v>       0.81394509       0.05613298       0.56423548 </v>
   <v>       0.05944081       0.31438059       0.56216660 </v>
   <v>       0.32140703       0.30169329       0.55888992 </v>
   <v>       0.56496749       0.31014409       0.56140981 </v>
   <v>       0.81643082       0.31036179       0.55967210 </v>
   <v>       0.05900405       0.56773166       0.56477577 </v>
   <v>       0.32605099       0.54664884       0.56617919 </v>
   <v>       0.55731232       0.56074564       0.57023853 </v>
   <v>       0.81421562       0.57392278       0.56616943 </v>
   <v>       0.07175417       0.80654776       0.56486413 </v>
   <v>       0.31445384       0.81080765       0.56544108 </v>
   <v>       0.56761975       0.81094850       0.56345299 </v>
   <v>       0.81488523       0.80962634       0.55734470 </v>
   <v>       0.06787435       0.06034695       0.80785979 </v>
   <v>       0.30474039       0.05497566       0.82025471 </v>
   <v>       0.56358875       0.06125432       0.80970549 </v>
   <v>       0.81150594       0.06845574       0.79805622 </v>
   <v>       0.06661726       0.31558184       0.81389672 </v>
   <v>       0.31310003       0.30851772       0.81509432 </v>
   <v>       0.55956600       0.31493391       0.81418076 </v>
   <v>       0.81413476       0.31944985       0.80403488 </v>
   <v>       0.05714632       0.57542391       0.80069326 </v>
   <v>       0.31062655       0.55882740       0.82374676 </v>
   <v>       0.55262827       0.56422300       0.81566275 </v>
   <v>       0.81905033       0.55200794       0.81413545 </v>
   <v>       0.06972360       0.81144121       0.81072199 </v>
   <v>       0.31274355       0.82365695       0.80093195 </v>
   <v>       0.56188195       0.81942299       0.81254930 </v>
   <v>       0.81493758       0.81744539       0.80655413 </v>
  </varray>
 </structure>
 <calculation>
  <scstep>
   <time name="dav">   69.35   69.37</time>
   <time name="total">   70.35   70.38</time>
   <energy>
    <i name="alphaZ">    210.77028614 </i>
    <i name="ewald"> -14475.74033453 </i>
    <i name="hartreedc">   -754.14718908 </i>
    <i name="XCdc">  -1195.42599920 </i>
    <i name="pawpsdc">   4221.13331941 </i>
    <i name="pawaedc">  -1969.18571412 </i>
    <i name="eentropy">     -0.00059307 </i>
    <i name="bandstr">   2152.15199336 </i>
    <i name="atom">  13192.48085998 </i>
    <i name="e_fr_energy">   1382.03662891 </i>
    <i name="e_wo_entrp">   1382.03722198 </i>
    <i name="e_0_energy">   1382.03692544 </i>
   </energy>
  </scstep>
  <scstep>
   <time name="dav">   78.80   78.83</time>
   <time name="total">   78.80   78.83</time>
   <energy>
    <i name="e_fr_energy">   -537.61684082 </i>
    <i name="e_wo_entrp">   -537.61684082 </i>
    <i name="e_0_energy">   -537.61684082 </i>
   </energy>
  </scstep>
  <scstep>
   <time name="dav">   80.44   80.48</time>
   <time name="total">   80.45   80.48</time>
   <energy>
    <i name="e_fr_energy">   -687.14921447 </i>
    <i name="e_wo_entrp">   -687.14921447 </i>
    <i name="e_0_energy">   -687.14921447 </i>
   </energy>
  </scstep>
  <scstep>
   <time name="dav">   79.57   79.61</time>
   <time name="total">   79.57   79.61</time>
   <energy>
    <i name="e_fr_energy">   -691.42474903 </i>
    <i name="e_wo_entrp">   -691.42474903 </i>
    <i name="e_0_energy">   -691.42474903 </i>
   </energy>
  </scstep>
  <scstep>
   <time name="dav">   80.79   80.82</time>
   <time name="total">   83.94   83.97</time>
   <energy>
    <i name="e_fr_energy">   -691.57559590 </i>
    <i name="e_wo_entrp">   -691.57559590 </i>
    <i name="e_0_energy">   -691.57559590 </i>
   </energy>
  </scstep>
  <scstep>
   <time name="dav">   76.51   76.53</time>
   <time name="total">   80.68   80.70</time>
   <energy>
    <i name="e_fr_energy">   -683.21799286 </i>
    <i name="e_wo_entrp">   -683.21799286 </i>
    <i name="e_0_energy">   -683.21799286 </i>
   </energy>
  </scstep>
  <scstep>
   <time name="dav">   75.93   75.95</time>
   <time name="total">   80.08   80.11</time>
   <energy>
    <i name="e_fr_energy">   -679.68050794 </i>
    <i name="e_wo_entrp">   -679.68050794 </i>
    <i name="e_0_energy">   -679.68050794 </i>
   </energy>
  </scstep>
  <scstep>
   <time name="dav">   75.80   75.83</time>
   <time name="total">   79.94   79.98</time>
   <energy>
    <i name="e_fr_energy">   -679.74279217 </i>
    <i name="e_wo_entrp">   -679.74279217 </i>
    <i name="e_0_energy">   -679.74279217 </i>
   </energy>
  </scstep>
  <scstep>
   <time name="dav">   78.56   78.59</time>
   <time name="total">   82.72   82.75</time>
   <energy>
    <i name="e_fr_energy">   -679.76239319 </i>
    <i name="e_wo_entrp">   -679.76239319 </i>
    <i name="e_0_energy">   -679.76239319 </i>
   </energy>
  </scstep>
  <scstep>
   <time name="dav">   77.26   77.27</time>
   <time name="total">   81.41   81.43</time>
   <energy>
    <i name="e_fr_energy">   -679.76494836 </i>
    <i name="e_wo_entrp">   -679.76494836 </i>
    <i name="e_0_energy">   -679.76494836 </i>
   </energy>
  </scstep>
  <scstep>
   <time name="dav">   76.16   76.19</time>
   <time name="total">   80.32   80.35</time>
   <energy>
    <i name="e_fr_energy">   -679.76615844 </i>
    <i name="e_wo_entrp">   -679.76615844 </i>
    <i name="e_0_energy">   -679.76615844 </i>
   </energy>
  </scstep>
  <scstep>
   <time name="dav">   79.01   79.03</time>
   <time name="total">   83.16   83.18</time>
   <energy>
    <i name="e_fr_energy">   -679.76622098 </i>
    <i name="e_wo_entrp">   -679.76622098 </i>
    <i name="e_0_energy">   -679.76622098 </i>
   </energy>
  </scstep>
  <scstep>
   <time name="dav">   75.13   75.16</time>
   <time name="total">   79.28   79.31</time>
   <energy>
    <i name="e_fr_energy">   -679.76624675 </i>
    <i name="e_wo_entrp">   -679.76624675 </i>
    <i name="e_0_energy">   -679.76624675 </i>
   </energy>
  </scstep>
  <scstep>
   <time name="dav">   79.93   79.96</time>
   <time name="total">   84.04   84.07</time>
   <energy>
    <i name="e_fr_energy">   -679.76625112 </i>
    <i name="e_wo_entrp">   -679.76625112 </i>
    <i name="e_0_energy">   -679.76625112 </i>
   </energy>
  </scstep>
  <scstep>
   <time name="dav">   78.39   78.42</time>
   <time name="total">   82.51   82.55</time>
   <energy>
    <i name="e_fr_energy">   -679.76625361 </i>
    <i name="e_wo_entrp">   -679.76625361 </i>
    <i name="e_0_energy">   -679.76625361 </i>
   </energy>
  </scstep>
  <scstep>
   <time name="dav">   77.88   77.90</time>
   <time name="total">   82.01   82.03</time>
   <energy>
    <i name="e_fr_energy">   -679.76625342 </i>
    <i name="e_wo_entrp">   -679.76625342 </i>
    <i name="e_0_energy">   -679.76625342 </i>
   </energy>
  </scstep>
  <scstep>
   <time name="dav">   58.41   58.43</time>
   <time name="total">   62.54   62.56</time>
   <energy>
    <i name="e_fr_energy">   -679.76625329 </i>
    <i name="e_wo_entrp">   -679.76625329 </i>
    <i name="e_0_energy">   -679.76625329 </i>
   </energy>
  </scstep>
  <scstep>
   <time name="dav">   51.45   51.48</time>
   <time name="total">   55.59   55.63</time>
   <energy>
    <i name="e_fr_energy">   -679.76625338 </i>
    <i name="e_wo_entrp">   -679.76625338 </i>
    <i name="e_0_energy">   -679.76625338 </i>
   </energy>
  </scstep>
  <scstep>
   <time name="dav">   50.41   50.44</time>
   <time name="total">   54.57   54.60</time>
   <energy>
    <i name="e_fr_energy">   -679.76625335 </i>
    <i name="e_wo_entrp">   -679.76625335 </i>
    <i name="e_0_energy">   -679.76625335 </i>
   </energy>
  </scstep>
  <scstep>
   <time name="dav">   49.83   49.85</time>
   <time name="total">   53.96   53.99</time>
   <energy>
    <i name="e_fr_energy">   -679.76625336 </i>
    <i name="e_wo_entrp">   -679.76625336 </i>
    <i name="e_0_energy">   -679.76625336 </i>
   </energy>
  </scstep>
  <scstep>
   <time name="dav">   49.69   49.71</time>
   <time name="total">   50.70   50.72</time>
   <energy>
    <i name="alphaZ">    210.77028614 </i>
    <i name="ewald"> -14475.74033453 </i>
    <i name="hartreedc">   -998.94734348 </i>
    <i name="XCdc">  -1155.94725512 </i>
    <i name="pawpsdc">   4728.56430999 </i>
    <i name="pawaedc">  -2490.22889428 </i>
    <i name="eentropy">     -0.00000000 </i>
    <i name="bandstr">    309.28211793 </i>
    <i name="atom">  13192.48085998 </i>
    <i name="e_fr_energy">   -679.76625337 </i>
    <i name="e_wo_entrp">   -679.76625337 </i>
    <i name="e_0_energy">   -679.76625337 </i>
   </energy>
  </scstep>
  <structure>
   <crystal>
    <varray name="basis" >
     <v>       0.00000000      10.93733369      10.93733369 </v>
     <v>      10.93733369       0.00000000      10.93733369 </v>
     <v>      10.93733369      10.93733369       0.00000000 </v>
    </varray>
    <i name="volume">   2616.76295363 </i>
    <varray name="rec_basis" >
     <v>      -0.04571498       0.04571498       0.04571498 </v>
     <v>       0.04571498      -0.04571498       0.04571498 </v>
     <v>       0.04571498       0.04571498      -0.04571498 </v>
    </varray>
   </crystal>
   <varray name="positions" >
    <v>       0.00107817       0.99505036       0.00384552 </v>
    <v>       0.24176813       0.00840905       0.99874725 </v>
    <v>       0.48843562       0.02215779       0.98491776 </v>
    <v>       0.74385768       0.00150393       0.00188862 </v>
    <v>       0.00171376       0.24666610       0.00227148 </v>
    <v>       0.25140925       0.24416985       0.00267544 </v>
    <v>       0.49493652       0.26354406       0.99887783 </v>
    <v>       0.74723599       0.26057168       0.99425586 </v>
    <v>       0.99957914       0.51043115       0.98892933 </v>
    <v>       0.24699005       0.49598179       0.00605986 </v>
    <v>       0.50309415       0.49859185       0.00003177 </v>
    <v>       0.75405783       0.50103171       0.00014107 </v>
    <v>       0.99634173       0.74729668       0.99774475 </v>
    <v>       0.25348241       0.75019001       0.99904209 </v>
    <v>       0.49968172       0.74122134       0.00222115 </v>
    <v>       0.74693620       0.74423479       0.01212750 </v>
    <v>       0.00686021       0.00890402       0.23558792 </v>
    <v>       0.25996674       0.00400109       0.24686266 </v>
    <v>       0.49874930       0.99932458       0.25305163 </v>
    <v>       0.74141470       0.01527390       0.24819857 </v>
    <v>       0.99743787       0.23544489       0.26175170 </v>
    <v>       0.26366961       0.24323470       0.25314185 </v>
    <v>       0.50137924       0.26553788       0.24419083 </v>
    <v>       0.74195827       0.24238258       0.24888401 </v>
    <v>       0.99210480       0.51031417       0.24594683 </v>
    <v>       0.24350156       0.51327086       0.24910075 </v>
    <v>       0.50290099       0.49752241       0.24054831 </v>
    <v>       0.74840135       0.49376637       0.25171806 </v>
    <v>       0.00030513       0.74922269       0.24827574 </v>
    <v>       0.24036410       0.75046901       0.25653220 </v>
    <v>       0.50491892       0.74769912       0.24736088 </v>
    <v>       0.76302066       0.75369941       0.24036237 </v>
    <v>       0.98958795       0.00503744       0.50671848 </v>
    <v>       0.26126480       0.98997435       0.49810310 </v>
    <v>       0.49042040       0.00417745       0.50215251 </v>
    <v>       0.74336608       0.00358926       0.49891527 </v>
    <v>       0.99758859       0.25033939       0.48780524 </v>
    <v>       0.25393208       0.25764016       0.49596690 </v>
    <v>       0.50441564       0.25182823       0.50800082 </v>
    <v>       0.74995743       0.24293216       0.50019591 </v>
    <v>       0.00386650       0.49970004       0.49693060 </v>
    <v>       0.25434303       0.49131424       0.50723753 </v>
    <v>       0.50071842       0.48240109       0.50722226 </v>
    <v>       0.74997250       0.50368553       0.50221923 </v>
    <v>       0.00253042       0.75715474       0.50065012 </v>
    <v>       0.24469326       0.74711047       0.50286820 </v>
    <v>       0.50262029       0.74509948       0.49922979 </v>
    <v>       0.73895920       0.76247036       0.49999722 </v>
    <v>       0.00695920       0.99554331       0.74445981 </v>
    <v>       0.24969557       0.00757585       0.74797155 </v>
    <v>       0.50001337       0.00357628       0.74237440 </v>
    <v>       0.74017807       0.99605440       0.75584672 </v>
    <v>       0.00217890       0.24110459       0.75196570 </v>
    <v>       0.25679643       0.23894779       0.75053009 </v>
    <v>       0.49190909       0.25570121       0.74791619 </v>
    <v>       0.74336478       0.23698525       0.75514420 </v>
    <v>       0.00601798       0.49665012       0.74134533 </v>
    <v>       0.24790325       0.50573651       0.75642643 </v>
    <v>       0.50983260       0.49723168       0.74855358 </v>
    <v>       0.74442280       0.50130788       0.75674454 </v>
    <v>       0.98944139       0.76428724       0.76132338 </v>
    <v>       0.24783532       0.75125531       0.74393256 </v>
    <v>       0.49847755       0.74659635       0.74791610 </v>
    <v>       0.74975967       0.74641995       0.75874000 </v>
    <v>       0.06801555       0.06790969       0.04469907 </v>
    <v>       0.30957654       0.05860676       0.06630310 </v>
    <v>       0.56486821       0.05700947       0.06362871 </v>
    <v>       0.79651880       0.06615738       0.06898710 </v>
    <v>       0.07087856       0.31840017       0.05780552 </v>
    <v>       0.30587772       0.31099186       0.07055851 </v>
    <v>       0.55553675       0.30892055       0.06780418 </v>
    <v>       0.79965796       0.31423468       0.06637378 </v>
    <v>       0.06384344       0.56000043       0.06181439 </v>
    <v>       0.32437628       0.55673595       0.05408882 </v>
    <v>       0.57388566       0.55896982       0.05108585 </v>
    <v>       0.80052755       0.57165498       0.06329883 </v>
    <v>       0.05243275       0.81840288       0.05487478 </v>
    <v>       0.31424198       0.81699421       0.05446082 </v>
    <v>       0.55732061       0.81454170       0.06609880 </v>
    <v>       0.81195393       0.81887306       0.05764785 </v>
    <v>       0.06577801       0.05485511       0.30824475 </v>
    <v>       0.32037588       0.06834441       0.31219750 </v>
    <v>       0.55446979       0.06416772       0.31332294 </v>
    <v>       0.80034829       0.06317685       0.31658686 </v>
    <v>       0.05167018       0.31411996       0.30711409 </v>
    <v>       0.30941312       0.32051517       0.30512582 </v>
    <v>       0.56444167       0.30827106       0.31556820 </v>
    <v>       0.80801399       0.31621535       0.32155652 </v>
    <v>       0.06227475       0.57154248       0.30806925 </v>
    <v>       0.31337280       0.55776816       0.32233780 </v>
    <v>       0.54927461       0.56873080       0.30720745 </v>
    <v>       0.80440185       0.57751557       0.30142753 </v>
    <v>       0.05025220       0.81284621       0.31844395 </v>
    <v>       0.30584832       0.79541067       0.32249547 </v>
    <v>       0.56816591       0.80805729       0.31134752 </v>
    <v>       0.82249335       0.80235267       0.31587214 </v>
    <v>       0.07130970       0.05765588       0.55762653 </v>
    <v>       0.30129798       0.05748296       0.56314351 </v>
    <v>       0.55883573       0.05284046       0.57248913 </v>
    <v>       0.81394509       0.05613298       0.56423548 </v>
    <v>       0.05944081       0.31438059       0.56216660 </v>
    <v>       0.32140703       0.30169329       0.55888992 </v>
    <v>       0.56496749       0.31014409       0.56140981 </v>
    <v>       0.81643082       0.31036179       0.55967210 </v>
    <v>       0.05900405       0.56773166       0.56477577 </v>
    <v>       0.32605099       0.54664884       0.56617919 </v>
    <v>       0.55731232       0.56074564       0.57023853 </v>
    <v>       0.81421562       0.57392278       0.56616943 </v>
    <v>       0.07175417       0.80654776       0.56486413 </v>
    <v>       0.31445384       0.81080765       0.56544108 </v>
    <v>       0.56761975       0.81094850       0.56345299 </v>
    <v>       0.81488523       0.80962634       0.55734470 </v>
    <v>       0.06787435       0.06034695       0.80785979 </v>
    <v>       0.30474039       0.05497566       0.82025471 </v>
    <v>       0.56358875       0.06125432       0.80970549 </v>
    <v>       0.81150594       0.06845574       0.79805622 </v>
    <v>       0.06661726       0.31558184       0.81389672 </v>
    <v>       0.31310003       0.30851772       0.81509432 </v>
    <v>       0.55956600       0.31493391       0.81418076 </v>
    <v>       0.81413476       0.31944985       0.80403488 </v>
    <v>       0.05714632       0.57542391       0.80069326 </v>
    <v>       0.31062655       0.55882740       0.82374676 </v>
    <v>       0.55262827       0.56422300       0.81566275 </v>
    <v>       0.81905033       0.55200794       0.81413545 </v>
    <v>       0.06972360       0.81144121       0.81072199 </v>
    <v>       0.31274355       0.82365695       0.80093195 </v>
    <v>       0.56188195       0.81942299       0.81254930 </v>
    <v>       0.81493758       0.81744539       0.80655413 </v>
   </varray>
  </structure>
  <varray name="forces" >
   <v>       0.44261129      -2.22020368       0.08833159 </v>
   <v>      -1.09871916       1.95801040       0.04834146 </v>
   <v>      -0.17827748       2.70949884      -1.15722222 </v>
   <v>      -1.08716439      -0.48411859       1.22230452 </v>
   <v>       1.36117275      -0.99417538       0.81412016 </v>
   <v>      -0.00355389       0.22984453       0.51372373 </v>
   <v>      -1.36486234      -0.06491862      -1.97013166 </v>
   <v>      -1.00159364      -0.67070683      -1.25208300 </v>
   <v>      -0.00124164       0.02262902      -0.86718819 </v>
   <v>       0.22606813       0.34971245       0.25499557 </v>
   <v>      -0.90818766       0.30963906      -0.21453913 </v>
   <v>      -0.90581930      -0.03888694      -0.11108138 </v>
   <v>      -0.09003534       0.16850609       0.50546850 </v>
   <v>      -0.68784320      -1.28444164      -0.53513724 </v>
   <v>       0.77402261      -0.22493907       1.30975310 </v>
   <v>       0.80591298      -2.24840020       1.63981331 </v>
   <v>      -0.43701609      -0.70260949      -2.08687683 </v>
   <v>       0.05345171       0.60023389      -1.95523341 </v>
   <v>      -1.42181458       0.23929761       0.05286511 </v>
   <v>      -1.37540075       0.50787505      -2.24419320 </v>
   <v>      -0.29856713      -1.84729596       1.04138121 </v>
   <v>       1.13621576      -2.54520659      -0.82899376 </v>
   <v>      -0.30450210       0.05859035      -2.72561744 </v>
   <v>       1.14742198       1.03896196       1.71738612 </v>
   <v>      -0.23469376       0.70785187      -0.48250805 </v>
   <v>      -1.40811332       0.53185986       0.24352102 </v>
   <v>       0.32191584       0.00945168      -0.27071427 </v>
   <v>       1.44495674      -1.30719768       0.66498895 </v>
   <v>      -0.06348739      -0.53134447       1.07570237 </v>
   <v>      -1.39029534      -0.93641583      -0.32801542 </v>
   <v>       1.29519710      -0.58510457      -0.68794874 </v>
   <v>       1.22972754      -0.86554236      -0.43718489 </v>
   <v>      -2.58747528       1.18725273       1.01273486 </v>
   <v>      -0.10401071      -1.83863284      -0.77332882 </v>
   <v>      -0.43425781       0.24362658      -0.38409212 </v>
   <v>      -0.40662319       1.19460504      -0.51020147 </v>
   <v>       0.60282404       1.92692999       0.38064862 </v>
   <v>      -1.60669455      -1.33225928      -1.97246777 </v>
   <v>      -2.39615239      -1.29669394      -1.77515184 </v>
   <v>       0.93258572       0.84439245       0.29247503 </v>
   <v>       0.86382082      -0.19950301       0.25216634 </v>
   <v>       0.33924919      -0.20324591      -0.55192405 </v>
   <v>       0.68932594      -0.85116099       3.32202160 </v>
   <v>      -0.03620770      -0.20712735       0.39221349 </v>
   <v>      -0.27992966      -0.13924122      -1.10731564 </v>
   <v>      -1.13017964       2.43288887       0.96747202 </v>
   <v>       0.46445543       0.24105469       0.43159531 </v>
   <v>      -2.16446810       1.59003009       0.91387744 </v>
   <v>       0.73943107      -0.52702130       0.15694313 </v>
   <v>      -1.28293485      -0.81273804      -0.81793827 </v>
   <v>       2.05146822       1.40507493      -1.89948760 </v>
   <v>      -0.50716746       0.14572392       1.72387587 </v>
   <v>       1.15010799      -0.52731563       1.37906974 </v>
   <v>       0.65365159      -0.61848089       0.35064489 </v>
   <v>      -0.49185084       1.40605715       0.58143498 </v>
   <v>       1.84173347      -1.30122206       3.24839902 </v>
   <v>       1.41620616       0.40054943      -0.22480368 </v>
   <v>      -1.12818832      -0.43167543      -0.69832448 </v>
   <v>       0.67277026      -0.88638668      -1.48557103 </v>
   <v>      -0.21648331      -0.95541724       0.42696436 </v>
   <v>      -2.87604775      -0.10119714       0.45288859 </v>
   <v>       0.30692784       1.98878204       0.21087148 </v>
   <v>       1.01581483       0.31972167       1.04732187 </v>
   <v>      -1.26524025      -0.71692627       0.20946074 </v>
   <v>       1.21588345       0.20776857      -1.58091230 </v>
   <v>       0.22880718      -0.74976161       0.34767594 </v>
   <v>       1.27703247      -1.66851606      -0.08002507 </v>
   <v>      -0.58085381       0.17609883       2.05730174 </v>
   <v>       0.65056702      -0.61048671      -1.84366409 </v>
   <v>      -0.91152448       0.10303675       0.38160444 </v>
   <v>       0.05837461       0.31819418       2.47858378 </v>
   <v>      -0.28505633       1.22476227       1.38245119 </v>
   <v>       0.36790153      -0.59836911      -0.01475527 </v>
   <v>       2.15398008      -0.52079493      -0.59582144 </v>
   <v>       0.85878032      -0.10696071      -0.79708119 </v>
   <v>      -1.41251071       2.48139554      -0.41499751 </v>
   <v>      -0.64988848       2.22638540      -0.08436109 </v>
   <v>       1.04445651       0.68269894      -0.78720703 </v>
   <v>      -0.47683970      -1.17663353       0.63992335 </v>
   <v>      -0.39965602       0.13661753      -0.34432451 </v>
   <v>       0.93526530       1.56189598       0.42349682 </v>
   <v>      -0.87442898       0.13130955      -1.68183275 </v>
   <v>       1.00517797       0.28849914       1.22384038 </v>
   <v>      -0.52686950       1.34386162       1.69191233 </v>
   <v>       0.02108174       1.00437430       1.82777358 </v>
   <v>       1.38276977       1.11492803       1.23914122 </v>
   <v>       1.46332978       0.09091876       0.22048930 </v>
   <v>      -2.47231152      -0.45762021      -0.77913098 </v>
   <v>      -0.66603676       0.17699100      -1.48081028 </v>
   <v>      -0.38846861      -0.85533419       0.48935277 </v>
   <v>      -0.77704985       2.20154292      -0.20751935 </v>
   <v>      -0.55012296       1.54211436      -1.48384996 </v>
   <v>      -0.14678893      -0.07474437       1.65529963 </v>
   <v>       0.78826280       0.14492134       2.93522641 </v>
   <v>       0.10674201       0.02721262       0.35855694 </v>
   <v>       1.56811768      -1.71462185       0.19759302 </v>
   <v>       0.31840386      -0.55844822       0.23423384 </v>
   <v>       1.81468683       0.97886806       2.52247220 </v>
   <v>      -0.84206062      -2.23514781       2.16359149 </v>
   <v>       0.98057108      -1.08308088      -1.15689412 </v>
   <v>      -0.82495694       0.11751191      -0.15372929 </v>
   <v>       1.75944200       0.91400448       0.64923483 </v>
   <v>       0.16473798       2.13012523      -0.07176048 </v>
   <v>       0.75357402      -0.61634657      -1.00064615 </v>
   <v>      -1.61245918      -0.55045239       0.96469872 </v>
   <v>       2.05313419      -1.29421419      -0.86575427 </v>
   <v>      -1.68354254      -0.45553989       0.45841238 </v>
   <v>      -0.66991291      -0.48188949      -0.88140509 </v>
   <v>       2.71396108      -1.38404095      -0.99899232 </v>
   <v>      -1.82114015      -0.55829268      -0.30278062 </v>
   <v>       1.02887650      -2.15830814      -1.42274622 </v>
   <v>       1.68798485       0.69315714       0.33766706 </v>
   <v>       0.43717487       0.22563424      -1.40405380 </v>
   <v>      -0.13013182       0.70130311       2.28071116 </v>
   <v>       0.40845904      -2.06168311       0.20561192 </v>
   <v>      -1.09458966       2.80725308      -1.85674252 </v>
   <v>      -1.31020817       0.07142552      -1.01533676 </v>
   <v>       0.78442715      -0.99890851      -0.32011126 </v>
   <v>      -0.62991966      -0.18198051      -0.49211673 </v>
   <v>      -0.76094848       0.35216300      -1.49958085 </v>
   <v>       0.22096479       0.66241301      -0.00865447 </v>
   <v>      -0.67740317      -0.16876806       1.19903452 </v>
   <v>      -0.07857081       1.23041289       0.84147853 </v>
   <v>       0.85123048      -0.19089047       0.53609232 </v>
   <v>       1.10287732      -0.11002220      -0.41961994 </v>
   <v>       0.03478840       0.59026249      -1.30784225 </v>
   <v>      -0.83345504       0.19187678      -1.10413983 </v>
   <v>       1.04193448       0.49901963      -2.07476249 </v>
  </varray>
  <varray name="stress" >
   <v>      12.78228644       0.88062408       2.01332263 </v>
   <v>       0.88062408      12.28820818       4.66189098 </v>
   <v>       2.01332264       4.66189098       9.83830040 </v>
  </varray>
  <energy>
   <i name="e_fr_energy">   -679.76625337 </i>
   <i name="e_wo_entrp">   -679.76625337 </i>
   <i name="e_0_energy">     -0.00000000 </i>
  </energy>
  <time name="totalsc"> 1683.09 1683.75</time>
  <eigenvalues>
   <array>
    <dimension dim="1">band</dimension>
    <dimension dim="2">kpoint</dimension>
    <dimension dim="3">spin</dimension>
    <field>eigene</field>
    <field>occ</field>
    <set>
     <set comment="spin 1">
      <set comment="kpoint 1">
       <r>   -6.2994    1.0000 </r>
       <r>   -5.6710    1.0000 </r>
       <r>   -5.6628    1.0000 </r>
       <r>   -5.6145    1.0000 </r>
       <r>   -5.5704    1.0000 </r>
       <r>   -5.5085    1.0000 </r>
       <r>   -5.4967    1.0000 </r>
       <r>   -5.4434    1.0000 </r>
       <r>   -5.3333    1.0000 </r>
       <r>   -5.3147    1.0000 </r>
       <r>   -5.2705    1.0000 </r>
       <r>   -5.1872    1.0000 </r>
       <r>   -5.1558    1.0000 </r>
       <r>   -5.1239    1.0000 </r>
       <r>   -5.0825    1.0000 </r>
       <r>   -4.4976    1.0000 </r>
       <r>   -4.4794    1.0000 </r>
       <r>   -4.4432    1.0000 </r>
       <r>   -4.3667    1.0000 </r>
       <r>   -4.3410    1.0000 </r>
       <r>   -4.3226    1.0000 </r>
       <r>   -4.2842    1.0000 </r>
       <r>   -4.2487    1.0000 </r>
       <r>   -4.2220    1.0000 </r>
       <r>   -4.1696    1.0000 </r>
       <r>   -4.1330    1.0000 </r>
       <r>   -4.1093    1.0000 </r>
       <r>   -4.0562    1.0000 </r>
       <r>   -4.0080    1.0000 </r>
       <r>   -3.9792    1.0000 </r>
       <r>   -3.9371    1.0000 </r>
       <r>   -3.8726    1.0000 </r>
       <r>   -3.8060    1.0000 </r>
       <r>   -3.7961    1.0000 </r>
       <r>   -3.7513    1.0000 </r>
       <r>   -3.7351    1.0000 </r>
       <r>   -3.6933    1.0000 </r>
       <r>   -3.6834    1.0000 </r>
       <r>   -3.6723    1.0000 </r>
       <r>   -3.6334    1.0000 </r>
       <r>   -3.6149    1.0000 </r>
       <r>   -3.5930    1.0000 </r>
       <r>   -3.5835    1.0000 </r>
       <r>   -3.5440    1.0000 </r>
       <r>   -3.5276    1.0000 </r>
       <r>   -3.5063    1.0000 </r>
       <r>   -3.4812    1.0000 </r>
       <r>   -3.4404    1.0000 </r>
       <r>   -3.4284    1.0000 </r>
       <r>   -3.3831    1.0000 </r>
       <r>   -3.3551    1.0000 </r>
       <r>   -3.3346    1.0000 </r>
       <r>   -3.3062    1.0000 </r>
       <r>   -3.2943    1.0000 </r>
       <r>   -3.2253    1.0000 </r>
       <r>   -2.3775    1.0000 </r>
       <r>   -2.3129    1.0000 </r>
       <r>   -2.2728    1.0000 </r>
       <r>   -2.2406    1.0000 </r>
       <r>   -2.2261    1.0000 </r>
       <r>   -2.1645    1.0000 </r>
       <r>   -2.1293    1.0000 </r>
       <r>   -2.1137    1.0000 </r>
       <r>   -2.0660    1.0000 </r>
       <r>   -2.0440    1.0000 </r>
       <r>   -2.0149    1.0000 </r>
       <r>   -1.9939    1.0000 </r>
       <r>   -1.9605    1.0000 </r>
       <r>   -1.9317    1.0000 </r>
       <r>   -1.8944    1.0000 </r>
       <r>   -1.8588    1.0000 </r>
       <r>   -1.8290    1.0000 </r>
       <r>   -1.7705    1.0000 </r>
       <r>   -1.3383    1.0000 </r>
       <r>   -1.2975    1.0000 </r>
       <r>   -1.2640    1.0000 </r>
       <r>   -1.2477    1.0000 </r>
       <r>   -1.0017    1.0000 </r>
       <r>   -0.9752    1.0000 </r>
       <r>   -0.9697    1.0000 </r>
       <r>   -0.9277    1.0000 </r>
       <r>   -0.9041    1.0000 </r>
       <r>   -0.8757    1.0000 </r>
       <r>   -0.8467    1.0000 </r>
       <r>   -0.8200    1.0000 </r>
       <r>   -0.7934    1.0000 </r>
       <r>   -0.7811    1.0000 </r>
       <r>   -0.7533    1.0000 </r>
       <r>   -0.7216    1.0000 </r>
       <r>   -0.7102    1.0000 </r>
       <r>   -0.6722    1.0000 </r>
       <r>   -0.6542    1.0000 </r>
       <r>   -0.6382    1.0000 </r>
       <r>   -0.6048    1.0000 </r>
       <r>   -0.5894    1.0000 </r>
       <r>   -0.5631    1.0000 </r>
       <r>   -0.5291    1.0000 </r>
       <r>   -0.4872    1.0000 </r>
       <r>   -0.4656    1.0000 </r>
       <r>   -0.4143    1.0000 </r>
       <r>   -0.3727    1.0000 </r>
       <r>   -0.0021    1.0000 </r>
       <r>    0.0538    1.0000 </r>
       <r>    0.0813    1.0000 </r>
       <r>    0.0938    1.0000 </r>
       <r>    0.1404    1.0000 </r>
       <r>    0.1562    1.0000 </r>
       <r>    0.2194    1.0000 </r>
       <r>    0.2218    1.0000 </r>
       <r>    0.2430    1.0000 </r>
       <r>    0.2769    1.0000 </r>
       <r>    0.3540    1.0000 </r>
       <r>    0.4122    1.0000 </r>
       <r>    1.4465    1.0000 </r>
       <r>    1.4770    1.0000 </r>
       <r>    1.4925    1.0000 </r>
       <r>    1.5097    1.0000 </r>
       <r>    1.5420    1.0000 </r>
       <r>    1.5558    1.0000 </r>
       <r>    1.5922    1.0000 </r>
       <r>    1.6047    1.0000 </r>
       <r>    1.6328    1.0000 </r>
       <r>    1.6507    1.0000 </r>
       <r>    1.6764    1.0000 </r>
       <r>    1.6858    1.0000 </r>
       <r>    1.7092    1.0000 </r>
       <r>    1.7189    1.0000 </r>
       <r>    1.7392    1.0000 </r>
       <r>    1.7527    1.0000 </r>
       <r>    1.7828    1.0000 </r>
       <r>    1.7955    1.0000 </r>
       <r>    1.7981    1.0000 </r>
       <r>    1.8203    1.0000 </r>
       <r>    1.8499    1.0000 </r>
       <r>    1.8514    1.0000 </r>
       <r>    1.8636    1.0000 </r>
       <r>    1.8963    1.0000 </r>
       <r>    1.8975    1.0000 </r>
       <r>    1.9118    1.0000 </r>
       <r>    1.9231    1.0000 </r>
       <r>    1.9308    1.0000 </r>
       <r>    1.9499    1.0000 </r>
       <r>    1.9557    1.0000 </r>
       <r>    1.9706    1.0000 </r>
       <r>    1.9868    1.0000 </r>
       <r>    1.9961    1.0000 </r>
       <r>    2.0145    1.0000 </r>
       <r>    2.0358    1.0000 </r>
       <r>    2.0442    1.0000 </r>
       <r>    2.0674    1.0000 </r>
       <r>    2.0762    1.0000 </r>
       <r>    2.0930    1.0000 </r>
       <r>    2.1005    1.0000 </r>
       <r>    2.1117    1.0000 </r>
       <r>    2.1213    1.0000 </r>
       <r>    2.1304    1.0000 </r>
       <r>    2.1346    1.0000 </r>
       <r>    2.1509    1.0000 </r>
       <r>    2.1759    1.0000 </r>
       <r>    2.1914    1.0000 </r>
       <r>    2.2104    1.0000 </r>
       <r>    2.2124    1.0000 </r>
       <r>    2.2354    1.0000 </r>
       <r>    2.2434    1.0000 </r>
       <r>    2.2640    1.0000 </r>
       <r>    2.2754    1.0000 </r>
       <r>    2.2846    1.0000 </r>
       <r>    2.3087    1.0000 </r>
       <r>    2.3485    1.0000 </r>
       <r>    2.3522    1.0000 </r>
       <r>    2.3889    1.0000 </r>
       <r>    2.3936    1.0000 </r>
       <r>    2.4406    1.0000 </r>
       <r>    2.4820    1.0000 </r>
       <r>    2.5303    1.0000 </r>
       <r>    2.7414    1.0000 </r>
       <r>    2.7940    1.0000 </r>
       <r>    2.8232    1.0000 </r>
       <r>    2.8405    1.0000 </r>
       <r>    2.8471    1.0000 </r>
       <r>    2.8952    1.0000 </r>
       <r>    3.1846    1.0000 </r>
       <r>    3.2325    1.0000 </r>
       <r>    3.2552    1.0000 </r>
       <r>    3.2611    1.0000 </r>
       <r>    3.2803    1.0000 </r>
       <r>    3.3076    1.0000 </r>
       <r>    3.3174    1.0000 </r>
       <r>    3.3556    1.0000 </r>
       <r>    3.3724    1.0000 </r>
       <r>    3.3771    1.0000 </r>
       <r>    3.3970    1.0000 </r>
       <r>    3.4316    1.0000 </r>
       <r>    3.4437    1.0000 </r>
       <r>    3.4800    1.0000 </r>
       <r>    3.4887    1.0000 </r>
       <r>    3.5011    1.0000 </r>
       <r>    3.5155    1.0000 </r>
       <r>    3.5300    1.0000 </r>
       <r>    3.5398    1.0000 </r>
       <r>    3.5580    1.0000 </r>
       <r>    3.5628    1.0000 </r>
       <r>    3.5965    1.0000 </r>
       <r>    3.6176    1.0000 </r>
       <r>    3.6551    1.0000 </r>
       <r>    3.6816    1.0000 </r>
       <r>    3.7057    1.0000 </r>
       <r>    3.7294    1.0000 </r>
       <r>    3.7352    1.0000 </r>
       <r>    3.7814    1.0000 </r>
       <r>    3.8110    1.0000 </r>
       <r>    3.8375    1.0000 </r>
       <r>    3.8637    1.0000 </r>
       <r>    3.8755    1.0000 </r>
       <r>    3.8955    1.0000 </r>
       <r>    3.9077    1.0000 </r>
       <r>    3.9886    1.0000 </r>
       <r>    4.1571    1.0000 </r>
       <r>    4.1691    1.0000 </r>
       <r>    4.1931    1.0000 </r>
       <r>    4.2171    1.0000 </r>
       <r>    4.2509    1.0000 </r>
       <r>    4.2762    1.0000 </r>
       <r>    4.3040    1.0000 </r>
       <r>    4.3162    1.0000 </r>
       <r>    4.3597    1.0000 </r>
       <r>    4.4050    1.0000 </r>
       <r>    4.4087    1.0000 </r>
       <r>    4.4409    1.0000 </r>
       <r>    4.4592    1.0000 </r>
       <r>    4.4662    1.0000 </r>
       <r>    4.4956    1.0000 </r>
       <r>    4.5113    1.0000 </r>
       <r>    4.5402    1.0000 </r>
       <r>    4.5688    1.0000 </r>
       <r>    4.6151    1.0000 </r>
       <r>    4.6498    1.0000 </r>
       <r>    4.7225    1.0000 </r>
       <r>    4.7469    1.0000 </r>
       <r>    4.8192    1.0000 </r>
       <r>    4.8272    1.0000 </r>
       <r>    4.8907    1.0000 </r>
       <r>    4.9341    1.0000 </r>
       <r>    4.9476    1.0000 </r>
       <r>    4.9567    1.0000 </r>
       <r>    5.0160    1.0000 </r>
       <r>    5.0444    1.0000 </r>
       <r>    5.0536    1.0000 </r>
       <r>    5.0763    1.0000 </r>
       <r>    5.1346    1.0000 </r>
       <r>    5.1874    1.0000 </r>
       <r>    5.2043    1.0000 </r>
       <r>    5.2650    1.0000 </r>
       <r>    5.6938    1.0000 </r>
       <r>    5.7621    1.0000 </r>
       <r>    5.8197    1.0000 </r>
       <r>    6.1759    0.0000 </r>
       <r>    6.2199    0.0000 </r>
       <r>    6.2423    0.0000 </r>
       <r>    6.2574    0.0000 </r>
       <r>    6.2886    0.0000 </r>
       <r>    6.3209    0.0000 </r>
       <r>    6.4833    0.0000 </r>
       <r>    6.5419    0.0000 </r>
       <r>    6.5962    0.0000 </r>
       <r>    6.6509    0.0000 </r>
       <r>    6.6654    0.0000 </r>
       <r>    6.6960    0.0000 </r>
       <r>    6.8014    0.0000 </r>
       <r>    6.8574    0.0000 </r>
       <r>    6.8741    0.0000 </r>
       <r>    6.8866    0.0000 </r>
       <r>    6.9008    0.0000 </r>
       <r>    6.9369    0.0000 </r>
       <r>    6.9445    0.0000 </r>
       <r>    6.9617    0.0000 </r>
       <r>    6.9951    0.0000 </r>
       <r>    6.9994    0.0000 </r>
       <r>    7.0146    0.0000 </r>
       <r>    7.0276    0.0000 </r>
       <r>    7.0456    0.0000 </r>
       <r>    7.0743    0.0000 </r>
       <r>    7.0892    0.0000 </r>
       <r>    7.1029    0.0000 </r>
       <r>    7.1095    0.0000 </r>
       <r>    7.1231    0.0000 </r>
       <r>    7.1576    0.0000 </r>
       <r>    7.1631    0.0000 </r>
       <r>    7.1854    0.0000 </r>
       <r>    7.1944    0.0000 </r>
       <r>    7.2050    0.0000 </r>
       <r>    7.2259    0.0000 </r>
       <r>    7.2655    0.0000 </r>
       <r>    7.2707    0.0000 </r>
       <r>    7.2948    0.0000 </r>
       <r>    7.3590    0.0000 </r>
       <r>    7.4420    0.0000 </r>
       <r>    7.4947    0.0000 </r>
       <r>    7.5094    0.0000 </r>
       <r>    7.5431    0.0000 </r>
       <r>    7.5543    0.0000 </r>
       <r>    7.5756    0.0000 </r>
       <r>    7.5873    0.0000 </r>
       <r>    7.5926    0.0000 </r>
       <r>    7.8369    0.0000 </r>
       <r>    7.8543    0.0000 </r>
       <r>    7.8895    0.0000 </r>
       <r>    7.9063    0.0000 </r>
       <r>    7.9327    0.0000 </r>
       <r>    7.9603    0.0000 </r>
       <r>    7.9792    0.0000 </r>
       <r>    8.0252    0.0000 </r>
       <r>    8.0548    0.0000 </r>
       <r>    8.0678    0.0000 </r>
       <r>    8.0870    0.0000 </r>
       <r>    8.1162    0.0000 </r>
       <r>    8.1939    0.0000 </r>
       <r>    8.2187    0.0000 </r>
       <r>    8.2586    0.0000 </r>
       <r>    8.4648    0.0000 </r>
       <r>    8.5353    0.0000 </r>
       <r>    8.5967    0.0000 </r>
      </set>
      <set comment="kpoint 2">
       <r>   -6.1486    1.0000 </r>
       <r>   -6.0639    1.0000 </r>
       <r>   -5.7300    1.0000 </r>
       <r>   -5.6402    1.0000 </r>
       <r>   -5.5924    1.0000 </r>
       <r>   -5.5471    1.0000 </r>
       <r>   -5.5020    1.0000 </r>
[...]
       <r>    -3.1117    39.0605   100.4997 </r>
       <r>    -3.0570    47.1226   103.0735 </r>
       <r>    -3.0024    44.6306   105.5112 </r>
       <r>    -2.9478    49.3464   108.2065 </r>
       <r>    -2.8932    31.4876   109.9263 </r>
       <r>    -2.8386    27.0448   111.4035 </r>
       <r>    -2.7839    37.5346   113.4536 </r>
       <r>    -2.7293    35.2413   115.3785 </r>
       <r>    -2.6747    30.6279   117.0514 </r>
       <r>    -2.6201    35.6147   118.9966 </r>
       <r>    -2.5655    37.4115   121.0400 </r>
       <r>    -2.5109    20.6402   122.1674 </r>
       <r>    -2.4562    10.6665   122.7500 </r>
       <r>    -2.4016     0.0015   122.7501 </r>
       <r>    -2.3470     4.5756   123.0000 </r>
       <r>    -2.2924     9.0932   123.4967 </r>
       <r>    -2.2378     7.8726   123.9267 </r>
       <r>    -2.1831    20.1254   125.0259 </r>
       <r>    -2.1285    26.6229   126.4800 </r>
       <r>    -2.0739    31.0447   128.1757 </r>
       <r>    -2.0193    30.8187   129.8590 </r>
       <r>    -1.9647    25.9560   131.2767 </r>
       <r>    -1.9100    13.2999   132.0031 </r>
       <r>    -1.8554    11.9388   132.6552 </r>
       <r>    -1.8008     6.3131   133.0000 </r>
       <r>    -1.7462     4.5757   133.2499 </r>
       <r>    -1.6916     1.5229   133.3331 </r>
       <r>    -1.6369    16.8353   134.2526 </r>
       <r>    -1.5823    35.9934   136.2186 </r>
       <r>    -1.5277    32.5128   137.9944 </r>
       <r>    -1.4731    35.7294   139.9459 </r>
       <r>    -1.4185    28.6817   141.5125 </r>
       <r>    -1.3638    32.6392   143.2952 </r>
       <r>    -1.3092    53.5715   146.2213 </r>
       <r>    -1.2546    64.1714   149.7263 </r>
       <r>    -1.2000    70.2314   153.5623 </r>
       <r>    -1.1454    51.4226   156.3710 </r>
       <r>    -1.0908    62.4117   159.7800 </r>
       <r>    -1.0361    54.8551   162.7761 </r>
       <r>    -0.9815    67.6992   166.4738 </r>
       <r>    -0.9269    80.6213   170.8773 </r>
       <r>    -0.8723    63.7241   174.3579 </r>
       <r>    -0.8177    65.1256   177.9151 </r>
       <r>    -0.7630    48.1128   180.5430 </r>
       <r>    -0.7084    45.0006   183.0009 </r>
       <r>    -0.6538    42.5173   185.3231 </r>
       <r>    -0.5992    45.6874   187.8185 </r>
       <r>    -0.5446    26.1674   189.2478 </r>
       <r>    -0.4899    20.0224   190.3414 </r>
       <r>    -0.4353    23.6424   191.6328 </r>
       <r>    -0.3807    29.1823   193.2267 </r>
       <r>    -0.3261    43.3932   195.5968 </r>
       <r>    -0.2715    40.7737   197.8239 </r>
       <r>    -0.2168    60.6582   201.1370 </r>
       <r>    -0.1622    57.3017   204.2668 </r>
       <r>    -0.1076    39.5460   206.4268 </r>
       <r>    -0.0530    46.1570   208.9479 </r>
       <r>     0.0016    42.6574   211.2778 </r>
       <r>     0.0563    25.2842   212.6588 </r>
       <r>     0.1109    19.9210   213.7469 </r>
       <r>     0.1655     8.7797   214.2264 </r>
       <r>     0.2201     4.7453   214.4856 </r>
       <r>     0.2747    23.2924   215.7578 </r>
       <r>     0.3294    16.8353   216.6774 </r>
       <r>     0.3840    28.3934   218.2282 </r>
       <r>     0.4386    30.8775   219.9147 </r>
       <r>     0.4932    25.0792   221.2845 </r>
       <r>     0.5478    29.8846   222.9168 </r>
       <r>     0.6024    15.3738   223.7566 </r>
       <r>     0.6571    14.7641   224.5630 </r>
       <r>     0.7117    17.6362   225.5262 </r>
       <r>     0.7663    18.1338   226.5167 </r>
       <r>     0.8209    18.0020   227.5000 </r>
       <r>     0.8755     6.8478   227.8740 </r>
       <r>     0.9302     7.5630   228.2871 </r>
       <r>     0.9848    24.9663   229.6507 </r>
       <r>     1.0394    33.5530   231.4834 </r>
       <r>     1.0940    21.5823   232.6622 </r>
       <r>     1.1486    31.0097   234.3560 </r>
       <r>     1.2033    14.4804   235.1469 </r>
       <r>     1.2579    33.1916   236.9598 </r>
       <r>     1.3125    40.2428   239.1578 </r>
       <r>     1.3671    21.0849   240.3095 </r>
       <r>     1.4217    51.3162   243.1123 </r>
       <r>     1.4764    54.0311   246.0635 </r>
       <r>     1.5310    77.9844   250.3230 </r>
       <r>     1.5856    95.2133   255.5235 </r>
       <r>     1.6402    80.8512   259.9396 </r>
       <r>     1.6948    73.4652   263.9522 </r>
       <r>     1.7495    64.3324   267.4660 </r>
       <r>     1.8041    50.3769   270.2176 </r>
       <r>     1.8587    37.1084   272.2445 </r>
       <r>     1.9133    16.8233   273.1633 </r>
       <r>     1.9679    21.3214   274.3279 </r>
       <r>     2.0225    27.6187   275.8364 </r>
       <r>     2.0772    62.0108   279.2234 </r>
       <r>     2.1318   104.7136   284.9428 </r>
       <r>     2.1864   115.8700   291.2716 </r>
       <r>     2.2410   117.7008   297.7004 </r>
       <r>     2.2956   113.7048   303.9109 </r>
       <r>     2.3503    92.5649   308.9668 </r>
       <r>     2.4049   116.3992   315.3244 </r>
       <r>     2.4595    71.0332   319.2042 </r>
       <r>     2.5141    55.5651   322.2392 </r>
       <r>     2.5687    28.9140   323.8184 </r>
       <r>     2.6234    41.2320   326.0705 </r>
       <r>     2.6780    56.1153   329.1355 </r>
       <r>     2.7326    78.4189   333.4187 </r>
       <r>     2.7872    95.7279   338.6473 </r>
       <r>     2.8418    98.0918   344.0051 </r>
       <r>     2.8965    83.6333   348.5731 </r>
       <r>     2.9511    99.6843   354.0177 </r>
       <r>     3.0057    95.9699   359.2596 </r>
       <r>     3.0603   102.9441   364.8824 </r>
       <r>     3.1149    92.9584   369.9597 </r>
       <r>     3.1696    61.9155   373.3416 </r>
       <r>     3.2242    75.6402   377.4730 </r>
       <r>     3.2788   109.8444   383.4726 </r>
       <r>     3.3334    92.6911   388.5354 </r>
       <r>     3.3880    95.0050   393.7246 </r>
       <r>     3.4426    83.0791   398.2623 </r>
       <r>     3.4973    79.0270   402.5787 </r>
       <r>     3.5519    97.8388   407.9226 </r>
       <r>     3.6065    89.4459   412.8081 </r>
       <r>     3.6611    59.6746   416.0675 </r>
       <r>     3.7157    75.4957   420.1910 </r>
       <r>     3.7704    80.4217   424.5836 </r>
       <r>     3.8250    87.3352   429.3538 </r>
       <r>     3.8796    86.4145   434.0737 </r>
       <r>     3.9342    74.3211   438.1331 </r>
       <r>     3.9888    65.6911   441.7211 </r>
       <r>     4.0435    64.8371   445.2625 </r>
       <r>     4.0981    63.7732   448.7457 </r>
       <r>     4.1527    54.2342   451.7080 </r>
       <r>     4.2073    80.7713   456.1196 </r>
       <r>     4.2619    78.5964   460.4125 </r>
       <r>     4.3166    82.5143   464.9194 </r>
       <r>     4.3712    65.5009   468.4970 </r>
       <r>     4.4258    71.8815   472.4232 </r>
       <r>     4.4804    74.3687   476.4851 </r>
       <r>     4.5350    74.4757   480.5530 </r>
       <r>     4.5897    61.6864   483.9222 </r>
       <r>     4.6443    54.6564   486.9075 </r>
       <r>     4.6989    47.5677   489.5057 </r>
       <r>     4.7535    34.7771   491.4052 </r>
       <r>     4.8081     9.0731   491.9008 </r>
       <r>     4.8627    28.7275   493.4698 </r>
       <r>     4.9174    31.9990   495.2176 </r>
       <r>     4.9720    48.4610   497.8645 </r>
       <r>     5.0266    38.2024   499.9511 </r>
       <r>     5.0812    37.2655   501.9866 </r>
       <r>     5.1358    18.1376   502.9772 </r>
       <r>     5.1905    12.7372   503.6729 </r>
       <r>     5.2451     5.9991   504.0006 </r>
       <r>     5.2997     4.5741   504.2504 </r>
       <r>     5.3543    21.1708   505.4068 </r>
       <r>     5.4089    17.4744   506.3612 </r>
       <r>     5.4636    19.7600   507.4405 </r>
       <r>     5.5182    29.1275   509.0314 </r>
       <r>     5.5728    21.1820   510.1884 </r>
       <r>     5.6274    18.3265   511.1894 </r>
       <r>     5.6820     1.3329   511.2622 </r>
       <r>     5.7367     4.3552   511.5000 </r>
       <r>     5.7913     4.5765   511.7500 </r>
       <r>     5.8459     4.5765   512.0000 </r>
       <r>     5.9005     0.0000   512.0000 </r>
       <r>     5.9551     0.0000   512.0000 </r>
       <r>     6.0098     0.0000   512.0000 </r>
       <r>     6.0644     0.0000   512.0000 </r>
       <r>     6.1190     0.0641   512.0035 </r>
       <r>     6.1736    15.4229   512.8459 </r>
       <r>     6.2282    20.3822   513.9592 </r>
       <r>     6.2829    10.8514   514.5518 </r>
       <r>     6.3375    26.5855   516.0040 </r>
       <r>     6.3921    17.7272   516.9722 </r>
       <r>     6.4467    21.4358   518.1430 </r>
       <r>     6.5013    34.9558   520.0523 </r>
       <r>     6.5559    23.1075   521.3144 </r>
       <r>     6.6106    12.4191   521.9927 </r>
       <r>     6.6652    13.7545   522.7440 </r>
       <r>     6.7198    31.2933   524.4533 </r>
       <r>     6.7744    23.7224   525.7490 </r>
       <r>     6.8290    35.9128   527.7105 </r>
       <r>     6.8837    34.5338   529.5967 </r>
       <r>     6.9383    28.6473   531.1614 </r>
       <r>     6.9929    31.9807   532.9082 </r>
       <r>     7.0475    49.6387   535.6194 </r>
       <r>     7.1021    44.9133   538.0726 </r>
       <r>     7.1568    28.8986   539.6510 </r>
       <r>     7.2114    35.3992   541.5845 </r>
       <r>     7.2660    52.1609   544.4335 </r>
       <r>     7.3206    68.9002   548.1968 </r>
       <r>     7.3752    71.9193   552.1250 </r>
       <r>     7.4299    76.4628   556.3014 </r>
       <r>     7.4845    77.9976   560.5616 </r>
       <r>     7.5391    94.7411   565.7363 </r>
       <r>     7.5937    94.8951   570.9194 </r>
       <r>     7.6483    73.1041   574.9123 </r>
       <r>     7.7030    83.5813   579.4775 </r>
       <r>     7.7576    85.5544   584.1504 </r>
       <r>     7.8122    96.1923   589.4044 </r>
       <r>     7.8668    94.0509   594.5414 </r>
       <r>     7.9214   104.7989   600.2654 </r>
       <r>     7.9760    89.2759   605.1417 </r>
       <r>     8.0307    75.1704   609.2474 </r>
       <r>     8.0853    95.0831   614.4408 </r>
       <r>     8.1399    92.1148   619.4720 </r>
       <r>     8.1945    71.7423   623.3905 </r>
       <r>     8.2491    92.6474   628.4509 </r>
       <r>     8.3038    75.9677   632.6003 </r>
       <r>     8.3584    81.8449   637.0706 </r>
       <r>     8.4130    68.1066   640.7906 </r>
       <r>     8.4676    37.9548   642.8637 </r>
       <r>     8.5222    11.7967   643.5080 </r>
       <r>     8.5769     4.4415   643.7506 </r>
       <r>     8.6315     4.5658   644.0000 </r>
       <r>     8.6861     0.0000   644.0000 </r>
       <r>     8.7407     0.0000   644.0000 </r>
       <r>     8.7953     0.0000   644.0000 </r>
       <r>     8.8500     0.0000   644.0000 </r>
       <r>     8.9046     0.0000   644.0000 </r>
       <r>     8.9592     0.0000   644.0000 </r>
       <r>     9.0138     0.0000   644.0000 </r>
       <r>     9.0684     0.0000   644.0000 </r>
       <r>     9.1231     0.0000   644.0000 </r>
       <r>     9.1777     0.0000   644.0000 </r>
       <r>     9.2323     0.0000   644.0000 </r>
       <r>     9.2869     0.0000   644.0000 </r>
       <r>     9.3415     0.0000   644.0000 </r>
      </set>
     </set>
    </array>
   </total>
  </dos>
 </calculation>
 <structure name="finalpos" >
  <crystal>
   <varray name="basis" >
    <v>       0.00000000      10.93733369      10.93733369 </v>
    <v>      10.93733369       0.00000000      10.93733369 </v>
    <v>      10.93733369      10.93733369       0.00000000 </v>
   </varray>
   <i name="volume">   2616.76295363 </i>
   <varray name="rec_basis" >
    <v>      -0.04571498       0.04571498       0.04571498 </v>
    <v>       0.04571498      -0.04571498       0.04571498 </v>
    <v>       0.04571498       0.04571498      -0.04571498 </v>
   </varray>
  </crystal>
  <varray name="positions" >
   <v>       0.00107817       0.99505036       0.00384552 </v>
   <v>       0.24176813       0.00840905       0.99874725 </v>
   <v>       0.48843562       0.02215779       0.98491776 </v>
   <v>       0.74385768       0.00150393       0.00188862 </v>
   <v>       0.00171376       0.24666610       0.00227148 </v>
   <v>       0.25140925       0.24416985       0.00267544 </v>
   <v>       0.49493652       0.26354406       0.99887783 </v>
   <v>       0.74723599       0.26057168       0.99425586 </v>
   <v>       0.99957914       0.51043115       0.98892933 </v>
   <v>       0.24699005       0.49598179       0.00605986 </v>
   <v>       0.50309415       0.49859185       0.00003177 </v>
   <v>       0.75405783       0.50103171       0.00014107 </v>
   <v>       0.99634173       0.74729668       0.99774475 </v>
   <v>       0.25348241       0.75019001       0.99904209 </v>
   <v>       0.49968172       0.74122134       0.00222115 </v>
   <v>       0.74693620       0.74423479       0.01212750 </v>
   <v>       0.00686021       0.00890402       0.23558792 </v>
   <v>       0.25996674       0.00400109       0.24686266 </v>
   <v>       0.49874930       0.99932458       0.25305163 </v>
   <v>       0.74141470       0.01527390       0.24819857 </v>
   <v>       0.99743787       0.23544489       0.26175170 </v>
   <v>       0.26366961       0.24323470       0.25314185 </v>
   <v>       0.50137924       0.26553788       0.24419083 </v>
   <v>       0.74195827       0.24238258       0.24888401 </v>
   <v>       0.99210480       0.51031417       0.24594683 </v>
   <v>       0.24350156       0.51327086       0.24910075 </v>
   <v>       0.50290099       0.49752241       0.24054831 </v>
   <v>       0.74840135       0.49376637       0.25171806 </v>
   <v>       0.00030513       0.74922269       0.24827574 </v>
   <v>       0.24036410       0.75046901       0.25653220 </v>
   <v>       0.50491892       0.74769912       0.24736088 </v>
   <v>       0.76302066       0.75369941       0.24036237 </v>
   <v>       0.98958795       0.00503744       0.50671848 </v>
   <v>       0.26126480       0.98997435       0.49810310 </v>
   <v>       0.49042040       0.00417745       0.50215251 </v>
   <v>       0.74336608       0.00358926       0.49891527 </v>
   <v>       0.99758859       0.25033939       0.48780524 </v>
   <v>       0.25393208       0.25764016       0.49596690 </v>
   <v>       0.50441564       0.25182823       0.50800082 </v>
   <v>       0.74995743       0.24293216       0.50019591 </v>
   <v>       0.00386650       0.49970004       0.49693060 </v>
   <v>       0.25434303       0.49131424       0.50723753 </v>
   <v>       0.50071842       0.48240109       0.50722226 </v>
   <v>       0.74997250       0.50368553       0.50221923 </v>
   <v>       0.00253042       0.75715474       0.50065012 </v>
   <v>       0.24469326       0.74711047       0.50286820 </v>
   <v>       0.50262029       0.74509948       0.49922979 </v>
   <v>       0.73895920       0.76247036       0.49999722 </v>
   <v>       0.00695920       0.99554331       0.74445981 </v>
   <v>       0.24969557       0.00757585       0.74797155 </v>
   <v>       0.50001337       0.00357628       0.74237440 </v>
   <v>       0.74017807       0.99605440       0.75584672 </v>
   <v>       0.00217890       0.24110459       0.75196570 </v>
   <v>       0.25679643       0.23894779       0.75053009 </v>
   <v>       0.49190909       0.25570121       0.74791619 </v>
   <v>       0.74336478       0.23698525       0.75514420 </v>
   <v>       0.00601798       0.49665012       0.74134533 </v>
   <v>       0.24790325       0.50573651       0.75642643 </v>
   <v>       0.50983260       0.49723168       0.74855358 </v>
   <v>       0.74442280       0.50130788       0.75674454 </v>
   <v>       0.98944139       0.76428724       0.76132338 </v>
   <v>       0.24783532       0.75125531       0.74393256 </v>
   <v>       0.49847755       0.74659635       0.74791610 </v>
   <v>       0.74975967       0.74641995       0.75874000 </v>
   <v>       0.06801555       0.06790969       0.04469907 </v>
   <v>       0.30957654       0.05860676       0.06630310 </v>
   <v>       0.56486821       0.05700947       0.06362871 </v>
   <v>       0.79651880       0.06615738       0.06898710 </v>
   <v>       0.07087856       0.31840017       0.05780552 </v>
   <v>       0.30587772       0.31099186       0.07055851 </v>
   <v>       0.55553675       0.30892055       0.06780418 </v>
   <v>       0.79965796       0.31423468       0.06637378 </v>
   <v>       0.06384344       0.56000043       0.06181439 </v>
   <v>       0.32437628       0.55673595       0.05408882 </v>
   <v>       0.57388566       0.55896982       0.05108585 </v>
   <v>       0.80052755       0.57165498       0.06329883 </v>
   <v>       0.05243275       0.81840288       0.05487478 </v>
   <v>       0.31424198       0.81699421       0.05446082 </v>
   <v>       0.55732061       0.81454170       0.06609880 </v>
   <v>       0.81195393       0.81887306       0.05764785 </v>
   <v>       0.06577801       0.05485511       0.30824475 </v>
   <v>       0.32037588       0.06834441       0.31219750 </v>
   <v>       0.55446979       0.06416772       0.31332294 </v>
   <v>       0.80034829       0.06317685       0.31658686 </v>
   <v>       0.05167018       0.31411996       0.30711409 </v>
   <v>       0.30941312       0.32051517       0.30512582 </v>
   <v>       0.56444167       0.30827106       0.31556820 </v>
   <v>       0.80801399       0.31621535       0.32155652 </v>
   <v>       0.06227475       0.57154248       0.30806925 </v>
   <v>       0.31337280       0.55776816       0.32233780 </v>
   <v>       0.54927461       0.56873080       0.30720745 </v>
   <v>       0.80440185       0.57751557       0.30142753 </v>
   <v>       0.05025220       0.81284621       0.31844395 </v>
   <v>       0.30584832       0.79541067       0.32249547 </v>
   <v>       0.56816591       0.80805729       0.31134752 </v>
   <v>       0.82249335       0.80235267       0.31587214 </v>
   <v>       0.07130970       0.05765588       0.55762653 </v>
   <v>       0.30129798       0.05748296       0.56314351 </v>
   <v>       0.55883573       0.05284046       0.57248913 </v>
   <v>       0.81394509       0.05613298       0.56423548 </v>
   <v>       0.05944081       0.31438059       0.56216660 </v>
   <v>       0.32140703       0.30169329       0.55888992 </v>
   <v>       0.56496749       0.31014409       0.56140981 </v>
   <v>       0.81643082       0.31036179       0.55967210 </v>
   <v>       0.05900405       0.56773166       0.56477577 </v>
   <v>       0.32605099       0.54664884       0.56617919 </v>
   <v>       0.55731232       0.56074564       0.57023853 </v>
   <v>       0.81421562       0.57392278       0.56616943 </v>
   <v>       0.07175417       0.80654776       0.56486413 </v>
   <v>       0.31445384       0.81080765       0.56544108 </v>
   <v>       0.56761975       0.81094850       0.56345299 </v>
   <v>       0.81488523       0.80962634       0.55734470 </v>
   <v>       0.06787435       0.06034695       0.80785979 </v>
   <v>       0.30474039       0.05497566       0.82025471 </v>
   <v>       0.56358875       0.06125432       0.80970549 </v>
   <v>       0.81150594       0.06845574       0.79805622 </v>
   <v>       0.06661726       0.31558184       0.81389672 </v>
   <v>       0.31310003       0.30851772       0.81509432 </v>
   <v>       0.55956600       0.31493391       0.81418076 </v>
   <v>       0.81413476       0.31944985       0.80403488 </v>
   <v>       0.05714632       0.57542391       0.80069326 </v>
   <v>       0.31062655       0.55882740       0.82374676 </v>
   <v>       0.55262827       0.56422300       0.81566275 </v>
   <v>       0.81905033       0.55200794       0.81413545 </v>
   <v>       0.06972360       0.81144121       0.81072199 </v>
   <v>       0.31274355       0.82365695       0.80093195 </v>
   <v>       0.56188195       0.81942299       0.81254930 </v>
   <v>       0.81493758       0.81744539       0.80655413 </v>
  </varray>
 </structure>
</modeling>
