potpaw_PBE@./ARUN.APL1ZEROSTATE         
           1
     0.000000   10.937334   10.937334
    10.937334    0.000000   10.937334
    10.937334   10.937334    0.000000
   Si
 128
Direct configuration=     1
   0.00107817  0.99505036  0.00384552
   0.24176813  0.00840905  0.99874725
   0.48843562  0.02215779  0.98491776
   0.74385768  0.00150393  0.00188862
   0.00171376  0.24666610  0.00227148
   0.25140925  0.24416985  0.00267544
   0.49493652  0.26354406  0.99887783
   0.74723599  0.26057168  0.99425586
   0.99957914  0.51043115  0.98892933
   0.24699005  0.49598179  0.00605986
   0.50309415  0.49859185  0.00003177
   0.75405783  0.50103171  0.00014107
   0.99634173  0.74729668  0.99774475
   0.25348241  0.75019001  0.99904209
   0.49968172  0.74122134  0.00222115
   0.74693620  0.74423479  0.01212750
   0.00686021  0.00890402  0.23558792
   0.25996674  0.00400109  0.24686266
   0.49874930  0.99932458  0.25305163
   0.74141470  0.01527390  0.24819857
   0.99743787  0.23544489  0.26175170
   0.26366961  0.24323470  0.25314185
   0.50137924  0.26553788  0.24419083
   0.74195827  0.24238258  0.24888401
   0.99210480  0.51031417  0.24594683
   0.24350156  0.51327086  0.24910075
   0.50290099  0.49752241  0.24054831
   0.74840135  0.49376637  0.25171806
   0.00030513  0.74922269  0.24827574
   0.24036410  0.75046901  0.25653220
   0.50491892  0.74769912  0.24736088
   0.76302066  0.75369941  0.24036237
   0.98958795  0.00503744  0.50671848
   0.26126480  0.98997435  0.49810310
   0.49042040  0.00417745  0.50215251
   0.74336608  0.00358926  0.49891527
   0.99758859  0.25033939  0.48780524
   0.25393208  0.25764016  0.49596690
   0.50441564  0.25182823  0.50800082
   0.74995743  0.24293216  0.50019591
   0.00386650  0.49970004  0.49693060
   0.25434303  0.49131424  0.50723753
   0.50071842  0.48240109  0.50722226
   0.74997250  0.50368553  0.50221923
   0.00253042  0.75715474  0.50065012
   0.24469326  0.74711047  0.50286820
   0.50262029  0.74509948  0.49922979
   0.73895920  0.76247036  0.49999722
   0.00695920  0.99554331  0.74445981
   0.24969557  0.00757585  0.74797155
   0.50001337  0.00357628  0.74237440
   0.74017807  0.99605440  0.75584672
   0.00217890  0.24110459  0.75196570
   0.25679643  0.23894779  0.75053009
   0.49190909  0.25570121  0.74791619
   0.74336478  0.23698525  0.75514420
   0.00601798  0.49665012  0.74134533
   0.24790325  0.50573651  0.75642643
   0.50983260  0.49723168  0.74855358
   0.74442280  0.50130788  0.75674454
   0.98944139  0.76428724  0.76132338
   0.24783532  0.75125531  0.74393256
   0.49847755  0.74659635  0.74791610
   0.74975967  0.74641995  0.75874000
   0.06801555  0.06790969  0.04469907
   0.30957654  0.05860676  0.06630310
   0.56486821  0.05700947  0.06362871
   0.79651880  0.06615738  0.06898710
   0.07087856  0.31840017  0.05780552
   0.30587772  0.31099186  0.07055851
   0.55553675  0.30892055  0.06780418
   0.79965796  0.31423468  0.06637378
   0.06384344  0.56000043  0.06181439
   0.32437628  0.55673595  0.05408882
   0.57388566  0.55896982  0.05108585
   0.80052755  0.57165498  0.06329883
   0.05243275  0.81840288  0.05487478
   0.31424198  0.81699421  0.05446082
   0.55732061  0.81454170  0.06609880
   0.81195393  0.81887306  0.05764785
   0.06577801  0.05485511  0.30824475
   0.32037588  0.06834441  0.31219750
   0.55446979  0.06416772  0.31332294
   0.80034829  0.06317685  0.31658686
   0.05167018  0.31411996  0.30711409
   0.30941312  0.32051517  0.30512582
   0.56444167  0.30827106  0.31556820
   0.80801399  0.31621535  0.32155652
   0.06227475  0.57154248  0.30806925
   0.31337280  0.55776816  0.32233780
   0.54927461  0.56873080  0.30720745
   0.80440185  0.57751557  0.30142753
   0.05025220  0.81284621  0.31844395
   0.30584832  0.79541067  0.32249547
   0.56816591  0.80805729  0.31134752
   0.82249335  0.80235267  0.31587214
   0.07130970  0.05765588  0.55762653
   0.30129798  0.05748296  0.56314351
   0.55883573  0.05284046  0.57248913
   0.81394509  0.05613298  0.56423548
   0.05944081  0.31438059  0.56216660
   0.32140703  0.30169329  0.55888992
   0.56496749  0.31014409  0.56140981
   0.81643082  0.31036179  0.55967210
   0.05900405  0.56773166  0.56477577
   0.32605099  0.54664884  0.56617919
   0.55731232  0.56074564  0.57023853
   0.81421562  0.57392278  0.56616943
   0.07175417  0.80654776  0.56486413
   0.31445384  0.81080765  0.56544108
   0.56761975  0.81094850  0.56345299
   0.81488523  0.80962634  0.55734470
   0.06787435  0.06034695  0.80785979
   0.30474039  0.05497566  0.82025471
   0.56358875  0.06125432  0.80970549
   0.81150594  0.06845574  0.79805622
   0.06661726  0.31558184  0.81389672
   0.31310003  0.30851772  0.81509432
   0.55956600  0.31493391  0.81418076
   0.81413476  0.31944985  0.80403488
   0.05714632  0.57542391  0.80069326
   0.31062655  0.55882740  0.82374676
   0.55262827  0.56422300  0.81566275
   0.81905033  0.55200794  0.81413545
   0.06972360  0.81144121  0.81072199
   0.31274355  0.82365695  0.80093195
   0.56188195  0.81942299  0.81254930
   0.81493758  0.81744539  0.80655413
