 128 128   0   0
  0.2044346E+02  0.1546773E-08  0.1546773E-08  0.1546773E-08  0.5000000E-15
  1.000000000000000E-004
  CAR 
 potpaw_PBE@./ARUN.APL1ZEROSTATE         
      9.36740387     -7.04277498  301      6.03750508      1.00000000
     -7.043  0.0000E+00  0.0000E+00
     -6.988  0.0000E+00  0.0000E+00
     -6.933  0.0000E+00  0.0000E+00
     -6.879  0.0000E+00  0.0000E+00
     -6.824  0.0000E+00  0.0000E+00
     -6.769  0.0000E+00  0.0000E+00
     -6.715  0.0000E+00  0.0000E+00
     -6.660  0.0000E+00  0.0000E+00
     -6.605  0.0000E+00  0.0000E+00
     -6.550  0.0000E+00  0.0000E+00
     -6.496  0.0000E+00  0.0000E+00
     -6.441  0.0000E+00  0.0000E+00
     -6.386  0.0000E+00  0.0000E+00
     -6.332  0.1950E-05  0.1066E-06
     -6.277  0.4559E+01  0.2494E+00
     -6.222  0.1121E-01  0.2500E+00
     -6.168  0.8580E-01  0.2547E+00
     -6.113  0.1812E+02  0.1246E+01
     -6.058  0.2770E+02  0.2761E+01
     -6.003  0.1546E+02  0.3607E+01
     -5.949  0.2623E+01  0.3750E+01
     -5.894  0.7292E-01  0.3754E+01
     -5.839  0.1322E+02  0.4477E+01
     -5.785  0.5626E+00  0.4508E+01
     -5.730  0.2355E+02  0.5796E+01
     -5.675  0.4008E+02  0.7989E+01
     -5.621  0.1959E+02  0.9060E+01
     -5.566  0.3646E+02  0.1105E+02
     -5.511  0.2705E+02  0.1253E+02
     -5.456  0.1940E+02  0.1360E+02
     -5.402  0.1875E+02  0.1462E+02
     -5.347  0.2352E+01  0.1475E+02
     -5.292  0.1948E+01  0.1486E+02
     -5.238  0.7192E+01  0.1525E+02
     -5.183  0.1741E+02  0.1620E+02
     -5.128  0.4241E+02  0.1852E+02
     -5.074  0.4995E+02  0.2125E+02
     -5.019  0.4054E+02  0.2347E+02
     -4.964  0.4290E+02  0.2582E+02
     -4.909  0.3181E+02  0.2756E+02
     -4.855  0.1347E+02  0.2830E+02
     -4.800  0.2474E+02  0.2965E+02
     -4.745  0.3118E+02  0.3136E+02
     -4.691  0.3202E+02  0.3311E+02
     -4.636  0.5468E+02  0.3610E+02
     -4.581  0.2588E+02  0.3751E+02
     -4.527  0.3456E+02  0.3940E+02
     -4.472  0.3023E+02  0.4106E+02
     -4.417  0.2466E+02  0.4241E+02
     -4.362  0.1763E+02  0.4337E+02
     -4.308  0.1955E+02  0.4444E+02
     -4.253  0.4269E+02  0.4677E+02
     -4.198  0.5139E+02  0.4959E+02
     -4.144  0.6759E+02  0.5328E+02
     -4.089  0.6213E+02  0.5668E+02
     -4.034  0.5973E+02  0.5995E+02
     -3.980  0.4079E+02  0.6218E+02
     -3.925  0.6280E+02  0.6562E+02
     -3.870  0.5317E+02  0.6852E+02
     -3.815  0.3915E+02  0.7067E+02
     -3.761  0.5190E+02  0.7350E+02
     -3.706  0.5703E+02  0.7662E+02
     -3.651  0.2967E+02  0.7825E+02
     -3.597  0.3616E+02  0.8022E+02
     -3.542  0.3263E+02  0.8201E+02
     -3.487  0.4560E+02  0.8450E+02
     -3.433  0.5327E+02  0.8742E+02
     -3.378  0.6694E+02  0.9108E+02
     -3.323  0.4053E+02  0.9330E+02
     -3.268  0.4539E+02  0.9578E+02
     -3.214  0.2471E+02  0.9713E+02
     -3.159  0.3634E+02  0.9912E+02
     -3.104  0.3466E+02  0.1010E+03
     -3.050  0.4318E+02  0.1034E+03
     -2.995  0.4346E+02  0.1058E+03
     -2.940  0.4662E+02  0.1083E+03
     -2.886  0.3085E+02  0.1100E+03
     -2.831  0.3733E+02  0.1120E+03
     -2.776  0.2519E+02  0.1134E+03
     -2.721  0.3685E+02  0.1154E+03
     -2.667  0.3724E+02  0.1175E+03
     -2.612  0.4009E+02  0.1197E+03
     -2.557  0.3753E+02  0.1217E+03
     -2.503  0.1897E+02  0.1227E+03
     -2.448  0.3766E-01  0.1228E+03
     -2.393  0.1830E+01  0.1229E+03
     -2.339  0.2740E+01  0.1230E+03
     -2.284  0.4975E+01  0.1233E+03
     -2.229  0.2234E+02  0.1245E+03
     -2.174  0.1488E+02  0.1253E+03
     -2.120  0.3456E+02  0.1272E+03
     -2.065  0.3136E+02  0.1289E+03
     -2.010  0.1487E+02  0.1297E+03
     -1.956  0.2641E+02  0.1312E+03
     -1.901  0.1806E+02  0.1322E+03
     -1.846  0.1115E+02  0.1328E+03
     -1.792  0.8696E+01  0.1332E+03
     -1.737  0.8067E-01  0.1333E+03
     -1.682  0.3950E+01  0.1335E+03
     -1.627  0.2052E+02  0.1346E+03
     -1.573  0.2868E+02  0.1362E+03
     -1.518  0.3262E+02  0.1379E+03
     -1.463  0.3791E+02  0.1400E+03
     -1.409  0.4065E+02  0.1422E+03
     -1.354  0.5082E+02  0.1450E+03
     -1.299  0.5260E+02  0.1479E+03
     -1.245  0.6777E+02  0.1516E+03
     -1.190  0.5962E+02  0.1549E+03
     -1.135  0.5600E+02  0.1579E+03
     -1.080  0.5632E+02  0.1610E+03
     -1.026  0.5280E+02  0.1639E+03
     -0.971  0.6070E+02  0.1672E+03
     -0.916  0.6560E+02  0.1708E+03
     -0.862  0.8045E+02  0.1752E+03
     -0.807  0.6378E+02  0.1787E+03
     -0.752  0.4496E+02  0.1812E+03
     -0.698  0.5385E+02  0.1841E+03
     -0.643  0.4264E+02  0.1864E+03
     -0.588  0.3363E+02  0.1883E+03
     -0.533  0.2052E+02  0.1894E+03
     -0.479  0.2101E+02  0.1905E+03
     -0.424  0.2249E+02  0.1918E+03
     -0.369  0.4751E+02  0.1944E+03
     -0.315  0.2955E+02  0.1960E+03
     -0.260  0.6027E+02  0.1993E+03
     -0.205  0.5244E+02  0.2022E+03
     -0.150  0.4105E+02  0.2044E+03
     -0.096  0.3951E+02  0.2066E+03
     -0.041  0.3947E+02  0.2087E+03
      0.014  0.4662E+02  0.2113E+03
      0.068  0.2396E+02  0.2126E+03
      0.123  0.1751E+02  0.2135E+03
      0.178  0.1300E+02  0.2142E+03
      0.232  0.4566E+01  0.2145E+03
      0.287  0.1986E+02  0.2156E+03
      0.342  0.2946E+02  0.2172E+03
      0.397  0.3570E+02  0.2192E+03
      0.451  0.1960E+02  0.2202E+03
      0.506  0.2236E+02  0.2214E+03
      0.561  0.6777E+01  0.2218E+03
      0.615  0.3731E+02  0.2239E+03
      0.670  0.1923E+02  0.2249E+03
      0.725  0.2383E+02  0.2262E+03
      0.779  0.1224E+02  0.2269E+03
      0.834  0.8835E+01  0.2274E+03
      0.889  0.7532E+01  0.2278E+03
      0.944  0.2478E+02  0.2291E+03
      0.998  0.2711E+02  0.2306E+03
      1.053  0.2507E+02  0.2320E+03
      1.108  0.1733E+02  0.2329E+03
      1.162  0.3308E+02  0.2347E+03
      1.217  0.2267E+02  0.2360E+03
      1.272  0.2712E+02  0.2375E+03
      1.326  0.2484E+02  0.2388E+03
      1.381  0.4178E+02  0.2411E+03
      1.436  0.2866E+02  0.2427E+03
      1.491  0.9039E+02  0.2476E+03
      1.545  0.8022E+02  0.2520E+03
      1.600  0.8925E+02  0.2569E+03
      1.655  0.8051E+02  0.2613E+03
      1.709  0.6778E+02  0.2650E+03
      1.764  0.5544E+02  0.2680E+03
      1.819  0.4933E+02  0.2707E+03
      1.873  0.3016E+02  0.2724E+03
      1.928  0.2360E+02  0.2737E+03
      1.983  0.1969E+02  0.2748E+03
      2.038  0.3728E+02  0.2768E+03
      2.092  0.7091E+02  0.2807E+03
      2.147  0.1044E+03  0.2864E+03
      2.202  0.1221E+03  0.2931E+03
      2.256  0.1122E+03  0.2992E+03
      2.311  0.1091E+03  0.3052E+03
      2.366  0.1183E+03  0.3116E+03
      2.420  0.1000E+03  0.3171E+03
      2.475  0.6232E+02  0.3205E+03
      2.530  0.3255E+02  0.3223E+03
      2.585  0.4014E+02  0.3245E+03
      2.639  0.4411E+02  0.3269E+03
      2.694  0.6259E+02  0.3303E+03
      2.749  0.1022E+03  0.3359E+03
      2.803  0.1018E+03  0.3415E+03
      2.858  0.8115E+02  0.3459E+03
      2.913  0.9416E+02  0.3511E+03
      2.967  0.8968E+02  0.3560E+03
      3.022  0.1085E+03  0.3619E+03
      3.077  0.9378E+02  0.3670E+03
      3.132  0.8125E+02  0.3715E+03
      3.186  0.6839E+02  0.3752E+03
      3.241  0.8241E+02  0.3797E+03
      3.296  0.1040E+03  0.3854E+03
      3.350  0.9291E+02  0.3905E+03
      3.405  0.8556E+02  0.3952E+03
      3.460  0.8445E+02  0.3998E+03
      3.514  0.8970E+02  0.4047E+03
      3.569  0.8408E+02  0.4093E+03
      3.624  0.6537E+02  0.4129E+03
      3.679  0.8203E+02  0.4174E+03
      3.733  0.8321E+02  0.4219E+03
      3.788  0.9115E+02  0.4269E+03
      3.843  0.8529E+02  0.4316E+03
      3.897  0.6354E+02  0.4351E+03
      3.952  0.8725E+02  0.4398E+03
      4.007  0.5929E+02  0.4431E+03
      4.061  0.6555E+02  0.4467E+03
      4.116  0.6910E+02  0.4504E+03
      4.171  0.7576E+02  0.4546E+03
      4.226  0.7436E+02  0.4587E+03
      4.280  0.6707E+02  0.4623E+03
      4.335  0.6454E+02  0.4659E+03
      4.390  0.7771E+02  0.4701E+03
      4.444  0.8058E+02  0.4745E+03
      4.499  0.6847E+02  0.4783E+03
      4.554  0.7169E+02  0.4822E+03
      4.608  0.5718E+02  0.4853E+03
      4.663  0.3116E+02  0.4870E+03
      4.718  0.4238E+02  0.4893E+03
      4.773  0.3175E+02  0.4911E+03
      4.827  0.2564E+02  0.4925E+03
      4.882  0.3460E+02  0.4944E+03
      4.937  0.4502E+02  0.4968E+03
      4.991  0.3857E+02  0.4989E+03
      5.046  0.3497E+02  0.5008E+03
      5.101  0.2771E+02  0.5024E+03
      5.155  0.1164E+02  0.5030E+03
      5.210  0.5648E+01  0.5033E+03
      5.265  0.1358E+02  0.5041E+03
      5.320  0.1710E+02  0.5050E+03
      5.374  0.1561E+02  0.5058E+03
      5.429  0.2306E+02  0.5071E+03
      5.484  0.1754E+02  0.5081E+03
      5.538  0.2184E+02  0.5093E+03
      5.593  0.1360E+02  0.5100E+03
      5.648  0.8550E+01  0.5105E+03
      5.702  0.1361E+02  0.5112E+03
      5.757  0.5273E+01  0.5115E+03
      5.812  0.4560E+01  0.5117E+03
      5.867  0.0000E+00  0.5118E+03
      5.921  0.3971E-06  0.5118E+03
      5.976  0.4543E+01  0.5120E+03
      6.031  0.2755E-01  0.5120E+03
      6.085  0.3935E-10  0.5120E+03
      6.140  0.7916E+01  0.5124E+03
      6.195  0.2068E+02  0.5136E+03
      6.249  0.1253E+02  0.5143E+03
      6.304  0.6126E+01  0.5146E+03
      6.359  0.3086E+02  0.5163E+03
      6.414  0.2264E+02  0.5175E+03
      6.468  0.3047E+02  0.5192E+03
      6.523  0.1479E+02  0.5200E+03
      6.578  0.2001E+02  0.5211E+03
      6.632  0.1168E+02  0.5217E+03
      6.687  0.2490E+02  0.5231E+03
      6.742  0.2715E+02  0.5246E+03
      6.796  0.3785E+02  0.5266E+03
      6.851  0.2957E+02  0.5283E+03
      6.906  0.4170E+02  0.5305E+03
      6.961  0.3684E+02  0.5326E+03
      7.015  0.3296E+02  0.5344E+03
      7.070  0.5803E+02  0.5375E+03
      7.125  0.2648E+02  0.5390E+03
      7.179  0.2658E+02  0.5404E+03
      7.234  0.2940E+02  0.5420E+03
      7.289  0.7325E+02  0.5460E+03
      7.343  0.8067E+02  0.5505E+03
      7.398  0.7393E+02  0.5545E+03
      7.453  0.7320E+02  0.5585E+03
      7.508  0.7787E+02  0.5628E+03
      7.562  0.9313E+02  0.5679E+03
      7.617  0.8891E+02  0.5727E+03
      7.672  0.9110E+02  0.5777E+03
      7.726  0.7882E+02  0.5820E+03
      7.781  0.8513E+02  0.5867E+03
      7.836  0.9994E+02  0.5921E+03
      7.890  0.1017E+03  0.5977E+03
      7.945  0.8997E+02  0.6026E+03
      8.000  0.1012E+03  0.6082E+03
      8.055  0.7587E+02  0.6123E+03
      8.109  0.7900E+02  0.6166E+03
      8.164  0.9311E+02  0.6217E+03
      8.219  0.5989E+02  0.6250E+03
      8.273  0.1027E+03  0.6306E+03
      8.328  0.7897E+02  0.6349E+03
      8.383  0.7727E+02  0.6392E+03
      8.437  0.5173E+02  0.6420E+03
      8.492  0.2287E+02  0.6432E+03
      8.547  0.4465E+01  0.6435E+03
      8.602  0.4709E+01  0.6438E+03
      8.656  0.4559E+01  0.6440E+03
      8.711  0.0000E+00  0.6440E+03
      8.766  0.0000E+00  0.6440E+03
      8.820  0.0000E+00  0.6440E+03
      8.875  0.0000E+00  0.6440E+03
      8.930  0.0000E+00  0.6440E+03
      8.984  0.0000E+00  0.6440E+03
      9.039  0.0000E+00  0.6440E+03
      9.094  0.0000E+00  0.6440E+03
      9.149  0.0000E+00  0.6440E+03
      9.203  0.0000E+00  0.6440E+03
      9.258  0.0000E+00  0.6440E+03
      9.313  0.0000E+00  0.6440E+03
      9.367  0.0000E+00  0.6440E+03
