 vasp.5.4.4.18Apr17-6-g9f103f2a35 (build Nov 08 2017 09:05:29) complex          
  
 executed on          Intel_17.33 date 2020.07.18  18:10:55
 running on   32 total cores
 distrk:  each k-point on   32 cores,    1 groups
 distr:  one band on NCORES_PER_BAND=  16 cores,    2 groups


--------------------------------------------------------------------------------------------------------


 INCAR:
 POTCAR:   PAW_PBE Si 05Jan2001                   

 ----------------------------------------------------------------------------- 
|                                                                             |
|           W    W    AA    RRRRR   N    N  II  N    N   GGGG   !!!           |
|           W    W   A  A   R    R  NN   N  II  NN   N  G    G  !!!           |
|           W    W  A    A  R    R  N N  N  II  N N  N  G       !!!           |
|           W WW W  AAAAAA  RRRRR   N  N N  II  N  N N  G  GGG   !            |
|           WW  WW  A    A  R   R   N   NN  II  N   NN  G    G                |
|           W    W  A    A  R    R  N    N  II  N    N   GGGG   !!!           |
|                                                                             |
|      For optimal performance we recommend to set                            |
|        NCORE= 4 - approx SQRT( number of cores)                             |
|      NCORE specifies how many cores store one orbital (NPAR=cpu/NCORE).     |
|      This setting can  greatly improve the performance of VASP for DFT.     |
|      The default,   NCORE=1            might be grossly inefficient         |
|      on modern multi-core architectures or massively parallel machines.     |
|      Do your own testing !!!!                                               |
|      Unfortunately you need to use the default for GW and RPA calculations. |
|      (for HF NCORE is supported but not extensively tested yet)             |
|                                                                             |
 ----------------------------------------------------------------------------- 

 POTCAR:   PAW_PBE Si 05Jan2001                   
   VRHFIN =Si: s2p2                                                             
   LEXCH  = PE                                                                  
   EATOM  =   103.0669 eV,    7.5752 Ry                                         
                                                                                
   TITEL  = PAW_PBE Si 05Jan2001                                                
   LULTRA =        F    use ultrasoft PP ?                                      
   IUNSCR =        1    unscreen: 0-lin 1-nonlin 2-no                           
   RPACOR =    1.500    partial core radius                                     
   POMASS =   28.085; ZVAL   =    4.000    mass and valenz                      
   RCORE  =    1.900    outmost cutoff radius                                   
   RWIGS  =    2.480; RWIGS  =    1.312    wigner-seitz radius (au A)           
   ENMAX  =  245.345; ENMIN  =  184.009 eV                                      
   ICORE  =        2    local potential                                         
   LCOR   =        T    correct aug charges                                     
   LPAW   =        T    paw PP                                                  
   EAUG   =  322.069                                                            
   DEXC   =    -.007                                                            
   RMAX   =    2.944    core radius for proj-oper                               
   RAUG   =    1.300    factor for augmentation sphere                          
   RDEP   =    1.993    radius for radial grids                                 
   QCUT   =   -4.246; QGAM   =    8.493    optimization parameters              
                                                                                
   Description                                                                  
     l     E      TYP  RCUT    TYP  RCUT                                        
     0   .000     23  1.900                                                     
     0   .000     23  1.900                                                     
     1   .000     23  1.900                                                     
     1   .000     23  1.900                                                     
     2   .000      7  1.900                                                     
  local pseudopotential read in
  partial core-charges read in
  atomic valenz-charges read in
  non local Contribution for L=           0  read in
    real space projection operators read in
  non local Contribution for L=           0  read in
    real space projection operators read in
  non local Contribution for L=           1  read in
    real space projection operators read in
  non local Contribution for L=           1  read in
    real space projection operators read in
    PAW grid and wavefunctions read in
 
   number of l-projection  operators is LMAX  =           4
   number of lm-projection operators is LMMAX =           8
 

 ----------------------------------------------------------------------------- 
|                                                                             |
|  ADVICE TO THIS USER RUNNING 'VASP/VAMP'   (HEAR YOUR MASTER'S VOICE ...):  |
|                                                                             |
|      You have a (more or less) 'large supercell' and for larger cells       |
|      it might be more efficient to use real space projection operators      |
|      So try LREAL= Auto  in the INCAR   file.                               |
|      Mind: If you want to do a very accurate calculations keep the          |
|      reciprocal projection scheme          (i.e. LREAL=.FALSE.)             |
|                                                                             |
 ----------------------------------------------------------------------------- 

 PAW_PBE Si 05Jan2001                   :
 energy of atom  1       EATOM= -103.0669
 kinetic energy error for atom=    0.0006 (will be added to EATOM!!)
 
 
 POSCAR: kk                                      
  positions in direct lattice
  No initial velocities read in
 exchange correlation table for  LEXCH =        8
   RHO(1)=    0.500       N(1)  =     2000
   RHO(2)=  100.500       N(2)  =     4000
 


--------------------------------------------------------------------------------------------------------


 ion  position               nearest neighbor table
   1  0.988  0.018  0.004-  68 2.25  65 2.25 113 2.39  77 2.82
   2  0.243  0.997  0.011-  66 2.24  65 2.29  78 2.47 114 2.50
   3  0.488  0.990  0.016-  79 2.18  66 2.30  67 2.36 115 2.50
   4  0.748  0.010  0.994- 116 2.28  68 2.28  67 2.39  80 2.48
   5  0.999  0.252  0.998-  72 2.27  69 2.30  65 2.46 117 2.48
   6  0.255  0.247  0.998-  66 2.34 118 2.35  70 2.39  69 2.40
   7  0.505  0.240  0.000-  67 2.24  70 2.26 119 2.45  71 2.56
   8  0.750  0.248  0.998-  72 2.25 120 2.38  68 2.39  71 2.42
   9  0.993  0.508  0.998-  73 2.35  76 2.36  69 2.55 121 2.56
  10  0.242  0.509  0.993- 122 2.21  73 2.30  74 2.39  70 2.70
  11  0.504  0.498  0.003-  75 2.21  71 2.32  74 2.38 123 2.46
  12  0.757  0.494  0.001-  76 2.32 124 2.39  75 2.51  72 2.53
  13  0.987  0.746  0.005-  80 2.21 125 2.32  73 2.33  77 2.53
  14  0.259  0.752  0.005-  78 2.16  77 2.37  74 2.50 126 2.51
  15  0.506  0.746  0.012-  79 2.22  75 2.30  78 2.33 127 2.40
  16  0.756  0.753  0.987- 128 2.24  80 2.43  76 2.46  79 2.57
  17  0.999  0.004  0.247-  65 2.25  84 2.41  93 2.43  81 2.52
  18  0.262  0.994  0.245-  94 2.33  66 2.37  82 2.44  81 2.45
  19  0.498  0.002  0.253-  83 2.22  82 2.24  95 2.39  67 2.48
  20  0.745  0.996  0.248-  96 2.16  83 2.23  68 2.35  84 2.56
  21  0.999  0.254  0.248-  85 2.36  88 2.38  81 2.39  69 2.40
  22  0.253  0.239  0.259-  82 2.26  85 2.33  86 2.34  70 2.43
  23  0.496  0.256  0.253-  71 2.27  86 2.31  87 2.39  83 2.50
  24  0.765  0.250  0.232-  72 2.19  84 2.36  88 2.42  87 2.45
  25  0.997  0.511  0.254-  92 2.12  89 2.23  73 2.43  85 2.68
  26  0.253  0.502  0.250-  89 2.33  74 2.37  90 2.37  86 2.39
  27  0.498  0.486  0.257-  87 2.32  90 2.33  91 2.48  75 2.55
  28  0.762  0.495  0.247-  88 2.22  76 2.27  92 2.47  91 2.56
  29  0.994  0.753  0.248-  77 2.28  96 2.31  93 2.42  89 2.50
  30  0.244  0.763  0.241-  78 2.29  94 2.30  93 2.34  90 2.52
  31  0.497  0.757  0.248-  79 2.26  95 2.29  94 2.30  91 2.47
  32  0.751  0.735  0.256-  92 2.27  95 2.41  80 2.45  96 2.53
  33  0.007  0.999  0.508-  97 2.32 109 2.37 100 2.42  81 2.42
  34  0.257  0.015  0.492-  82 2.27  98 2.28  97 2.54 110 2.66
  35  0.499  0.991  0.508-  99 2.28 111 2.33  98 2.38  83 2.61
  36  0.767  0.996  0.495-  84 2.25 100 2.27 112 2.31  99 2.66
  37  0.991  0.258  0.499- 104 2.24  85 2.28  97 2.35 101 2.44
  38  0.249  0.252  0.498-  98 2.25 102 2.28  86 2.37 101 2.37
  39  0.497  0.256  0.497-  87 2.27 102 2.31 103 2.37  99 2.49
  40  0.758  0.249  0.499- 104 2.31 100 2.42  88 2.42 103 2.45
  41  0.985  0.511  0.496- 108 2.24  89 2.31 105 2.39 101 2.48
  42  0.250  0.506  0.497- 105 2.28  90 2.31 106 2.34 102 2.54
  43  0.504  0.488  0.502- 103 2.19 107 2.36  91 2.37 106 2.42
  44  0.744  0.508  0.487- 107 2.20  92 2.23 108 2.50 104 2.58
  45  0.985  0.750  0.501- 112 2.25  93 2.34 109 2.44 105 2.57
  46  0.251  0.747  0.494- 106 2.33  94 2.39 109 2.46 110 2.46
  47  0.501  0.749  0.505- 110 2.30 107 2.34 111 2.37  95 2.48
  48  0.756  0.753  0.493- 108 2.28 111 2.30  96 2.39 112 2.40
  49  0.996  0.996  0.757- 116 2.23 113 2.32  97 2.38 125 2.45
  50  0.244  0.006  0.750- 114 2.24 113 2.31  98 2.43 126 2.53
  51  0.508  0.992  0.755- 127 2.34 115 2.42  99 2.44 114 2.45
  52  0.743  1.000  0.756- 115 2.26 128 2.37 116 2.44 100 2.44
  53  0.004  0.245  0.744- 101 2.29 117 2.37 120 2.39 113 2.41
  54  0.258  0.245  0.746- 118 2.32 102 2.33 117 2.42 114 2.47
  55  0.511  0.255  0.738- 119 2.24 103 2.28 115 2.44 118 2.56
  56  0.754  0.243  0.755- 116 2.33 104 2.34 120 2.34 119 2.51
  57  0.996  0.500  0.747- 121 2.31 105 2.35 117 2.36 124 2.43
  58  0.249  0.502  0.745- 106 2.29 122 2.41 118 2.42 121 2.50
  59  0.490  0.495  0.763- 119 2.25 122 2.27 123 2.51 107 2.77
  60  0.749  0.493  0.749- 120 2.28 123 2.34 124 2.39 108 2.43
  61  0.996  0.751  0.751- 121 2.19 128 2.40 109 2.42 125 2.42
  62  0.253  0.755  0.745- 126 2.21 110 2.28 125 2.40 122 2.50
  63  0.503  0.743  0.745- 123 2.15 111 2.32 126 2.38 127 2.56
  64  0.745  0.749  0.757- 128 2.24 127 2.27 124 2.34 112 2.37
  65  0.062  0.057  0.069-  17 2.25   1 2.25   2 2.29   5 2.46
  66  0.307  0.062  0.058-   2 2.24   3 2.30   6 2.34  18 2.37
  67  0.559  0.063  0.057-   7 2.24   3 2.36   4 2.39  19 2.48
  68  0.812  0.059  0.062-   1 2.25   4 2.28  20 2.35   8 2.39
  69  0.065  0.307  0.059-   5 2.30   6 2.40  21 2.40   9 2.55
  70  0.326  0.296  0.067-   7 2.26   6 2.39  22 2.43  10 2.70
  71  0.559  0.315  0.073-  23 2.27  11 2.32   8 2.42   7 2.56
  72  0.821  0.294  0.059-  24 2.19   8 2.25   5 2.27  12 2.53
  73  0.060  0.562  0.063-  10 2.30  13 2.33   9 2.35  25 2.43
  74  0.316  0.555  0.062-  26 2.37  11 2.38  10 2.39  14 2.50
  75  0.558  0.566  0.056-  11 2.21  15 2.30  12 2.51  27 2.55
  76  0.807  0.560  0.068-  28 2.27  12 2.32   9 2.36  16 2.46
  77  0.073  0.795  0.069-  29 2.28  14 2.37  13 2.53   1 2.82
  78  0.322  0.802  0.062-  14 2.16  30 2.29  15 2.33   2 2.47
  79  0.554  0.817  0.069-   3 2.18  15 2.22  31 2.26  16 2.57
  80  0.812  0.813  0.063-  13 2.21  16 2.43  32 2.45   4 2.48
  81  0.069  0.065  0.316-  21 2.39  33 2.42  18 2.45  17 2.52
  82  0.320  0.061  0.313-  19 2.24  22 2.26  34 2.27  18 2.44
  83  0.568  0.059  0.301-  19 2.22  20 2.23  23 2.50  35 2.61
  84  0.809  0.065  0.317-  36 2.25  24 2.36  17 2.41  20 2.56
  85  0.069  0.299  0.320-  37 2.28  22 2.33  21 2.36  25 2.68
  86  0.313  0.313  0.311-  23 2.31  22 2.34  38 2.37  26 2.39
  87  0.572  0.303  0.318-  39 2.27  27 2.32  23 2.39  24 2.45
  88  0.811  0.319  0.307-  28 2.22  21 2.38  24 2.42  40 2.42
  89  0.068  0.556  0.315-  25 2.23  41 2.31  26 2.33  29 2.50
  90  0.314  0.564  0.314-  42 2.31  27 2.33  26 2.37  30 2.52
  91  0.559  0.562  0.315-  43 2.37  31 2.47  27 2.48  28 2.56
  92  0.830  0.557  0.313-  25 2.12  44 2.23  32 2.27  28 2.47
  93  0.060  0.812  0.316-  30 2.34  45 2.34  29 2.42  17 2.43
  94  0.315  0.810  0.305-  31 2.30  30 2.30  18 2.33  46 2.39
  95  0.561  0.814  0.309-  31 2.29  19 2.39  32 2.41  47 2.48
  96  0.812  0.826  0.304-  20 2.16  29 2.31  48 2.39  32 2.53
  97  0.056  0.072  0.570-  33 2.32  37 2.35  49 2.38  34 2.54
  98  0.312  0.074  0.558-  38 2.25  34 2.28  35 2.38  50 2.43
  99  0.556  0.059  0.563-  35 2.28  51 2.44  39 2.49  36 2.66
 100  0.816  0.058  0.563-  36 2.27  33 2.42  40 2.42  52 2.44
 101  0.062  0.316  0.563-  53 2.29  38 2.37  37 2.44  41 2.48
 102  0.314  0.305  0.562-  38 2.28  39 2.31  54 2.33  42 2.54
 103  0.565  0.315  0.558-  43 2.19  55 2.28  39 2.37  40 2.45
 104  0.814  0.304  0.570-  37 2.24  40 2.31  56 2.34  44 2.58
 105  0.070  0.547  0.562-  42 2.28  57 2.35  41 2.39  45 2.57
 106  0.312  0.562  0.563-  58 2.29  46 2.33  42 2.34  43 2.42
 107  0.570  0.565  0.544-  44 2.20  47 2.34  43 2.36  59 2.77
 108  0.808  0.573  0.557-  41 2.24  48 2.28  60 2.43  44 2.50
 109  0.057  0.813  0.559-  33 2.37  61 2.42  45 2.44  46 2.46
 110  0.319  0.804  0.565-  62 2.28  47 2.30  46 2.46  34 2.66
 111  0.574  0.807  0.562-  48 2.30  63 2.32  35 2.33  47 2.37
 112  0.807  0.815  0.569-  45 2.25  36 2.31  64 2.37  48 2.40
 113  0.061  0.055  0.817-  50 2.31  49 2.32   1 2.39  53 2.41
 114  0.314  0.050  0.813-  50 2.24  51 2.45  54 2.47   2 2.50
 115  0.564  0.062  0.819-  52 2.26  51 2.42  55 2.44   3 2.50
 116  0.819  0.059  0.815-  49 2.23   4 2.28  56 2.33  52 2.44
 117  0.066  0.314  0.801-  57 2.36  53 2.37  54 2.42   5 2.48
 118  0.309  0.310  0.813-  54 2.32   6 2.35  58 2.42  55 2.56
 119  0.556  0.318  0.807-  55 2.24  59 2.25   7 2.45  56 2.51
 120  0.815  0.313  0.809-  60 2.28  56 2.34   8 2.38  53 2.39
 121  0.051  0.578  0.796-  61 2.19  57 2.31  58 2.50   9 2.56
 122  0.310  0.558  0.818-  10 2.21  59 2.27  58 2.41  62 2.50
 123  0.565  0.573  0.808-  63 2.15  60 2.34  11 2.46  59 2.51
 124  0.804  0.564  0.813-  64 2.34  12 2.39  60 2.39  57 2.43
 125  0.064  0.802  0.822-  13 2.32  62 2.40  61 2.42  49 2.45
 126  0.315  0.806  0.807-  62 2.21  63 2.38  14 2.51  50 2.53
 127  0.565  0.807  0.822-  64 2.27  51 2.34  15 2.40  63 2.56
 128  0.805  0.813  0.810-  64 2.24  16 2.24  52 2.37  61 2.40
 
  LATTYP: Found a face centered cubic cell.
 ALAT       =    21.8746673814
  
  Lattice vectors:
  
 A1 = (   0.0000000000,  10.9373336907,  10.9373336907)
 A2 = (  10.9373336907,   0.0000000000,  10.9373336907)
 A3 = (  10.9373336907,  10.9373336907,   0.0000000000)


Analysis of symmetry for initial positions (statically):
=====================================================================
 Subroutine PRICEL returns:
 Original cell was already a primitive cell.
 

 Routine SETGRP: Setting up the symmetry group for a 
 face centered cubic supercell.


 Subroutine GETGRP returns: Found  1 space group operations
 (whereof  1 operations were pure point group operations)
 out of a pool of 48 trial point group operations.


The static configuration has the point symmetry C_1 .


Analysis of symmetry for dynamics (positions and initial velocities):
=====================================================================
 Subroutine PRICEL returns:
 Original cell was already a primitive cell.
 

 Routine SETGRP: Setting up the symmetry group for a 
 face centered cubic supercell.


 Subroutine GETGRP returns: Found  1 space group operations
 (whereof  1 operations were pure point group operations)
 out of a pool of 48 trial point group operations.


The dynamic configuration has the point symmetry C_1 .


 Subroutine INISYM returns: Found  1 space group operations
 (whereof  1 operations are pure point group operations),
 and found     1 'primitive' translations

 
 
 KPOINTS: KPOINTS File, automatically generated by

Automatic generation of k-mesh.
Space group operators:
 irot       det(A)        alpha          n_x          n_y          n_z        tau_x        tau_y        tau_z
    1     1.000000     0.000001     1.000000     0.000000     0.000000     0.000000     0.000000     0.000000
 
 Subroutine IBZKPT returns following result:
 ===========================================
 
 Found      8 irreducible k-points:
 
 Following reciprocal coordinates:
            Coordinates               Weight
  0.000000  0.000000  0.000000      1.000000
  0.500000  0.000000  0.000000      1.000000
  0.000000  0.500000  0.000000      1.000000
  0.500000  0.500000  0.000000      1.000000
  0.000000  0.000000  0.500000      1.000000
  0.500000  0.000000  0.500000      1.000000
  0.000000  0.500000  0.500000      1.000000
  0.500000  0.500000  0.500000      1.000000
 
 Following cartesian coordinates:
            Coordinates               Weight
  0.000000  0.000000  0.000000      1.000000
 -0.022857  0.022857  0.022857      1.000000
  0.022857 -0.022857  0.022857      1.000000
  0.000000  0.000000  0.045715      1.000000
  0.022857  0.022857 -0.022857      1.000000
  0.000000  0.045715  0.000000      1.000000
  0.045715  0.000000  0.000000      1.000000
  0.022857  0.022857  0.022857      1.000000
 


--------------------------------------------------------------------------------------------------------




 Dimension of arrays:
   k-points           NKPTS =      8   k-points in BZ     NKDIM =      8   number of bands    NBANDS=    322
   number of dos      NEDOS =    301   number of ions     NIONS =    128
   non local maximal  LDIM  =      4   non local SUM 2l+1 LMDIM =      8
   total plane-waves  NPLWV = ******
   max r-space proj   IRMAX =      1   max aug-charges    IRDMAX= 176811
   dimension x,y,z NGX =   120 NGY =  120 NGZ =  120
   dimension x,y,z NGXF=   240 NGYF=  240 NGZF=  240
   support grid    NGXF=   480 NGYF=  480 NGZF=  480
   ions per type =             128
   NGX,Y,Z   is equivalent  to a cutoff of  12.90, 12.90, 12.90 a.u.
   NGXF,Y,Z  is equivalent  to a cutoff of  25.80, 25.80, 25.80 a.u.

 SYSTEM =  potpaw_PBE@./ARUN.APL1ZEROSTATE         
 POSCAR =  kk                                      

 Startparameter for this run:
   NWRITE =      2    write-flag & timer
   PREC   = accura    normal or accurate (medium, high low for compatibility)
   ISTART =      0    job   : 0-new  1-cont  2-samecut
   ICHARG =      2    charge: 1-file 2-atom 10-const
   ISPIN  =      1    spin polarized calculation?
   LNONCOLLINEAR =      F non collinear calculations
   LSORBIT =      F    spin-orbit coupling
   INIWAV =      1    electr: 0-lowe 1-rand  2-diag
   LASPH  =      F    aspherical Exc in radial PAW
   METAGGA=      F    non-selfconsistent MetaGGA calc.

 Electronic Relaxation 1
   ENCUT  =  500.0 eV  36.75 Ry    6.06 a.u.  28.20 28.20 28.20*2*pi/ulx,y,z
   ENINI  =  500.0     initial cutoff
   ENAUG  =  322.1 eV  augmentation charge cutoff
   NELM   =    120;   NELMIN=  4; NELMDL= -5     # of ELM steps 
   EDIFF  = 0.1E-07   stopping-criterion for ELM
   LREAL  =      F    real-space projection
   NLSPLINE    = F    spline interpolate recip. space projectors
   LCOMPAT=      F    compatible to vasp.4.4
   GGA_COMPAT  = T    GGA compatible to vasp.4.4-vasp.4.6
   LMAXPAW     = -100 max onsite density
   LMAXMIX     =    2 max onsite mixed and CHGCAR
   VOSKOWN=      0    Vosko Wilk Nusair interpolation
   ROPT   =    0.00000
 Ionic relaxation
   EDIFFG = 0.1E-06   stopping-criterion for IOM
   NSW    =      0    number of steps for IOM
   NBLOCK =      1;   KBLOCK =      1    inner block; outer block 
   IBRION =     -1    ionic relax: 0-MD 1-quasi-New 2-CG
   NFREE  =      0    steps in history (QN), initial steepest desc. (CG)
   ISIF   =      2    stress and relaxation
   IWAVPR =     10    prediction:  0-non 1-charg 2-wave 3-comb
   ISYM   =      2    0-nonsym 1-usesym 2-fastsym
   LCORR  =      T    Harris-Foulkes like correction to forces

   POTIM  = 0.5000    time-step for ionic-motion
   TEIN   =    0.0    initial temperature
   TEBEG  =    0.0;   TEEND  =   0.0 temperature during run
   SMASS  =  -3.00    Nose mass-parameter (am)
   estimated Nose-frequenzy (Omega)   =  0.10E-29 period in steps =****** mass=  -0.547E-26a.u.
   SCALEE = 1.0000    scale energy and forces
   NPACO  =    256;   APACO  = 16.0  distance and # of slots for P.C.
   PSTRESS=    0.0 pullay stress

  Mass of Ions in am
   POMASS =  28.09
  Ionic Valenz
   ZVAL   =   4.00
  Atomic Wigner-Seitz radii
   RWIGS  =  -1.00
  virtual crystal weights 
   VCA    =   1.00
   NELECT =     512.0000    total number of electrons
   NUPDOWN=      -1.0000    fix difference up-down

 DOS related values:
   EMIN   =  10.00;   EMAX   =-10.00  energy-range for DOS
   EFERMI =   0.00
   ISMEAR =     0;   SIGMA  =   0.01  broadening in eV -4-tet -1-fermi 0-gaus

 Electronic relaxation 2 (details)
   IALGO  =     38    algorithm
   LDIAG  =      T    sub-space diagonalisation (order eigenvalues)
   LSUBROT=      F    optimize rotation matrix (better conditioning)
   TURBO    =      0    0=normal 1=particle mesh
   IRESTART =      0    0=no restart 2=restart with 2 vectors
   NREBOOT  =      0    no. of reboots
   NMIN     =      0    reboot dimension
   EREF     =   0.00    reference energy to select bands
   IMIX   =      4    mixing-type and parameters
     AMIX     =   0.40;   BMIX     =  1.00
     AMIX_MAG =   1.60;   BMIX_MAG =  1.00
     AMIN     =   0.10
     WC   =   100.;   INIMIX=   1;  MIXPRE=   1;  MAXMIX= -45

 Intra band minimization:
   WEIMIN = 0.0000     energy-eigenvalue tresh-hold
   EBREAK =  0.78E-11  absolut break condition
   DEPER  =   0.30     relativ break condition  

   TIME   =   0.40     timestep for ELM

  volume/ion in A,a.u.               =      20.44       137.96
  Fermi-wavevector in a.u.,A,eV,Ry     =   0.950408  1.796010 12.289804  0.903275
  Thomas-Fermi vector in A             =   2.078782
 
 Write flags
   LWAVE        =      F    write WAVECAR
   LDOWNSAMPLE  =      F    k-point downsampling of WAVECAR
   LCHARG       =      F    write CHGCAR
   LVTOT        =      F    write LOCPOT, total local potential
   LVHAR        =      F    write LOCPOT, Hartree potential only
   LELF         =      F    write electronic localiz. function (ELF)
   LORBIT       =      0    0 simple, 1 ext, 2 COOP (PROOUT), +10 PAW based schemes


 Dipole corrections
   LMONO  =      F    monopole corrections only (constant potential shift)
   LDIPOL =      F    correct potential (dipole corrections)
   IDIPOL =      0    1-x, 2-y, 3-z, 4-all directions 
   EPSILON=  1.0000000 bulk dielectric constant

 Exchange correlation treatment:
   GGA     =    --    GGA type
   LEXCH   =     8    internal setting for exchange type
   VOSKOWN=      0    Vosko Wilk Nusair interpolation
   LHFCALC =     F    Hartree Fock is set to
   LHFONE  =     F    Hartree Fock one center treatment
   AEXX    =    0.0000 exact exchange contribution

 Linear response parameters
   LEPSILON=     F    determine dielectric tensor
   LRPA    =     F    only Hartree local field effects (RPA)
   LNABLA  =     F    use nabla operator in PAW spheres
   LVEL    =     F    velocity operator in full k-point grid
   LINTERFAST=   F  fast interpolation
   KINTER  =     0    interpolate to denser k-point grid
   CSHIFT  =0.1000    complex shift for real part using Kramers Kronig
   OMEGAMAX=  -1.0    maximum frequency
   DEG_THRESHOLD= 0.2000000E-02 threshold for treating states as degnerate
   RTIME   =   -0.100 relaxation time in fs
  (WPLASMAI=    0.000 imaginary part of plasma frequency in eV, 0.658/RTIME)
   DFIELD  = 0.0000000 0.0000000 0.0000000 field for delta impulse in time
 
 Orbital magnetization related:
   ORBITALMAG=     F  switch on orbital magnetization
   LCHIMAG   =     F  perturbation theory with respect to B field
   DQ        =  0.001000  dq finite difference perturbation B field
   LLRAUG    =     F  two centre corrections for induced B field



--------------------------------------------------------------------------------------------------------


 Static calculation
 charge density and potential will be updated during run
 non-spin polarized calculation
 Variant of blocked Davidson
 Davidson routine will perform the subspace rotation
 perform sub-space diagonalisation
    after iterative eigenvector-optimisation
 modified Broyden-mixing scheme, WC =      100.0
 initial mixing is a Kerker type mixing with AMIX =  0.4000 and BMIX =      1.0000
 Hartree-type preconditioning will be used
 using additional bands           66
 reciprocal scheme for non local part
 use partial core corrections
 calculate Harris-corrections to forces 
   (improved forces if not selfconsistent)
 use gradient corrections 
 use of overlap-Matrix (Vanderbilt PP)
 Gauss-broadening in eV      SIGMA  =   0.01


--------------------------------------------------------------------------------------------------------


  energy-cutoff  :      500.00
  volume of cell :     2616.76
      direct lattice vectors                 reciprocal lattice vectors
     0.000000000 10.937333691 10.937333691    -0.045714981  0.045714981  0.045714981
    10.937333691  0.000000000 10.937333691     0.045714981 -0.045714981  0.045714981
    10.937333691 10.937333691  0.000000000     0.045714981  0.045714981 -0.045714981

  length of vectors
    15.467725642 15.467725642 15.467725642     0.079180669  0.079180669  0.079180669


 
 k-points in units of 2pi/SCALE and weight: KPOINTS File, automatically generated by
   0.00000000  0.00000000  0.00000000       0.125
  -0.02285749  0.02285749  0.02285749       0.125
   0.02285749 -0.02285749  0.02285749       0.125
   0.00000000  0.00000000  0.04571498       0.125
   0.02285749  0.02285749 -0.02285749       0.125
   0.00000000  0.04571498  0.00000000       0.125
   0.04571498  0.00000000  0.00000000       0.125
   0.02285749  0.02285749  0.02285749       0.125
 
 k-points in reciprocal lattice and weights: KPOINTS File, automatically generated by
   0.00000000  0.00000000  0.00000000       0.125
   0.50000000  0.00000000  0.00000000       0.125
   0.00000000  0.50000000  0.00000000       0.125
   0.50000000  0.50000000  0.00000000       0.125
   0.00000000  0.00000000  0.50000000       0.125
   0.50000000  0.00000000  0.50000000       0.125
   0.00000000  0.50000000  0.50000000       0.125
   0.50000000  0.50000000  0.50000000       0.125
 
 position of ions in fractional coordinates (direct lattice) 
   0.98842584  0.01812328  0.00434110
   0.24345565  0.99683041  0.01058792
   0.48828639  0.98950543  0.01576108
   0.74800821  0.00997850  0.99429795
   0.99894660  0.25188550  0.99762029
   0.25481587  0.24685876  0.99849453
   0.50505421  0.23994157  0.00024288
   0.75006824  0.24816093  0.99788711
   0.99286892  0.50831569  0.99819132
   0.24189222  0.50910193  0.99270282
   0.50369703  0.49849194  0.00295953
   0.75654270  0.49427463  0.00084094
   0.98678528  0.74640278  0.00466737
   0.25884609  0.75199323  0.00466256
   0.50573382  0.74646444  0.01184722
   0.75603752  0.75317230  0.98691785
   0.99935932  0.00377793  0.24656722
   0.26212123  0.99393535  0.24458117
   0.49756306  0.00228052  0.25325710
   0.74455169  0.99578930  0.24784457
   0.99895485  0.25371887  0.24845988
   0.25316564  0.23914580  0.25876777
   0.49552799  0.25620778  0.25252747
   0.76512346  0.25007031  0.23192095
   0.99728525  0.51118960  0.25416080
   0.25275840  0.50177071  0.24951719
   0.49807124  0.48556465  0.25698024
   0.76234732  0.49466326  0.24696358
   0.99442090  0.75335126  0.24803632
   0.24397688  0.76327993  0.24135785
   0.49694813  0.75731832  0.24770257
   0.75103214  0.73549804  0.25617867
   0.00727337  0.99920103  0.50796161
   0.25677945  0.01455958  0.49233732
   0.49882193  0.99098631  0.50819057
   0.76668397  0.99635240  0.49466092
   0.99082311  0.25832455  0.49851892
   0.24945898  0.25247373  0.49807669
   0.49685232  0.25609232  0.49682762
   0.75812347  0.24929145  0.49876828
   0.98483967  0.51111639  0.49605475
   0.24979156  0.50582323  0.49694594
   0.50415084  0.48771927  0.50223308
   0.74426928  0.50797086  0.48718410
   0.98488494  0.75026051  0.50063632
   0.25126477  0.74678994  0.49435862
   0.50059432  0.74898792  0.50531967
   0.75585414  0.75319815  0.49255872
   0.99629553  0.99583847  0.75701596
   0.24380794  0.00624157  0.75022343
   0.50760768  0.99204099  0.75486909
   0.74345164  0.99980252  0.75638748
   0.00371016  0.24547348  0.74422092
   0.25781851  0.24496291  0.74589299
   0.51053710  0.25501239  0.73831645
   0.75362097  0.24337302  0.75504743
   0.99649189  0.50046270  0.74670907
   0.24901935  0.50196755  0.74470654
   0.49005314  0.49495289  0.76345632
   0.74935234  0.49333561  0.74863792
   0.99551279  0.75080303  0.75054832
   0.25348232  0.75540476  0.74489736
   0.50320641  0.74294390  0.74524677
   0.74508644  0.74905917  0.75680380
   0.06219724  0.05724571  0.06856897
   0.30733059  0.06218540  0.05800811
   0.55946765  0.06312720  0.05673762
   0.81176119  0.05911949  0.06176599
   0.06515058  0.30666120  0.05878414
   0.32633445  0.29600481  0.06667235
   0.55945221  0.31528522  0.07303289
   0.82052334  0.29413399  0.05920380
   0.06002508  0.56224131  0.06277475
   0.31577475  0.55464371  0.06198458
   0.55788918  0.56622883  0.05553258
   0.80672338  0.55969458  0.06823577
   0.07276552  0.79523856  0.06874455
   0.32248746  0.80203880  0.06207449
   0.55352521  0.81709534  0.06903950
   0.81200644  0.81331502  0.06291123
   0.06856983  0.06481196  0.31605786
   0.31990926  0.06073809  0.31326899
   0.56798335  0.05902540  0.30140741
   0.80887701  0.06485742  0.31749392
   0.06900909  0.29868599  0.31958959
   0.31275356  0.31265139  0.31052987
   0.57211950  0.30276956  0.31763502
   0.81068782  0.31940700  0.30745175
   0.06824180  0.55565511  0.31489557
   0.31437078  0.56390395  0.31379913
   0.55942348  0.56185889  0.31529853
   0.82969107  0.55737292  0.31280934
   0.05968841  0.81167813  0.31632553
   0.31534151  0.80974072  0.30502985
   0.56066493  0.81354518  0.30883656
   0.81203089  0.82562526  0.30396302
   0.05575286  0.07243401  0.56950255
   0.31201569  0.07410537  0.55812580
   0.55644011  0.05926320  0.56265325
   0.81643185  0.05793272  0.56302365
   0.06168899  0.31574131  0.56305239
   0.31431799  0.30474537  0.56160241
   0.56452901  0.31466813  0.55801268
   0.81423331  0.30439220  0.56993484
   0.07001882  0.54743013  0.56166231
   0.31249857  0.56216181  0.56303376
   0.57014859  0.56548089  0.54418487
   0.80758998  0.57324383  0.55686358
   0.05660627  0.81324772  0.55882104
   0.31858837  0.80394081  0.56480194
   0.57364384  0.80691249  0.56183610
   0.80725371  0.81482759  0.56914300
   0.06138026  0.05457596  0.81695637
   0.31441337  0.04992545  0.81283904
   0.56427349  0.06243392  0.81888772
   0.81947075  0.05884713  0.81451609
   0.06622298  0.31364133  0.80144614
   0.30851432  0.31026015  0.81301774
   0.55560255  0.31779579  0.80724707
   0.81480329  0.31302607  0.80925907
   0.05142831  0.57849023  0.79595846
   0.31012633  0.55751048  0.81825791
   0.56492104  0.57281148  0.80843451
   0.80402426  0.56394201  0.81268527
   0.06440681  0.80202846  0.82189273
   0.31510994  0.80579941  0.80748012
   0.56532048  0.80656723  0.82198257
   0.80548117  0.81280444  0.80983437
 
 position of ions in cartesian coordinates  (Angst):
   0.24570042 10.85822331 11.00896355
  11.01847042  2.77855930 13.56542244
  10.99493523  5.51293535 16.16310229
  10.98410665 19.05618388  8.29035363
  13.66626169 21.83711827 13.68076803
  13.62084451 13.70787403  5.48698283
   2.62697746  5.52660291  8.14826741
  13.62844326 19.11797096 10.91796556
  16.47716981 21.77689025 16.41895699
  16.42573968 13.50317791  8.21387362
   5.48454198  5.54147179 10.96127512
   5.41524415  8.28375758 13.68060652
   8.21470493 10.84384853 18.95645625
   8.27579696  2.88208213 11.05588704
   8.29390759  5.66095645 13.69571015
  19.03194667 19.06328459 16.50673146
   2.73810840 13.62711425 10.97164682
  13.54606846  5.54197327 13.73790988
   2.79490030  8.21197066  5.46695605
  13.60203861 10.85416908 19.03469019
   5.49249648 13.64339112 13.70091046
   5.44584681  5.59918658  5.38457449
   5.56420719  8.18173217  8.22198494
   5.27169920 10.90500740 11.10351307
   8.37089270 13.68748302 16.49869282
   8.21708641  5.49355565  8.25253663
   8.12146125  8.25824998 10.75835397
   8.11142027 11.03917017 13.74834423
  10.95251014 13.58916917 19.11596731
  10.98805863  5.30826784 11.01670387
  10.99224886  8.14449325 13.71833070
  10.84629908 11.01620068 16.25867662
  16.48434072  5.63529693 11.00814638
   5.54410052  8.19334008  2.96772549
  16.39699784 11.01403180 16.29452992
  16.30771023 13.79574995 19.28291714
   8.27784955 16.28943070 13.66234478
   8.20902039  8.17604698  5.48980552
   8.23493654 10.86820900  8.23520671
   8.18177891 13.74704449 11.01843322
  11.01576681 16.19703648 16.36177058
  10.96762094  8.16731719  8.26441108
  10.82743919 11.00715676 10.84841440
  10.88434180 13.46881654 13.69616831
  13.68147596 16.24764170 18.97786474
  13.57485592  8.15513179 10.91605731
  13.71878071 11.00201703 13.66709796
  13.62525860 13.65430807 16.50500842
  19.17155375 19.17655277 21.78863424
   8.27371011 10.87205286  2.73487493
  19.10653847 13.80812972 16.40215797
  19.20803600 16.40424098 19.06655246
  10.82461796  8.18037181  2.72540464
  10.83732160 10.97792760  5.49908825
  10.86436895 13.65912801  8.37307019
  10.92005767 16.50080970 10.90445600
  13.64073378 19.06597055 16.37269188
  13.63529056 10.86871167  8.21379427
  13.76364144 13.71005122 10.77333964
  13.58387892 16.38401938 13.59169280
  16.42078063 19.09725292 19.10003877
  16.40930490 10.91961172 11.03453467
  16.27683795 13.65474910 13.62956180
  16.47012575 16.42667471 16.34196905
   1.37607713  1.43023368  1.30638737
   1.31459644  3.99583117  4.04151960
   1.31100152  6.73964266  6.80952771
   1.32216480  9.55405826  9.52511264
   3.99699762  1.35551530  4.06662951
   3.96672110  4.29844649  6.80673218
   4.24716465  6.91770056  9.56729514
   3.86457339  9.62186934 12.19137918
   6.83600923  1.34310265  6.80593514
   6.74426943  4.13167989  9.52005716
   6.80041200  6.70919841 12.29485375
   6.86788371  9.56972011 14.94496912
   9.44967153  1.54774283  9.49365027
   9.45109539  4.20608239 12.29931897
   9.69195237  6.80919801 14.99093432
   9.58357893  9.56926655 17.77668319
   4.16570029  4.20680131  1.45884115
   4.09064025  6.92528180  4.16326709
   3.94217393  9.50881686  6.85780403
   4.18190421 12.31949474  9.55632495
   6.76228635  4.25023343  4.02160385
   6.81594137  6.81705878  6.84026260
   6.78557196  9.73154214  9.56895363
   6.85616329 12.22946559 12.36022418
   9.52150334  4.19050132  6.82376879
   9.59973148  6.87050390  9.60598384
   9.59376338  9.56712647 12.26383939
   9.51747381 12.49590826 15.17078170
  12.33735242  4.11258998  9.53042657
  12.19261777  6.78520860 12.30539979
  12.27586368  9.51002792 15.03019453
  12.35468399 12.20599784 17.91159188
   7.02107443  6.83862710  1.40202262
   6.91492330  9.51702789  4.22313485
   6.80210779 12.23989751  6.73415250
   6.79160696 15.08756503  9.56321702
   9.61165989  6.83300492  4.12808115
   9.47553477  9.58023371  6.77090247
   9.54480125 12.27761309  9.61607253
   9.56280664 15.13910892 12.23478048
  12.13051414  6.90890727  6.75324521
  12.30663950  9.57598928  9.56645244
  12.13678479 12.18783689 12.42075855
  12.36036188 14.92348395 15.10264022
  15.00677379  6.73113383  9.51388335
  14.97039621  9.66193461 12.27747628
  14.97046007 12.41912296 15.09960527
  15.13694813 15.05411009 17.74124437
   9.53223983  9.60666078  1.26825184
   9.43634317 12.32913577  3.98489527
   9.63930895 15.12809571  6.85450808
   9.55226502 17.87145939  9.60645580
  12.19608383  9.48998671  4.15470274
  12.28566507 12.26657036  6.76774289
  12.30496920 14.90594112  9.55264909
  12.27480707 17.76291193 12.33544604
  15.03280402  9.26815190  6.88962933
  15.04723796 12.34151501  9.48963336
  15.10714821 15.02084786 12.44376016
  15.05663194 17.68249164 14.96190356
  17.76136787  9.69375376  9.47649163
  17.64497656 12.27814207 12.25975962
  17.81199256 15.17339640 15.00479372
  17.74734215 17.66724502 17.69972974
 


--------------------------------------------------------------------------------------------------------


 k-point  1 :   0.0000 0.0000 0.0000  plane waves:   66299
 k-point  2 :   0.5000 0.0000 0.0000  plane waves:   66394
 k-point  3 :   0.0000 0.5000 0.0000  plane waves:   66394
 k-point  4 :   0.5000 0.5000 0.0000  plane waves:   66552
 k-point  5 :   0.0000 0.0000 0.5000  plane waves:   66394
 k-point  6 :   0.5000 0.0000 0.5000  plane waves:   66552
 k-point  7 :   0.0000 0.5000 0.5000  plane waves:   66552
 k-point  8 :   0.5000 0.5000 0.5000  plane waves:   66394

 maximum and minimum number of plane-waves per node :      4207     4110

 maximum number of plane-waves:     66552
 maximum index in each direction: 
   IXMAX=   28   IYMAX=   28   IZMAX=   28
   IXMIN=  -28   IYMIN=  -28   IZMIN=  -28


 parallel 3D FFT for wavefunctions:
    minimum data exchange during FFTs selected (reduces bandwidth)
 parallel 3D FFT for charge:
    minimum data exchange during FFTs selected (reduces bandwidth)


 total amount of memory used by VASP MPI-rank0   221701. kBytes
=======================================================================

   base      :      30000. kBytes
   nonl-proj :      10690. kBytes
   fftplans  :      66746. kBytes
   grid      :      26864. kBytes
   one-center:         24. kBytes
   wavefun   :      87377. kBytes
 
     INWAV:  cpu time    0.0000: real time    0.0000
 Broyden mixing: mesh for mixing (old mesh)
   NGX = 57   NGY = 57   NGZ = 57
  (NGX  =240   NGY  =240   NGZ  =240)
  gives a total of 185193 points

 initial charge density was supplied:
 charge density of overlapping atoms calculated
 number of electron     512.0000000 magnetization 
 keeping initial charge density in first step


--------------------------------------------------------------------------------------------------------


 Maximum index for augmentation-charges         5604 (set IRDMAX)


--------------------------------------------------------------------------------------------------------


 First call to EWALD:  gamma=   0.129
 Maximum number of real-space cells 3x 3x 3
 Maximum number of reciprocal cells 3x 3x 3

    FEWALD:  cpu time    0.0064: real time    0.0064


--------------------------------------- Iteration      1(   1)  ---------------------------------------


    POTLOK:  cpu time    0.4893: real time    0.4983
    SETDIJ:  cpu time    0.5053: real time    0.5053
     EDDAV:  cpu time   69.5249: real time   69.5516
       DOS:  cpu time    0.0030: real time    0.0030
    --------------------------------------------
      LOOP:  cpu time   70.5226: real time   70.5583

 eigenvalue-minimisations  :  5152
 total energy-change (2. order) : 0.1384069E+04  (-0.1908121E+05)
 number of electron     512.0000000 magnetization 
 augmentation part      512.0000000 magnetization 

 Free energy of the ion-electron system (eV)
  ---------------------------------------------------
  alpha Z        PSCENC =       210.77028614
  Ewald energy   TEWEN  =    -14471.02483372
  -Hartree energ DENC   =      -755.71330522
  -exchange      EXHF   =         0.00000000
  -V(xc)+E(xc)   XCENC  =     -1195.28740150
  PAW double counting   =      4221.13331941    -1969.18571412
  entropy T*S    EENTRO =        -0.00174724
  eigenvalues    EBANDS =      2150.89758628
  atomic energy  EATOM  =     13192.48085998
  Solvation  Ediel_sol  =         0.00000000
  ---------------------------------------------------
  free energy    TOTEN  =      1384.06905003 eV

  energy without entropy =     1384.07079727  energy(sigma->0) =     1384.06992365


--------------------------------------------------------------------------------------------------------




--------------------------------------- Iteration      1(   2)  ---------------------------------------


     EDDAV:  cpu time   78.8489: real time   78.8821
       DOS:  cpu time    0.0027: real time    0.0027
    --------------------------------------------
      LOOP:  cpu time   78.8516: real time   78.8848

 eigenvalue-minimisations  :  6104
 total energy-change (2. order) :-0.1920475E+04  (-0.1826528E+04)
 number of electron     512.0000000 magnetization 
 augmentation part      512.0000000 magnetization 

 Free energy of the ion-electron system (eV)
  ---------------------------------------------------
  alpha Z        PSCENC =       210.77028614
  Ewald energy   TEWEN  =    -14471.02483372
  -Hartree energ DENC   =      -755.71330522
  -exchange      EXHF   =         0.00000000
  -V(xc)+E(xc)   XCENC  =     -1195.28740150
  PAW double counting   =      4221.13331941    -1969.18571412
  entropy T*S    EENTRO =        -0.00007035
  eigenvalues    EBANDS =       230.42104627
  atomic energy  EATOM  =     13192.48085998
  Solvation  Ediel_sol  =         0.00000000
  ---------------------------------------------------
  free energy    TOTEN  =      -536.40581310 eV

  energy without entropy =     -536.40574275  energy(sigma->0) =     -536.40577792


--------------------------------------------------------------------------------------------------------




--------------------------------------- Iteration      1(   3)  ---------------------------------------


     EDDAV:  cpu time   80.7868: real time   80.8228
       DOS:  cpu time    0.0017: real time    0.0017
    --------------------------------------------
      LOOP:  cpu time   80.7885: real time   80.8245

 eigenvalue-minimisations  :  6288
 total energy-change (2. order) :-0.1504690E+03  (-0.1474485E+03)
 number of electron     512.0000000 magnetization 
 augmentation part      512.0000000 magnetization 

 Free energy of the ion-electron system (eV)
  ---------------------------------------------------
  alpha Z        PSCENC =       210.77028614
  Ewald energy   TEWEN  =    -14471.02483372
  -Hartree energ DENC   =      -755.71330522
  -exchange      EXHF   =         0.00000000
  -V(xc)+E(xc)   XCENC  =     -1195.28740150
  PAW double counting   =      4221.13331941    -1969.18571412
  entropy T*S    EENTRO =        -0.00000000
  eigenvalues    EBANDS =        79.95195003
  atomic energy  EATOM  =     13192.48085998
  Solvation  Ediel_sol  =         0.00000000
  ---------------------------------------------------
  free energy    TOTEN  =      -686.87483898 eV

  energy without entropy =     -686.87483898  energy(sigma->0) =     -686.87483898


--------------------------------------------------------------------------------------------------------




--------------------------------------- Iteration      1(   4)  ---------------------------------------


     EDDAV:  cpu time   79.8194: real time   79.8523
       DOS:  cpu time    0.0010: real time    0.0010
    --------------------------------------------
      LOOP:  cpu time   79.8204: real time   79.8533

 eigenvalue-minimisations  :  6184
 total energy-change (2. order) :-0.4232204E+01  (-0.4197897E+01)
 number of electron     512.0000000 magnetization 
 augmentation part      512.0000000 magnetization 

 Free energy of the ion-electron system (eV)
  ---------------------------------------------------
  alpha Z        PSCENC =       210.77028614
  Ewald energy   TEWEN  =    -14471.02483372
  -Hartree energ DENC   =      -755.71330522
  -exchange      EXHF   =         0.00000000
  -V(xc)+E(xc)   XCENC  =     -1195.28740150
  PAW double counting   =      4221.13331941    -1969.18571412
  entropy T*S    EENTRO =        -0.00000000
  eigenvalues    EBANDS =        75.71974571
  atomic energy  EATOM  =     13192.48085998
  Solvation  Ediel_sol  =         0.00000000
  ---------------------------------------------------
  free energy    TOTEN  =      -691.10704331 eV

  energy without entropy =     -691.10704331  energy(sigma->0) =     -691.10704331


--------------------------------------------------------------------------------------------------------




--------------------------------------- Iteration      1(   5)  ---------------------------------------


     EDDAV:  cpu time   81.0729: real time   81.1002
       DOS:  cpu time    0.0010: real time    0.0010
    CHARGE:  cpu time    3.1436: real time    3.1453
    MIXING:  cpu time    0.0255: real time    0.0256
    --------------------------------------------
      LOOP:  cpu time   84.2431: real time   84.2721

 eigenvalue-minimisations  :  6320
 total energy-change (2. order) :-0.1471336E+00  (-0.1467343E+00)
 number of electron     511.9999998 magnetization 
 augmentation part      -30.1786976 magnetization 

 Broyden mixing:
  rms(total) = 0.24001E+01    rms(broyden)= 0.24001E+01
  rms(prec ) = 0.29076E+01
  weight for this iteration     100.00

 Free energy of the ion-electron system (eV)
  ---------------------------------------------------
  alpha Z        PSCENC =       210.77028614
  Ewald energy   TEWEN  =    -14471.02483372
  -Hartree energ DENC   =      -755.71330522
  -exchange      EXHF   =         0.00000000
  -V(xc)+E(xc)   XCENC  =     -1195.28740150
  PAW double counting   =      4221.13331941    -1969.18571412
  entropy T*S    EENTRO =        -0.00000000
  eigenvalues    EBANDS =        75.57261210
  atomic energy  EATOM  =     13192.48085998
  Solvation  Ediel_sol  =         0.00000000
  ---------------------------------------------------
  free energy    TOTEN  =      -691.25417691 eV

  energy without entropy =     -691.25417691  energy(sigma->0) =     -691.25417691


--------------------------------------------------------------------------------------------------------




--------------------------------------- Iteration      1(   6)  ---------------------------------------


    POTLOK:  cpu time    0.4904: real time    0.4933
    SETDIJ:  cpu time    0.5074: real time    0.5089
     EDDAV:  cpu time   76.7007: real time   76.7307
       DOS:  cpu time    0.0010: real time    0.0010
    CHARGE:  cpu time    3.1345: real time    3.1363
    MIXING:  cpu time    0.0559: real time    0.0559
    --------------------------------------------
      LOOP:  cpu time   80.8900: real time   80.9261

 eigenvalue-minimisations  :  5896
 total energy-change (2. order) : 0.8466366E+01  (-0.5875037E+00)
 number of electron     511.9999998 magnetization 
 augmentation part      -29.8356368 magnetization 

 Broyden mixing:
  rms(total) = 0.14255E+01    rms(broyden)= 0.14255E+01
  rms(prec ) = 0.17177E+01
  weight for this iteration     100.00

 eigenvalues of (default mixing * dielectric matrix)
  average eigenvalue GAMMA=   2.4296
  2.4296

 Free energy of the ion-electron system (eV)
  ---------------------------------------------------
  alpha Z        PSCENC =       210.77028614
  Ewald energy   TEWEN  =    -14471.02483372
  -Hartree energ DENC   =      -851.13878911
  -exchange      EXHF   =         0.00000000
  -V(xc)+E(xc)   XCENC  =     -1180.60918201
  PAW double counting   =      4466.41942659    -2221.26284110
  entropy T*S    EENTRO =        -0.00000000
  eigenvalues    EBANDS =       171.57726195
  atomic energy  EATOM  =     13192.48085998
  Solvation  Ediel_sol  =         0.00000000
  ---------------------------------------------------
  free energy    TOTEN  =      -682.78781127 eV

  energy without entropy =     -682.78781127  energy(sigma->0) =     -682.78781127


--------------------------------------------------------------------------------------------------------




--------------------------------------- Iteration      1(   7)  ---------------------------------------


    POTLOK:  cpu time    0.4891: real time    0.4925
    SETDIJ:  cpu time    0.5104: real time    0.5115
     EDDAV:  cpu time   75.6819: real time   75.7302
       DOS:  cpu time    0.0010: real time    0.0010
    CHARGE:  cpu time    3.1459: real time    3.1475
    MIXING:  cpu time    0.0348: real time    0.0348
    --------------------------------------------
      LOOP:  cpu time   79.8631: real time   79.9175

 eigenvalue-minimisations  :  5792
 total energy-change (2. order) : 0.3551453E+01  (-0.1113794E+01)
 number of electron     511.9999998 magnetization 
 augmentation part      -29.3850262 magnetization 

 Broyden mixing:
  rms(total) = 0.15455E+00    rms(broyden)= 0.15455E+00
  rms(prec ) = 0.19899E+00
  weight for this iteration     100.00

 eigenvalues of (default mixing * dielectric matrix)
  average eigenvalue GAMMA=   2.1221
  2.1221  2.1221

 Free energy of the ion-electron system (eV)
  ---------------------------------------------------
  alpha Z        PSCENC =       210.77028614
  Ewald energy   TEWEN  =    -14471.02483372
  -Hartree energ DENC   =     -1001.92917212
  -exchange      EXHF   =         0.00000000
  -V(xc)+E(xc)   XCENC  =     -1156.64033153
  PAW double counting   =      4786.98483999    -2550.38252520
  entropy T*S    EENTRO =        -0.00000000
  eigenvalues    EBANDS =       310.50451785
  atomic energy  EATOM  =     13192.48085998
  Solvation  Ediel_sol  =         0.00000000
  ---------------------------------------------------
  free energy    TOTEN  =      -679.23635861 eV

  energy without entropy =     -679.23635861  energy(sigma->0) =     -679.23635861


--------------------------------------------------------------------------------------------------------




--------------------------------------- Iteration      1(   8)  ---------------------------------------


    POTLOK:  cpu time    0.4929: real time    0.4960
    SETDIJ:  cpu time    0.5073: real time    0.5075
     EDDAV:  cpu time   75.9025: real time   75.9337
       DOS:  cpu time    0.0011: real time    0.0010
    CHARGE:  cpu time    3.1550: real time    3.1553
    MIXING:  cpu time    0.0336: real time    0.0336
    --------------------------------------------
      LOOP:  cpu time   80.0924: real time   80.1271

 eigenvalue-minimisations  :  5824
 total energy-change (2. order) :-0.5922947E-01  (-0.1034302E+00)
 number of electron     511.9999998 magnetization 
 augmentation part      -29.4537416 magnetization 

 Broyden mixing:
  rms(total) = 0.60778E-01    rms(broyden)= 0.60778E-01
  rms(prec ) = 0.75118E-01
  weight for this iteration     100.00

 eigenvalues of (default mixing * dielectric matrix)
  average eigenvalue GAMMA=   2.0103
  2.6733  1.6788  1.6788

 Free energy of the ion-electron system (eV)
  ---------------------------------------------------
  alpha Z        PSCENC =       210.77028614
  Ewald energy   TEWEN  =    -14471.02483372
  -Hartree energ DENC   =      -995.81893922
  -exchange      EXHF   =         0.00000000
  -V(xc)+E(xc)   XCENC  =     -1156.70834208
  PAW double counting   =      4740.32270299    -2502.26479966
  entropy T*S    EENTRO =        -0.00000000
  eigenvalues    EBANDS =       302.94747748
  atomic energy  EATOM  =     13192.48085998
  Solvation  Ediel_sol  =         0.00000000
  ---------------------------------------------------
  free energy    TOTEN  =      -679.29558808 eV

  energy without entropy =     -679.29558808  energy(sigma->0) =     -679.29558808


--------------------------------------------------------------------------------------------------------




--------------------------------------- Iteration      1(   9)  ---------------------------------------


    POTLOK:  cpu time    0.4931: real time    0.4936
    SETDIJ:  cpu time    0.5077: real time    0.5080
     EDDAV:  cpu time   79.5005: real time   79.5169
       DOS:  cpu time    0.0010: real time    0.0010
    CHARGE:  cpu time    3.1611: real time    3.1621
    MIXING:  cpu time    0.0246: real time    0.0246
    --------------------------------------------
      LOOP:  cpu time   83.6880: real time   83.7062

 eigenvalue-minimisations  :  6184
 total energy-change (2. order) :-0.2206873E-01  (-0.9481530E-02)
 number of electron     511.9999998 magnetization 
 augmentation part      -29.4593134 magnetization 

 Broyden mixing:
  rms(total) = 0.26991E-01    rms(broyden)= 0.26991E-01
  rms(prec ) = 0.31411E-01
  weight for this iteration     100.00

 eigenvalues of (default mixing * dielectric matrix)
  average eigenvalue GAMMA=   1.8017
  2.5832  0.9216  1.8509  1.8509

 Free energy of the ion-electron system (eV)
  ---------------------------------------------------
  alpha Z        PSCENC =       210.77028614
  Ewald energy   TEWEN  =    -14471.02483372
  -Hartree energ DENC   =     -1001.97418545
  -exchange      EXHF   =         0.00000000
  -V(xc)+E(xc)   XCENC  =     -1155.61260873
  PAW double counting   =      4741.82948423    -2503.81076610
  entropy T*S    EENTRO =        -0.00000000
  eigenvalues    EBANDS =       308.02410684
  atomic energy  EATOM  =     13192.48085998
  Solvation  Ediel_sol  =         0.00000000
  ---------------------------------------------------
  free energy    TOTEN  =      -679.31765681 eV

  energy without entropy =     -679.31765681  energy(sigma->0) =     -679.31765681


--------------------------------------------------------------------------------------------------------




--------------------------------------- Iteration      1(  10)  ---------------------------------------


    POTLOK:  cpu time    0.4902: real time    0.4914
    SETDIJ:  cpu time    0.5129: real time    0.5129
     EDDAV:  cpu time   76.5414: real time   76.5620
       DOS:  cpu time    0.0010: real time    0.0010
    CHARGE:  cpu time    3.1350: real time    3.1353
    MIXING:  cpu time    0.0509: real time    0.0509
    --------------------------------------------
      LOOP:  cpu time   80.7314: real time   80.7535

 eigenvalue-minimisations  :  5888
 total energy-change (2. order) :-0.2660709E-02  (-0.8285055E-03)
 number of electron     511.9999998 magnetization 
 augmentation part      -29.4684520 magnetization 

 Broyden mixing:
  rms(total) = 0.99605E-02    rms(broyden)= 0.99605E-02
  rms(prec ) = 0.12161E-01
  weight for this iteration     100.00

 eigenvalues of (default mixing * dielectric matrix)
  average eigenvalue GAMMA=   1.8503
  2.6641  2.6641  1.5034  1.5034  0.9164

 Free energy of the ion-electron system (eV)
  ---------------------------------------------------
  alpha Z        PSCENC =       210.77028614
  Ewald energy   TEWEN  =    -14471.02483372
  -Hartree energ DENC   =     -1000.94484289
  -exchange      EXHF   =         0.00000000
  -V(xc)+E(xc)   XCENC  =     -1155.76611979
  PAW double counting   =      4734.86497083    -2496.67465438
  entropy T*S    EENTRO =        -0.00000000
  eigenvalues    EBANDS =       306.97401631
  atomic energy  EATOM  =     13192.48085998
  Solvation  Ediel_sol  =         0.00000000
  ---------------------------------------------------
  free energy    TOTEN  =      -679.32031752 eV

  energy without entropy =     -679.32031752  energy(sigma->0) =     -679.32031752


--------------------------------------------------------------------------------------------------------




--------------------------------------- Iteration      1(  11)  ---------------------------------------


    POTLOK:  cpu time    0.4905: real time    0.4913
    SETDIJ:  cpu time    0.5102: real time    0.5102
     EDDAV:  cpu time   76.0641: real time   76.0901
       DOS:  cpu time    0.0010: real time    0.0010
    CHARGE:  cpu time    3.1433: real time    3.1436
    MIXING:  cpu time    0.0403: real time    0.0403
    --------------------------------------------
      LOOP:  cpu time   80.2494: real time   80.2764

 eigenvalue-minimisations  :  5832
 total energy-change (2. order) :-0.1298836E-02  (-0.1931938E-03)
 number of electron     511.9999998 magnetization 
 augmentation part      -29.4702782 magnetization 

 Broyden mixing:
  rms(total) = 0.34105E-02    rms(broyden)= 0.34105E-02
  rms(prec ) = 0.48141E-02
  weight for this iteration     100.00

 eigenvalues of (default mixing * dielectric matrix)
  average eigenvalue GAMMA=   1.7909
  2.8470  2.1237  2.1237  1.3865  1.3865  0.8780

 Free energy of the ion-electron system (eV)
  ---------------------------------------------------
  alpha Z        PSCENC =       210.77028614
  Ewald energy   TEWEN  =    -14471.02483372
  -Hartree energ DENC   =     -1001.02189944
  -exchange      EXHF   =         0.00000000
  -V(xc)+E(xc)   XCENC  =     -1155.75543726
  PAW double counting   =      4731.49562719    -2493.23102075
  entropy T*S    EENTRO =        -0.00000000
  eigenvalues    EBANDS =       306.96480150
  atomic energy  EATOM  =     13192.48085998
  Solvation  Ediel_sol  =         0.00000000
  ---------------------------------------------------
  free energy    TOTEN  =      -679.32161635 eV

  energy without entropy =     -679.32161635  energy(sigma->0) =     -679.32161635


--------------------------------------------------------------------------------------------------------




--------------------------------------- Iteration      1(  12)  ---------------------------------------


    POTLOK:  cpu time    0.4900: real time    0.4908
    SETDIJ:  cpu time    0.5077: real time    0.5077
     EDDAV:  cpu time   78.8642: real time   78.8880
       DOS:  cpu time    0.0010: real time    0.0010
    CHARGE:  cpu time    3.1380: real time    3.1420
    MIXING:  cpu time    0.0330: real time    0.0330
    --------------------------------------------
      LOOP:  cpu time   83.0339: real time   83.0624

 eigenvalue-minimisations  :  6120
 total energy-change (2. order) :-0.8758900E-04  (-0.3818441E-04)
 number of electron     511.9999998 magnetization 
 augmentation part      -29.4684428 magnetization 

 Broyden mixing:
  rms(total) = 0.17801E-02    rms(broyden)= 0.17801E-02
  rms(prec ) = 0.21006E-02
  weight for this iteration     100.00

 eigenvalues of (default mixing * dielectric matrix)
  average eigenvalue GAMMA=   1.8361
  3.1814  2.6826  1.7798  1.7798  0.8974  1.2656  1.2656

 Free energy of the ion-electron system (eV)
  ---------------------------------------------------
  alpha Z        PSCENC =       210.77028614
  Ewald energy   TEWEN  =    -14471.02483372
  -Hartree energ DENC   =     -1001.59468354
  -exchange      EXHF   =         0.00000000
  -V(xc)+E(xc)   XCENC  =     -1155.69326797
  PAW double counting   =      4732.59889030    -2494.37374224
  entropy T*S    EENTRO =        -0.00000000
  eigenvalues    EBANDS =       307.51478710
  atomic energy  EATOM  =     13192.48085998
  Solvation  Ediel_sol  =         0.00000000
  ---------------------------------------------------
  free energy    TOTEN  =      -679.32170394 eV

  energy without entropy =     -679.32170394  energy(sigma->0) =     -679.32170394


--------------------------------------------------------------------------------------------------------




--------------------------------------- Iteration      1(  13)  ---------------------------------------


    POTLOK:  cpu time    0.4924: real time    0.4928
    SETDIJ:  cpu time    0.5055: real time    0.5058
     EDDAV:  cpu time   75.0738: real time   75.0907
       DOS:  cpu time    0.0011: real time    0.0010
    CHARGE:  cpu time    3.1226: real time    3.1259
    MIXING:  cpu time    0.0341: real time    0.0341
    --------------------------------------------
      LOOP:  cpu time   79.2295: real time   79.2504

 eigenvalue-minimisations  :  5736
 total energy-change (2. order) :-0.2152269E-04  (-0.1014345E-04)
 number of electron     511.9999998 magnetization 
 augmentation part      -29.4685434 magnetization 

 Broyden mixing:
  rms(total) = 0.55380E-03    rms(broyden)= 0.55378E-03
  rms(prec ) = 0.71033E-03
  weight for this iteration     100.00

 eigenvalues of (default mixing * dielectric matrix)
  average eigenvalue GAMMA=   1.7885
  3.1540  2.5433  1.9491  1.9491  1.4039  1.4039  0.9526  0.9526

 Free energy of the ion-electron system (eV)
  ---------------------------------------------------
  alpha Z        PSCENC =       210.77028614
  Ewald energy   TEWEN  =    -14471.02483372
  -Hartree energ DENC   =     -1001.56301520
  -exchange      EXHF   =         0.00000000
  -V(xc)+E(xc)   XCENC  =     -1155.70624974
  PAW double counting   =      4731.99805090    -2493.76018134
  entropy T*S    EENTRO =        -0.00000000
  eigenvalues    EBANDS =       307.48335751
  atomic energy  EATOM  =     13192.48085998
  Solvation  Ediel_sol  =         0.00000000
  ---------------------------------------------------
  free energy    TOTEN  =      -679.32172546 eV

  energy without entropy =     -679.32172546  energy(sigma->0) =     -679.32172546


--------------------------------------------------------------------------------------------------------




--------------------------------------- Iteration      1(  14)  ---------------------------------------


    POTLOK:  cpu time    0.4879: real time    0.4911
    SETDIJ:  cpu time    0.5088: real time    0.5088
     EDDAV:  cpu time   79.7735: real time   79.8129
       DOS:  cpu time    0.0011: real time    0.0010
    CHARGE:  cpu time    3.0783: real time    3.0788
    MIXING:  cpu time    0.0339: real time    0.0339
    --------------------------------------------
      LOOP:  cpu time   83.8834: real time   83.9266

 eigenvalue-minimisations  :  6208
 total energy-change (2. order) :-0.4920048E-05  (-0.7192278E-06)
 number of electron     511.9999998 magnetization 
 augmentation part      -29.4683819 magnetization 

 Broyden mixing:
  rms(total) = 0.16021E-03    rms(broyden)= 0.16014E-03
  rms(prec ) = 0.21707E-03
  weight for this iteration     100.00

 eigenvalues of (default mixing * dielectric matrix)
  average eigenvalue GAMMA=   1.7757
  3.2263  2.6056  2.2140  1.6667  1.6667  0.9339  1.0070  1.3305  1.3305

 Free energy of the ion-electron system (eV)
  ---------------------------------------------------
  alpha Z        PSCENC =       210.77028614
  Ewald energy   TEWEN  =    -14471.02483372
  -Hartree energ DENC   =     -1001.61433348
  -exchange      EXHF   =         0.00000000
  -V(xc)+E(xc)   XCENC  =     -1155.69944568
  PAW double counting   =      4732.16258179    -2493.92837153
  entropy T*S    EENTRO =        -0.00000000
  eigenvalues    EBANDS =       307.53152611
  atomic energy  EATOM  =     13192.48085998
  Solvation  Ediel_sol  =         0.00000000
  ---------------------------------------------------
  free energy    TOTEN  =      -679.32173038 eV

  energy without entropy =     -679.32173038  energy(sigma->0) =     -679.32173038


--------------------------------------------------------------------------------------------------------




--------------------------------------- Iteration      1(  15)  ---------------------------------------


    POTLOK:  cpu time    0.4908: real time    0.4920
    SETDIJ:  cpu time    0.5085: real time    0.5088
     EDDAV:  cpu time   78.8434: real time   78.8844
       DOS:  cpu time    0.0012: real time    0.0012
    CHARGE:  cpu time    3.0837: real time    3.0879
    MIXING:  cpu time    0.0328: real time    0.0328
    --------------------------------------------
      LOOP:  cpu time   82.9604: real time   83.0071

 eigenvalue-minimisations  :  6120
 total energy-change (2. order) :-0.2858647E-05  (-0.1318173E-06)
 number of electron     511.9999998 magnetization 
 augmentation part      -29.4682805 magnetization 

 Broyden mixing:
  rms(total) = 0.57967E-04    rms(broyden)= 0.57772E-04
  rms(prec ) = 0.76589E-04
  weight for this iteration     100.00

 eigenvalues of (default mixing * dielectric matrix)
  average eigenvalue GAMMA=   1.7367
  3.2559  2.5771  2.1596  1.7197  1.7197  1.4818  1.4818  1.0413  0.9541  0.9761

 Free energy of the ion-electron system (eV)
  ---------------------------------------------------
  alpha Z        PSCENC =       210.77028614
  Ewald energy   TEWEN  =    -14471.02483372
  -Hartree energ DENC   =     -1001.63418100
  -exchange      EXHF   =         0.00000000
  -V(xc)+E(xc)   XCENC  =     -1155.69835361
  PAW double counting   =      4732.21956134    -2493.98707032
  entropy T*S    EENTRO =        -0.00000000
  eigenvalues    EBANDS =       307.55199793
  atomic energy  EATOM  =     13192.48085998
  Solvation  Ediel_sol  =         0.00000000
  ---------------------------------------------------
  free energy    TOTEN  =      -679.32173324 eV

  energy without entropy =     -679.32173324  energy(sigma->0) =     -679.32173324


--------------------------------------------------------------------------------------------------------




--------------------------------------- Iteration      1(  16)  ---------------------------------------


    POTLOK:  cpu time    0.4912: real time    0.4924
    SETDIJ:  cpu time    0.5059: real time    0.5069
     EDDAV:  cpu time   78.3260: real time   78.3618
       DOS:  cpu time    0.0017: real time    0.0017
    CHARGE:  cpu time    3.0673: real time    3.0759
    MIXING:  cpu time    0.0479: real time    0.0479
    --------------------------------------------
      LOOP:  cpu time   82.4400: real time   82.4867

 eigenvalue-minimisations  :  6072
 total energy-change (2. order) : 0.4217691E-06  (-0.1684728E-07)
 number of electron     511.9999998 magnetization 
 augmentation part      -29.4682846 magnetization 

 Broyden mixing:
  rms(total) = 0.23577E-04    rms(broyden)= 0.23094E-04
  rms(prec ) = 0.30291E-04
  weight for this iteration     100.00

 eigenvalues of (default mixing * dielectric matrix)
  average eigenvalue GAMMA=   1.7090
  3.2930  2.6350  2.1064  2.1064  1.4844  1.4844  1.4600  1.3145  0.9053  1.0047
  1.0047

 Free energy of the ion-electron system (eV)
  ---------------------------------------------------
  alpha Z        PSCENC =       210.77028614
  Ewald energy   TEWEN  =    -14471.02483372
  -Hartree energ DENC   =     -1001.63326992
  -exchange      EXHF   =         0.00000000
  -V(xc)+E(xc)   XCENC  =     -1155.69833159
  PAW double counting   =      4732.21533670    -2493.98249056
  entropy T*S    EENTRO =        -0.00000000
  eigenvalues    EBANDS =       307.55071014
  atomic energy  EATOM  =     13192.48085998
  Solvation  Ediel_sol  =         0.00000000
  ---------------------------------------------------
  free energy    TOTEN  =      -679.32173282 eV

  energy without entropy =     -679.32173282  energy(sigma->0) =     -679.32173282


--------------------------------------------------------------------------------------------------------




--------------------------------------- Iteration      1(  17)  ---------------------------------------


    POTLOK:  cpu time    0.4899: real time    0.4930
    SETDIJ:  cpu time    0.5040: real time    0.5049
     EDDAV:  cpu time   54.8538: real time   54.8836
       DOS:  cpu time    0.0020: real time    0.0020
    CHARGE:  cpu time    3.0762: real time    3.0770
    MIXING:  cpu time    0.0385: real time    0.0385
    --------------------------------------------
      LOOP:  cpu time   58.9644: real time   58.9989

 eigenvalue-minimisations  :  3680
 total energy-change (2. order) : 0.7503331E-07  (-0.1895738E-08)
 number of electron     511.9999998 magnetization 
 augmentation part      -29.4682864 magnetization 

 Broyden mixing:
  rms(total) = 0.12860E-04    rms(broyden)= 0.11951E-04
  rms(prec ) = 0.15093E-04
  weight for this iteration     100.00

 eigenvalues of (default mixing * dielectric matrix)
  average eigenvalue GAMMA=   1.7152
  3.3078  2.6235  2.3328  1.8295  1.8295  1.5442  1.5442  0.9321  0.9804  1.3359
  1.1615  1.1615

 Free energy of the ion-electron system (eV)
  ---------------------------------------------------
  alpha Z        PSCENC =       210.77028614
  Ewald energy   TEWEN  =    -14471.02483372
  -Hartree energ DENC   =     -1001.63268213
  -exchange      EXHF   =         0.00000000
  -V(xc)+E(xc)   XCENC  =     -1155.69840476
  PAW double counting   =      4732.21549611    -2493.98255548
  entropy T*S    EENTRO =        -0.00000000
  eigenvalues    EBANDS =       307.55010109
  atomic energy  EATOM  =     13192.48085998
  Solvation  Ediel_sol  =         0.00000000
  ---------------------------------------------------
  free energy    TOTEN  =      -679.32173275 eV

  energy without entropy =     -679.32173275  energy(sigma->0) =     -679.32173275


--------------------------------------------------------------------------------------------------------




--------------------------------------- Iteration      1(  18)  ---------------------------------------


    POTLOK:  cpu time    0.4877: real time    0.4915
    SETDIJ:  cpu time    0.5042: real time    0.5042
     EDDAV:  cpu time   51.4230: real time   51.4524
       DOS:  cpu time    0.0018: real time    0.0018
    CHARGE:  cpu time    3.0701: real time    3.0707
    MIXING:  cpu time    0.0539: real time    0.0538
    --------------------------------------------
      LOOP:  cpu time   55.5406: real time   55.5745

 eigenvalue-minimisations  :  3336
 total energy-change (2. order) :-0.7784001E-07  (-0.7261806E-09)
 number of electron     511.9999998 magnetization 
 augmentation part      -29.4682827 magnetization 

 Broyden mixing:
  rms(total) = 0.65571E-05    rms(broyden)= 0.45230E-05
  rms(prec ) = 0.67119E-05
  weight for this iteration     100.00
  WARNING: grid for Broyden might be to small

 eigenvalues of (default mixing * dielectric matrix)
  average eigenvalue GAMMA=   1.7208
  3.2658  2.6906  2.3424  2.3424  1.6934  1.6934  1.4204  1.4204  1.2974  1.2974
  0.9236  0.9918  0.9918

 Free energy of the ion-electron system (eV)
  ---------------------------------------------------
  alpha Z        PSCENC =       210.77028614
  Ewald energy   TEWEN  =    -14471.02483372
  -Hartree energ DENC   =     -1001.63334617
  -exchange      EXHF   =         0.00000000
  -V(xc)+E(xc)   XCENC  =     -1155.69831094
  PAW double counting   =      4732.21890134    -2493.98600151
  entropy T*S    EENTRO =        -0.00000000
  eigenvalues    EBANDS =       307.55071204
  atomic energy  EATOM  =     13192.48085998
  Solvation  Ediel_sol  =         0.00000000
  ---------------------------------------------------
  free energy    TOTEN  =      -679.32173282 eV

  energy without entropy =     -679.32173282  energy(sigma->0) =     -679.32173282


--------------------------------------------------------------------------------------------------------




--------------------------------------- Iteration      1(  19)  ---------------------------------------


    POTLOK:  cpu time    0.4892: real time    0.4927
    SETDIJ:  cpu time    0.5042: real time    0.5044
     EDDAV:  cpu time   50.6537: real time   50.6746
       DOS:  cpu time    0.0013: real time    0.0013
    CHARGE:  cpu time    3.0744: real time    3.0749
    MIXING:  cpu time    0.0256: real time    0.0256
    --------------------------------------------
      LOOP:  cpu time   54.7484: real time   54.7735

 eigenvalue-minimisations  :  3256
 total energy-change (2. order) : 0.2649904E-07  (-0.1381421E-09)
 number of electron     511.9999998 magnetization 
 augmentation part      -29.4682844 magnetization 

 Broyden mixing:
  rms(total) = 0.53053E-05    rms(broyden)= 0.23680E-05
  rms(prec ) = 0.30980E-05
  weight for this iteration     100.00
  WARNING: grid for Broyden might be to small

 eigenvalues of (default mixing * dielectric matrix)
  average eigenvalue GAMMA=   1.6975
  3.3242  2.6898  2.2910  2.2910  1.7990  1.7990  1.5318  1.5318  1.3038  1.3038
  1.0248  1.0248  0.9251  0.9251

 Free energy of the ion-electron system (eV)
  ---------------------------------------------------
  alpha Z        PSCENC =       210.77028614
  Ewald energy   TEWEN  =    -14471.02483372
  -Hartree energ DENC   =     -1001.63300343
  -exchange      EXHF   =         0.00000000
  -V(xc)+E(xc)   XCENC  =     -1155.69834762
  PAW double counting   =      4732.21859612    -2493.98567367
  entropy T*S    EENTRO =        -0.00000000
  eigenvalues    EBANDS =       307.55038340
  atomic energy  EATOM  =     13192.48085998
  Solvation  Ediel_sol  =         0.00000000
  ---------------------------------------------------
  free energy    TOTEN  =      -679.32173280 eV

  energy without entropy =     -679.32173280  energy(sigma->0) =     -679.32173280


--------------------------------------------------------------------------------------------------------




--------------------------------------- Iteration      1(  20)  ---------------------------------------


    POTLOK:  cpu time    0.4874: real time    0.4909
    SETDIJ:  cpu time    0.5074: real time    0.5077
     EDDAV:  cpu time   49.6014: real time   49.6286
       DOS:  cpu time    0.0010: real time    0.0010
    CHARGE:  cpu time    3.0711: real time    3.0716
    MIXING:  cpu time    0.0346: real time    0.0346
    --------------------------------------------
      LOOP:  cpu time   53.7029: real time   53.7345

 eigenvalue-minimisations  :  3152
 total energy-change (2. order) :-0.1201079E-07  (-0.5765019E-10)
 number of electron     511.9999998 magnetization 
 augmentation part      -29.4682840 magnetization 

 Broyden mixing:
  rms(total) = 0.49613E-05    rms(broyden)= 0.14410E-05
  rms(prec ) = 0.21299E-05
  weight for this iteration     100.00
  WARNING: grid for Broyden might be to small

 eigenvalues of (default mixing * dielectric matrix)
  average eigenvalue GAMMA=   1.6900
  3.3089  2.7649  2.2710  2.1998  2.1998  1.6715  1.5564  1.5564  1.3241  1.3241
  1.1731  1.1731  0.9578  0.9578  0.9117

 Free energy of the ion-electron system (eV)
  ---------------------------------------------------
  alpha Z        PSCENC =       210.77028614
  Ewald energy   TEWEN  =    -14471.02483372
  -Hartree energ DENC   =     -1001.63324030
  -exchange      EXHF   =         0.00000000
  -V(xc)+E(xc)   XCENC  =     -1155.69831935
  PAW double counting   =      4732.21898580    -2493.98607352
  entropy T*S    EENTRO =        -0.00000000
  eigenvalues    EBANDS =       307.55060216
  atomic energy  EATOM  =     13192.48085998
  Solvation  Ediel_sol  =         0.00000000
  ---------------------------------------------------
  free energy    TOTEN  =      -679.32173281 eV

  energy without entropy =     -679.32173281  energy(sigma->0) =     -679.32173281


--------------------------------------------------------------------------------------------------------




--------------------------------------- Iteration      1(  21)  ---------------------------------------


    POTLOK:  cpu time    0.4919: real time    0.4924
    SETDIJ:  cpu time    0.5072: real time    0.5072
     EDDAV:  cpu time   49.6261: real time   49.6450
       DOS:  cpu time    0.0022: real time    0.0022
    --------------------------------------------
      LOOP:  cpu time   50.6274: real time   50.6468

 eigenvalue-minimisations  :  3152
 total energy-change (2. order) :-0.3479727E-08  (-0.1156302E-10)
 number of electron     511.9999998 magnetization 
 augmentation part      -29.4682840 magnetization 

 Free energy of the ion-electron system (eV)
  ---------------------------------------------------
  alpha Z        PSCENC =       210.77028614
  Ewald energy   TEWEN  =    -14471.02483372
  -Hartree energ DENC   =     -1001.63324138
  -exchange      EXHF   =         0.00000000
  -V(xc)+E(xc)   XCENC  =     -1155.69831823
  PAW double counting   =      4732.21907799    -2493.98616762
  entropy T*S    EENTRO =        -0.00000000
  eigenvalues    EBANDS =       307.55060401
  atomic energy  EATOM  =     13192.48085998
  Solvation  Ediel_sol  =         0.00000000
  ---------------------------------------------------
  free energy    TOTEN  =      -679.32173281 eV

  energy without entropy =     -679.32173281  energy(sigma->0) =     -679.32173281


--------------------------------------------------------------------------------------------------------




 average (electrostatic) potential at core
  the test charge radii are     0.9892
  (the norm of the test charge is              1.0000)
       1 -83.4864       2 -83.4980       3 -83.6130       4 -83.6202       5 -83.4226
       6 -83.5155       7 -83.5741       8 -83.5849       9 -83.3867      10 -83.5903
      11 -83.4847      12 -83.5939      13 -83.4514      14 -83.5729      15 -83.6202
      16 -83.6180      17 -83.3151      18 -83.5065      19 -83.4312      20 -83.5608
      21 -83.3520      22 -83.5518      23 -83.5838      24 -83.6792      25 -83.4714
      26 -83.5478      27 -83.4069      28 -83.5014      29 -83.3902      30 -83.5764
      31 -83.4969      32 -83.6762      33 -83.3530      34 -83.5050      35 -83.5639
      36 -83.4764      37 -83.3989      38 -83.5000      39 -83.5510      40 -83.5967
      41 -83.4898      42 -83.4280      43 -83.4085      44 -83.5668      45 -83.4259
      46 -83.5842      47 -83.5107      48 -83.5949      49 -83.5033      50 -83.5365
      51 -83.5024      52 -83.5768      53 -83.4807      54 -83.4651      55 -83.5260
      56 -83.6144      57 -83.3964      58 -83.4857      59 -83.5089      60 -83.6728
      61 -83.3942      62 -83.5265      63 -83.5939      64 -83.5538      65 -83.3732
      66 -83.4679      67 -83.6204      68 -83.5543      69 -83.4271      70 -83.5968
      71 -83.6701      72 -83.5388      73 -83.4724      74 -83.5232      75 -83.4891
      76 -83.4589      77 -83.5008      78 -83.5065      79 -83.5168      80 -83.5680
      81 -83.3907      82 -83.4303      83 -83.5169      84 -83.5532      85 -83.5397
      86 -83.5404      87 -83.5269      88 -83.5555      89 -83.4257      90 -83.4528
      91 -83.4989      92 -83.5380      93 -83.4419      94 -83.4917      95 -83.5796
      96 -83.6128      97 -83.4648      98 -83.4774      99 -83.4800     100 -83.4886
     101 -83.5001     102 -83.4604     103 -83.5001     104 -83.5591     105 -83.4185
     106 -83.4380     107 -83.4954     108 -83.6318     109 -83.4223     110 -83.5790
     111 -83.5815     112 -83.5317     113 -83.5392     114 -83.4884     115 -83.5578
     116 -83.5602     117 -83.4943     118 -83.5201     119 -83.5403     120 -83.6613
     121 -83.3991     122 -83.4442     123 -83.5092     124 -83.5639     125 -83.5966
     126 -83.6044     127 -83.5530     128 -83.4862
 
 
 
 E-fermi :   6.0375     XC(G=0):  -9.3316     alpha+bet :-11.7321


 k-point     1 :       0.0000    0.0000    0.0000
  band No.  band energies     occupation 
      1      -6.2969      2.00000
      2      -5.7122      2.00000
      3      -5.6282      2.00000
      4      -5.5920      2.00000
      5      -5.5362      2.00000
      6      -5.5226      2.00000
      7      -5.4784      2.00000
      8      -5.4123      2.00000
      9      -5.4027      2.00000
     10      -5.2908      2.00000
     11      -5.2765      2.00000
     12      -5.1990      2.00000
     13      -5.1756      2.00000
     14      -5.1348      2.00000
     15      -5.1031      2.00000
     16      -4.5165      2.00000
     17      -4.4770      2.00000
     18      -4.3956      2.00000
     19      -4.3631      2.00000
     20      -4.3402      2.00000
     21      -4.3231      2.00000
     22      -4.2745      2.00000
     23      -4.2566      2.00000
     24      -4.2382      2.00000
     25      -4.1785      2.00000
     26      -4.1547      2.00000
     27      -4.1508      2.00000
     28      -4.0807      2.00000
     29      -4.0312      2.00000
     30      -4.0176      2.00000
     31      -3.9789      2.00000
     32      -3.8664      2.00000
     33      -3.8088      2.00000
     34      -3.7922      2.00000
     35      -3.7492      2.00000
     36      -3.7425      2.00000
     37      -3.6890      2.00000
     38      -3.6661      2.00000
     39      -3.6583      2.00000
     40      -3.6415      2.00000
     41      -3.6275      2.00000
     42      -3.6138      2.00000
     43      -3.5778      2.00000
     44      -3.5700      2.00000
     45      -3.5430      2.00000
[...]
   -.272E+01 0.470E+01 -.469E-01   0.198E+01 -.350E+01 0.126E+00   0.520E+00 -.177E+01 0.126E+01   -.169E-06 -.581E-06 -.466E-06
   0.662E+01 0.116E+02 -.942E+01   -.555E+01 -.106E+02 0.831E+01   -.500E+00 -.302E+01 0.187E+01   0.349E-06 0.598E-06 0.593E-06
   0.209E+01 0.347E+01 -.595E+01   -.206E+01 -.376E+01 0.494E+01   0.186E+01 0.437E+00 0.272E+01   -.109E-06 -.569E-06 -.605E-06
   0.105E+02 -.133E+02 -.753E+01   -.948E+01 0.126E+02 0.685E+01   -.282E+01 0.274E+01 0.160E+01   -.483E-06 0.331E-06 -.830E-06
   -.926E+01 0.600E+01 0.411E+01   0.807E+01 -.518E+01 -.358E+01   0.222E+01 -.207E+01 -.150E+01   0.275E-06 -.507E-06 0.382E-06
   0.119E+01 -.216E+01 0.346E+01   -.560E+00 0.197E+01 -.297E+01   -.114E+01 -.172E+00 -.934E+00   -.712E-07 0.225E-06 -.547E-07
   0.453E+01 0.417E+01 0.125E+02   -.352E+01 -.353E+01 -.114E+02   -.170E+01 -.140E+01 -.210E+01   0.715E-06 0.491E-06 0.446E-07
   -.156E+02 -.416E+01 -.163E+01   0.137E+02 0.366E+01 0.113E+01   0.472E+01 0.876E+00 0.179E+00   -.595E-06 0.637E-06 0.129E-06
   -.759E+00 0.539E+01 0.446E+01   0.109E+01 -.401E+01 -.333E+01   -.207E+01 -.221E+01 -.597E+00   -.422E-06 -.870E-06 -.138E-06
   0.253E+01 0.901E+01 -.963E+01   -.271E+01 -.899E+01 0.834E+01   0.798E+00 -.178E+01 0.225E+01   0.419E-06 0.252E-06 0.604E-06
   -.132E+01 0.586E+01 -.141E+01   0.150E+01 -.561E+01 0.146E+01   0.480E+00 -.288E+00 -.144E+00   0.586E-06 0.609E-07 -.120E-05
   0.790E+01 -.906E+01 -.341E+01   -.662E+01 0.810E+01 0.318E+01   -.220E+01 0.220E+00 0.723E+00   -.203E-06 0.844E-06 -.153E-06
   0.256E+01 -.218E+01 0.107E+02   -.217E+01 0.216E+01 -.868E+01   -.156E+01 0.126E+01 -.287E+01   0.254E-06 -.310E-06 -.232E-06
   0.160E+01 -.568E+01 -.100E+02   -.166E+01 0.479E+01 0.894E+01   0.134E+01 0.335E+00 0.213E+01   -.357E-06 0.129E-06 -.472E-06
   -.451E+01 0.428E+01 -.438E+01   0.429E+01 -.338E+01 0.405E+01   0.414E+00 -.173E+01 0.629E+00   0.727E-06 -.321E-07 -.516E-06
   0.389E+01 0.280E+01 -.580E+01   -.380E+01 -.239E+01 0.454E+01   -.953E+00 -.386E+00 0.169E+01   0.259E-06 0.468E-06 -.173E-06
   0.651E+01 0.683E+01 0.750E+01   -.591E+01 -.591E+01 -.679E+01   -.542E+00 -.338E+01 -.286E+01   -.199E-06 0.126E-05 -.432E-06
   -.938E+00 -.307E+01 -.556E+00   0.138E+01 0.199E+01 0.323E+00   -.378E+00 -.153E+00 0.304E+00   -.579E-06 -.501E-06 0.699E-07
   -.720E+01 -.556E+01 0.972E+01   0.704E+01 0.527E+01 -.894E+01   0.101E+01 0.586E+00 -.883E+00   -.138E-06 -.124E-06 0.722E-07
   -.232E+01 -.598E+01 -.282E+00   0.244E+01 0.548E+01 -.272E+00   0.752E+00 0.157E+01 0.656E+00   0.124E-06 -.413E-06 -.183E-07
   0.546E+01 -.736E-01 0.577E+01   -.498E+01 -.264E+00 -.466E+01   -.232E+01 0.146E+01 -.366E+01   0.132E-05 -.400E-06 0.927E-06
   0.667E+01 -.105E+02 -.123E+01   -.655E+01 0.908E+01 0.943E+00   -.908E+00 0.221E+01 0.831E+00   -.616E-06 0.122E-06 -.140E-06
   0.286E+00 -.106E+02 0.396E+01   -.605E+00 0.925E+01 -.419E+01   0.420E-01 0.263E+01 -.603E+00   -.209E-06 -.923E-06 0.332E-06
   -.286E+01 -.576E+01 -.945E+01   0.262E+01 0.527E+01 0.842E+01   0.714E+00 0.192E+01 0.260E+01   -.935E-06 -.880E-06 0.622E-06
   -.436E+01 0.154E+00 -.899E+00   0.351E+01 -.289E+00 0.122E+01   0.174E+01 0.763E+00 0.428E+00   -.105E-06 0.103E-06 0.197E-06
   0.426E+00 0.333E+01 -.463E+01   0.255E+00 -.333E+01 0.355E+01   -.951E+00 -.135E+01 0.116E+01   -.892E-06 -.302E-06 0.633E-06
   -.663E+01 -.870E+00 -.398E+01   0.638E+01 0.107E+01 0.367E+01   0.152E+01 -.763E+00 0.158E+01   -.435E-06 -.697E-06 0.377E-06
   0.110E+02 -.529E+01 0.490E+01   -.968E+01 0.502E+01 -.437E+01   -.315E+01 0.143E+01 -.984E+00   0.707E-06 -.582E-06 0.717E-06
   -.117E+02 0.660E+01 0.128E+01   0.103E+02 -.582E+01 -.117E+01   0.263E+01 -.227E+01 0.436E+00   0.127E-06 -.419E-06 0.522E-06
   -.112E+01 0.692E+00 -.345E+01   0.146E+01 -.234E+00 0.311E+01   0.110E+01 -.215E+01 0.470E+00   -.452E-06 0.298E-06 0.355E-06
   -.188E+01 -.334E+01 -.338E+01   0.244E+01 0.319E+01 0.290E+01   -.122E+01 0.330E+00 0.917E+00   -.316E-06 0.618E-06 -.959E-07
   -.113E+02 -.236E+01 0.133E+02   0.104E+02 0.181E+01 -.121E+02   0.278E+01 0.510E+00 -.334E+01   -.873E-06 0.515E-06 -.710E-06
   -.298E+01 0.298E-01 0.137E+02   0.242E+01 0.121E-01 -.125E+02   0.310E+00 -.350E+00 -.304E+01   -.320E-06 -.578E-06 -.129E-08
   0.433E+01 -.311E+01 -.438E+01   -.351E+01 0.279E+01 0.417E+01   -.893E+00 0.862E+00 0.305E+00   0.812E-06 0.321E-06 0.265E-06
   -.286E+01 0.137E+02 0.231E+01   0.279E+01 -.124E+02 -.216E+01   0.565E+00 -.322E+01 0.589E+00   0.705E-06 -.207E-06 -.477E-06
   -.174E+01 0.250E+01 0.633E+00   0.177E+01 -.237E+01 -.581E+00   0.385E-01 -.779E+00 -.582E+00   0.202E-06 0.271E-06 0.534E-06
   -.678E+01 0.217E+01 0.610E+01   0.571E+01 -.207E+01 -.476E+01   0.860E+00 -.722E+00 -.205E+01   -.932E-07 -.566E-07 -.390E-06
   0.204E+01 -.730E+01 0.311E+01   -.211E+01 0.694E+01 -.301E+01   0.123E+01 0.159E+00 0.123E+00   -.526E-06 0.368E-06 -.126E-06
   -.319E+01 -.672E+01 -.292E+01   0.282E+01 0.601E+01 0.276E+01   0.202E+01 0.181E+01 0.125E+01   0.148E-06 -.371E-06 -.130E-05
   -.844E+01 0.905E+01 0.199E+01   0.712E+01 -.845E+01 -.151E+01   0.194E+01 -.139E+01 -.136E+01   -.118E-06 0.285E-06 0.785E-06
   0.592E+01 0.633E+01 0.360E+01   -.547E+01 -.529E+01 -.326E+01   -.479E+00 -.243E+01 -.124E+01   -.218E-06 0.463E-06 -.568E-07
   -.271E+01 -.695E+01 -.177E+01   0.260E+01 0.652E+01 0.187E+01   0.474E+00 0.127E+01 -.516E+00   0.710E-06 0.191E-06 0.297E-07
   -.201E+01 -.118E+01 -.353E+01   0.194E+01 0.877E+00 0.306E+01   -.211E+00 0.689E+00 0.186E+01   0.275E-06 -.690E-06 0.440E-06
   -.239E+01 -.567E+01 -.351E+01   0.268E+01 0.410E+01 0.328E+01   -.373E+00 0.392E+01 0.454E+00   0.918E-07 -.686E-06 0.129E-05
   -.256E+01 -.340E+00 -.104E+01   0.191E+01 -.398E-01 0.941E+00   0.183E+00 0.102E+01 -.342E+00   0.666E-06 -.343E-06 -.694E-06
   0.633E+01 -.144E+02 0.344E+01   -.548E+01 0.130E+02 -.269E+01   -.160E+01 0.422E+01 -.186E+01   0.172E-06 -.514E-06 0.126E-06
   0.217E+01 0.937E+01 -.434E+00   -.192E+01 -.836E+01 0.185E+00   -.622E+00 -.309E+01 0.116E+01   -.125E-06 0.156E-07 0.416E-06
   0.702E+01 -.261E+01 0.119E+02   -.642E+01 0.190E+01 -.110E+02   -.236E+01 0.213E+01 -.390E+01   0.272E-06 -.321E-06 -.381E-06
   0.327E+01 -.270E+01 0.186E+01   -.336E+01 0.317E+01 -.177E+01   -.617E+00 0.326E+00 0.958E-01   0.644E-06 0.296E-06 0.405E-06
   0.624E+01 -.139E+01 -.638E+01   -.550E+01 0.149E+01 0.577E+01   -.911E+00 -.121E+01 0.111E+01   -.347E-06 -.420E-06 0.606E-06
   -.103E+02 -.238E+01 -.169E+01   0.931E+01 0.133E+01 0.122E+01   0.305E+01 0.201E+01 0.176E+01   -.125E-06 -.984E-07 -.421E-06
   -.287E+00 0.109E+02 0.977E+01   0.532E+00 -.104E+02 -.790E+01   -.204E+00 -.153E+01 -.275E+01   -.790E-06 0.854E-06 -.500E-06
   0.162E+01 0.301E-01 -.977E+01   -.128E+01 0.378E+00 0.899E+01   -.289E+00 0.101E+00 0.237E+01   -.600E-06 0.755E-07 -.379E-06
 -----------------------------------------------------------------------------------------------
   -.155E+00 -.276E+00 -.551E-01   0.181E-12 -.639E-13 0.108E-12   0.155E+00 0.276E+00 0.552E-01   -.647E-06 0.192E-06 0.832E-07
 
 
 POSITION                                       TOTAL-FORCE (eV/Angst)
 -----------------------------------------------------------------------------------
      0.24570     10.85822     11.00896        -2.784105      0.912584     -0.721694
     11.01847      2.77856     13.56542        -2.375566     -0.590268     -0.169524
     10.99494      5.51294     16.16310         0.239789     -1.637472      2.438009
     10.98411     19.05618      8.29035        -0.614397      0.625756     -1.600883
     13.66626     21.83712     13.68077        -1.696209      0.495907      0.342047
     13.62084     13.70787      5.48698         0.305834     -0.159782     -0.180543
      2.62698      5.52660      8.14827         0.727350     -0.369566      1.888837
     13.62844     19.11797     10.91797        -0.220864     -0.546135     -0.877620
     16.47717     21.77689     16.41896        -1.512006      0.091800     -0.222790
     16.42574     13.50318      8.21387         0.021373      2.495781     -1.130780
      5.48454      5.54147     10.96128        -0.912556     -1.834396     -0.349640
      5.41524      8.28376     13.68061        -0.310444     -0.740899     -1.270880
      8.21470     10.84385     18.95646        -0.453766      1.972003      1.837158
      8.27580      2.88208     11.05589        -2.654963     -1.717528     -1.940536
      8.29391      5.66096     13.69571        -1.058906     -1.398368     -0.435188
     19.03195     19.06328     16.50673         1.630884      0.955135     -1.671762
      2.73811     13.62711     10.97165         1.086552      1.385188     -0.792688
     13.54607      5.54197     13.73791         1.296095     -0.460012     -0.141976
      2.79490      8.21197      5.46696        -2.088372     -0.339890      0.389368
     13.60204     10.85417     19.03469         1.472359     -0.114256      2.618880
      5.49250     13.64339     13.70091        -0.461232      0.228207     -0.001106
      5.44585      5.59919      5.38457        -0.084871     -0.911754      1.090062
      5.56421      8.18173      8.22198        -0.509640      1.465956     -0.595900
      5.27170     10.90501     11.10351         2.217535      1.216083     -1.754760
      8.37089     13.68748     16.49869        -3.733085      1.711665      0.691359
      8.21709      5.49356      8.25254        -0.332851      0.169952     -0.160112
      8.12146      8.25825     10.75835         0.223888     -0.449542      1.893358
      8.11142     11.03917     13.74834         2.299359     -0.780118      0.029005
     10.95251     13.58917     19.11597        -0.235088      1.606969      0.147736
     10.98806      5.30827     11.01670        -0.743944      1.243877     -1.292694
     10.99225      8.14449     13.71833        -0.612736      1.053896     -1.289958
     10.84630     11.01620     16.25868         1.142880     -1.093266      1.620219
     16.48434      5.63530     11.00815        -0.499770     -0.935347     -0.338117
      5.54410      8.19334      2.96773        -0.102804      0.397983     -2.661839
     16.39700     11.01403     16.29453        -0.675946     -1.264521      0.791839
     16.30771     13.79575     19.28292         1.315978     -1.030302     -1.764273
      8.27785     16.28943     13.66234        -0.143800      1.742014      0.526804
      8.20902      8.17605      5.48981         0.152676     -0.899142      0.390292
      8.23494     10.86821      8.23521        -0.511066      1.335089     -0.870851
      8.18178     13.74704     11.01843        -0.484852     -0.858903     -0.918273
     11.01577     16.19704     16.36177        -1.174351      2.238060      0.443639
     10.96762      8.16732      8.26441        -0.921189      0.952552     -0.779030
     10.82744     11.00716     10.84841         1.581025     -1.758385      1.411375
     10.88434     13.46882     13.69617        -0.078862      3.138340     -0.043069
     13.68148     16.24764     18.97786        -0.887454      2.163425      0.701958
     13.57486      8.15513     10.91606         0.795586     -0.044943      0.167616
     13.71878     11.00202     13.66710        -0.948220     -0.441536      0.633189
     13.62526     13.65431     16.50501         0.704832     -0.145310      0.811473
     19.17155     19.17655     21.78863        -1.260781      0.926776      0.469700
      8.27371     10.87205      2.73487        -1.901849      0.036892     -0.609430
     19.10654     13.80813     16.40216         0.213329     -0.878635      0.085413
     19.20804     16.40424     19.06655        -0.774522      0.457830      1.072983
     10.82462      8.18037      2.72540         0.487874      0.452345     -0.386949
     10.83732     10.97793      5.49909        -0.133034     -0.039216     -1.095148
     10.86437     13.65913      8.37307         0.316937     -0.431441     -2.400854
     10.92006     16.50081     10.90446         0.597653     -0.947920     -0.253771
     13.64073     19.06597     16.37269        -0.072158     -0.464648     -0.382685
     13.63529     10.86871      8.21379         0.853875      0.134014     -0.963634
     13.76364     13.71005     10.77334        -0.341099     -0.336787      2.706098
     13.58388     16.38402     13.59169         0.771818     -0.729663      1.169194
     16.42078     19.09725     19.10004         0.874712     -1.200554      1.435407
     16.40930     10.91961     11.03453        -0.796375     -0.040175     -2.346122
     16.27684     13.65475     13.62956         2.262711     -0.554567      1.640417
     16.47013     16.42667     16.34197        -1.143173     -0.447350     -0.168738
      1.37608      1.43023      1.30639         0.714558     -0.842421      1.164534
      1.31460      3.99583      4.04152         1.008600      0.754744      0.407798
      1.31100      6.73964      6.80953        -0.005517      1.467743     -1.015433
      1.32216      9.55406      9.52511         1.131155     -0.408707      0.088103
      3.99700      1.35552      4.06663         1.322352     -0.050785      0.977902
      3.96672      4.29845      6.80673         1.626372     -1.772016     -0.399972
      4.24716      6.91770      9.56730        -1.892618     -0.625281      0.251533
      3.86457      9.62187     12.19138         0.783765     -1.405910      1.856441
      6.83601      1.34310      6.80594         0.595405     -0.131155     -0.684273
      6.74427      4.13168      9.52006         0.726692     -0.514473      0.707964
      6.80041      6.70920     12.29485         0.767804      2.948220      0.243889
      6.86788      9.56972     14.94497        -0.217264     -0.565479      1.337853
      9.44967      1.54774      9.49365         0.565439     -2.013855      0.757456
      9.45110      4.20608     12.29932         1.890157      0.145929      1.714526
      9.69195      6.80920     14.99093        -1.773897      2.017996      0.918700
      9.58358      9.56927     17.77668         1.036905     -1.252270     -0.970544
      4.16570      4.20680      1.45884        -0.510439     -0.361192     -0.444236
      4.09064      6.92528      4.16327        -0.691344     -0.766629     -1.036468
      3.94217      9.50882      6.85780         2.774868      0.371017     -0.318006
      4.18190     12.31949      9.55632        -1.733689     -0.835987      0.533532
      6.76229      4.25023      4.02160         0.622558     -1.763432      0.966288
      6.81594      6.81706      6.84026         0.659888     -0.043078     -0.088532
      6.78557      9.73154      9.56895        -0.926410     -0.743254      0.487301
      6.85616     12.22947     12.36022        -1.171806      1.246127     -0.834477
      9.52150      4.19050      6.82377         1.283031     -0.555717      1.019136
      9.59973      6.87050      9.60598         0.188773     -0.828500      0.302281
      9.59376      9.56713     12.26384        -0.857861      0.024799      0.418710
      9.51747     12.49591     15.17078         0.056223     -2.451657     -2.143010
     12.33735      4.11259      9.53043         0.060744     -1.228530      0.071345
     12.19262      6.78521     12.30540         0.845086      0.291923     -0.103049
     12.27586      9.51003     15.03019         0.863086      1.062110      0.101056
     12.35468     12.20600     17.91159        -1.841535      1.119650     -2.546680
      7.02107      6.83863      1.40202        -0.791050      0.769853      0.538845
      6.91492      9.51703      4.22313        -0.277195      1.272091     -0.838279
      6.80211     12.23990      6.73415         0.464862      1.430994      1.571702
      6.79161     15.08757      9.56322         0.883539      0.627675      0.746968
      9.61166      6.83300      4.12808        -0.269297     -1.340952      0.082749
      9.47553      9.58023      6.77090         1.266126     -0.563679      1.271588
      9.54480     12.27761      9.61607        -1.785027      1.171767     -0.448360
      9.56281     15.13911     12.23478         1.243945     -1.486951      0.541612
     12.13051      6.90891      6.75325         1.438532     -1.692631      0.137226
     12.30664      9.57599      9.56645        -0.656708      0.179067      0.435022
     12.13678     12.18784     12.42076         1.853910     -0.035682     -2.159826
     12.36036     14.92348     15.10264        -0.251177     -0.308098     -1.839043
     15.00677      6.73113      9.51388        -0.078374      0.542715      0.095926
     14.97040      9.66193     12.27748         0.495591     -1.872041      0.734597
     14.97046     12.41912     15.09961         0.066446     -0.649782     -0.529609
     15.13695     15.05411     17.74124        -0.209929     -0.631745     -0.713880
      9.53224      9.60666      1.26825         1.162628     -0.199702      0.217243
      9.43634     12.32914      3.98490         1.648781      1.101654      1.093747
      9.63931     15.12810      6.85451         0.619340     -0.787859     -0.885275
      9.55227     17.87146      9.60646        -0.033734     -1.382457     -0.895001
     12.19608      9.48999      4.15470         0.363923      0.844354     -0.413612
     12.28567     12.26657      6.76774        -0.284309      0.389282      1.393587
     12.30497     14.90594      9.55265        -0.083966      2.342172      0.227876
     12.27481     17.76291     12.33545        -0.464855      0.641758     -0.444683
     15.03280      9.26815      6.88963        -0.749171      2.866533     -1.114690
     15.04724     12.34152      9.48963        -0.376421     -2.077366      0.906256
     15.10715     15.02085     12.44376        -1.755750      1.413810     -3.028146
     15.05663     17.68249     14.96190        -0.704362      0.793367      0.188185
     17.76137      9.69375      9.47649        -0.170850     -1.113052      0.513777
     17.64498     12.27814     12.25976         2.091081      0.968408      1.296779
     17.81199     15.17340     15.00479         0.041699     -1.026435     -0.879993
     17.74734     17.66725     17.69973         0.054694      0.509521      1.595428
 -----------------------------------------------------------------------------------
    total drift:                               -0.000004     -0.000008      0.000006


--------------------------------------------------------------------------------------------------------



  FREE ENERGIE OF THE ION-ELECTRON SYSTEM (eV)
  ---------------------------------------------------
  free  energy   TOTEN  =      -679.32173281 eV

  energy  without entropy=     -679.32173281  energy(sigma->0) =     -679.32173281
 


--------------------------------------------------------------------------------------------------------


    POTLOK:  cpu time    0.9940: real time    0.9941


--------------------------------------------------------------------------------------------------------


     LOOP+:  cpu time 1681.0966: real time 1681.8396
    4ORBIT:  cpu time    0.0000: real time    0.0000

 total amount of memory used by VASP MPI-rank0   221701. kBytes
=======================================================================

   base      :      30000. kBytes
   nonl-proj :      10690. kBytes
   fftplans  :      66746. kBytes
   grid      :      26864. kBytes
   one-center:         24. kBytes
   wavefun   :      87377. kBytes
 
  
  
 General timing and accounting informations for this job:
 ========================================================
  
                  Total CPU time used (sec):     1705.088
                            User time (sec):     1703.673
                          System time (sec):        1.416
                         Elapsed time (sec):     1706.787
  
                   Maximum memory used (kb):      337976.
                   Average memory used (kb):           0.
  
                          Minor page faults:       229063
                          Major page faults:            0
                 Voluntary context switches:         1337
