<?xml version="1.0" encoding="ISO-8859-1"?>
<modeling>
 <generator>
  <i name="program" type="string">vasp </i>
  <i name="version" type="string">5.4.4.18Apr17-6-g9f103f2a35  </i>
  <i name="subversion" type="string">(build Nov 08 2017 09:05:29) complex            parallel </i>
  <i name="platform" type="string">Intel_17.33 </i>
  <i name="date" type="string">2020 07 18 </i>
  <i name="time" type="string">18:10:55 </i>
 </generator>
 <incar>
  <i type="string" name="SYSTEM">potpaw_PBE@./ARUN.APL1ZEROSTATE</i>
  <i type="string" name="PREC">accurate</i>
  <i type="string" name="ALGO">Normal</i>
  <i type="int" name="NSIM">     4</i>
  <i type="logical" name="ADDGRID"> T  </i>
  <i type="int" name="NELM">   120</i>
  <i type="int" name="NELMIN">     4</i>
  <i name="EDIFF">      0.00000001</i>
  <i type="int" name="NSW">     0</i>
  <i type="int" name="ISYM">     2</i>
  <i name="ENMAX">    500.00000000</i>
  <i type="logical" name="LREAL"> F  </i>
  <i type="logical" name="LPLANE"> T  </i>
  <i type="int" name="ISMEAR">     0</i>
  <i name="SIGMA">      0.01000000</i>
  <i type="logical" name="LWAVE"> F  </i>
  <i type="logical" name="LCHARG"> F  </i>
  <i type="logical" name="LELF"> F  </i>
  <i type="logical" name="LAECHG"> F  </i>
  <v type="int" name="KPOINT_BSE">    -1     0     0     0</v>
  <i type="int" name="NELM">   120</i>
 </incar>
 <structure name="primitive_cell" >
  <crystal>
   <varray name="basis" >
    <v>       0.00000000      10.93733369      10.93733369 </v>
    <v>      10.93733369       0.00000000      10.93733369 </v>
    <v>      10.93733369      10.93733369       0.00000000 </v>
   </varray>
   <i name="volume">   2616.76295363 </i>
   <varray name="rec_basis" >
    <v>      -0.04571498       0.04571498       0.04571498 </v>
    <v>       0.04571498      -0.04571498       0.04571498 </v>
    <v>       0.04571498       0.04571498      -0.04571498 </v>
   </varray>
  </crystal>
  <varray name="positions" >
   <v>      -0.01157416       0.01812328       0.00434110 </v>
   <v>      -0.18823881       0.05911949       0.06176599 </v>
   <v>       0.06219724       0.05724571       0.06856897 </v>
   <v>       0.06138026       0.05457596      -0.18304363 </v>
   <v>       0.07276552      -0.20476144       0.06874455 </v>
   <v>      -0.24993176       0.24816093      -0.00211289 </v>
   <v>      -0.00105340       0.25188550      -0.00237971 </v>
   <v>      -0.00064068       0.00377793       0.24656722 </v>
   <v>      -0.25544831      -0.00421070       0.24784457 </v>
   <v>       0.00371016       0.24547348      -0.25577908 </v>
   <v>       0.24345565      -0.00316959       0.01058792 </v>
   <v>      -0.25199179       0.00997850      -0.00570205 </v>
   <v>      -0.00557910      -0.24664874       0.24803632 </v>
   <v>       0.24380794       0.00624157      -0.24977657 </v>
   <v>      -0.00370447      -0.00416153      -0.24298404 </v>
   <v>      -0.17947666       0.29413399       0.05920380 </v>
   <v>       0.25884609      -0.24800677       0.00466256 </v>
   <v>      -0.01321472      -0.25359722       0.00466737 </v>
   <v>      -0.18519671       0.31302607      -0.19074093 </v>
   <v>      -0.18796911      -0.17437474       0.30396302 </v>
   <v>       0.06622298       0.31364133      -0.19855386 </v>
   <v>      -0.19112299       0.06485742       0.31749392 </v>
   <v>      -0.18052925       0.05884713      -0.18548391 </v>
   <v>       0.31441337       0.04992545      -0.18716096 </v>
   <v>       0.05968841      -0.18832187       0.31632553 </v>
   <v>      -0.18799356      -0.18668498       0.06291123 </v>
   <v>       0.06440681      -0.19797154      -0.17810727 </v>
   <v>       0.32248746      -0.19796120       0.06207449 </v>
   <v>       0.31510994      -0.19420059      -0.19251988 </v>
   <v>      -0.23487654       0.25007031       0.23192095 </v>
   <v>      -0.24637903       0.24337302      -0.24495257 </v>
   <v>       0.24397688      -0.23672007       0.24135785 </v>
   <v>       0.25781851       0.24496291      -0.25410701 </v>
   <v>       0.06515058       0.30666120       0.05878414 </v>
   <v>      -0.24896786      -0.26450196       0.25617867 </v>
   <v>       0.25348232      -0.24459524      -0.25510264 </v>
   <v>      -0.43201665       0.05902540       0.30140741 </v>
   <v>       0.30733059       0.06218540       0.05800811 </v>
   <v>      -0.44054779       0.31528522       0.07303289 </v>
   <v>       0.06168899       0.31574131      -0.43694761 </v>
   <v>       0.05575286       0.07243401      -0.43049745 </v>
   <v>       0.06856983       0.06481196       0.31605786 </v>
   <v>      -0.44053235       0.06312720       0.05673762 </v>
   <v>       0.31201569       0.07410537      -0.44187420 </v>
   <v>       0.06824180      -0.44434489       0.31489557 </v>
   <v>       0.06002508      -0.43775869       0.06277475 </v>
   <v>       0.31577475      -0.44535629       0.06198458 </v>
   <v>      -0.24345730       0.49427463       0.00084094 </v>
   <v>      -0.25064766       0.49333561      -0.25136208 </v>
   <v>      -0.23331603      -0.00364760       0.49466092 </v>
   <v>      -0.00350811      -0.49953730      -0.25329093 </v>
   <v>      -0.49494579       0.23994157       0.00024288 </v>
   <v>      -0.00104515       0.25371887       0.24845988 </v>
   <v>       0.49552799       0.25620778       0.25252747 </v>
   <v>       0.25481587       0.24685876      -0.00150547 </v>
   <v>      -0.24414586      -0.24680185       0.49255872 </v>
   <v>      -0.01511506      -0.24973949      -0.49936368 </v>
   <v>       0.49756306       0.00228052       0.25325710 </v>
   <v>       0.26212123      -0.00606465       0.24458117 </v>
   <v>       0.24945898       0.25247373       0.49807669 </v>
   <v>      -0.00271475      -0.48881040       0.25416080 </v>
   <v>      -0.00917689       0.25832455       0.49851892 </v>
   <v>      -0.25654836      -0.00019748      -0.24361252 </v>
   <v>      -0.42788050       0.30276956       0.31763502 </v>
   <v>      -0.24396248      -0.24682770      -0.01308215 </v>
   <v>      -0.49239232      -0.00795901      -0.24513091 </v>
   <v>       0.24189222      -0.49089807      -0.00729718 </v>
   <v>       0.25677945       0.01455958       0.49233732 </v>
   <v>      -0.18931218       0.31940700       0.30745175 </v>
   <v>       0.25275840      -0.49822929       0.24951719 </v>
   <v>      -0.19597574      -0.43605799      -0.18731473 </v>
   <v>      -0.00448721      -0.24919697      -0.24945168 </v>
   <v>       0.30851432       0.31026015      -0.18698226 </v>
   <v>      -0.18576669       0.30439220      -0.43006516 </v>
   <v>      -0.49426618      -0.25353556       0.01184722 </v>
   <v>      -0.49679359      -0.25705610      -0.25475323 </v>
   <v>       0.31431799       0.30474537      -0.43839759 </v>
   <v>       0.31534151      -0.19025928       0.30502985 </v>
   <v>      -0.43933507      -0.18645482       0.30883656 </v>
   <v>      -0.44439745       0.31779579      -0.19275293 </v>
   <v>      -0.19274629      -0.18517241      -0.43085700 </v>
   <v>      -0.17030893      -0.44262708       0.31280934 </v>
   <v>       0.31437078      -0.43609605       0.31379913 </v>
   <v>      -0.43467952      -0.19343277      -0.17801743 </v>
   <v>       0.31858837      -0.19605919      -0.43519806 </v>
   <v>      -0.19451883      -0.18719556      -0.19016563 </v>
   <v>       0.31012633      -0.44248952      -0.18174209 </v>
   <v>      -0.49630297       0.49849194       0.00295953 </v>
   <v>      -0.00713108      -0.49168431      -0.00180868 </v>
   <v>       0.48828639      -0.01049457       0.01576108 </v>
   <v>       0.00727337      -0.00079897      -0.49203839 </v>
   <v>       0.49882193      -0.00901369      -0.49180943 </v>
   <v>      -0.01516033      -0.48888361       0.49605475 </v>
   <v>      -0.19327662      -0.44030542       0.06823577 </v>
   <v>       0.07001882      -0.45256987      -0.43833769 </v>
   <v>      -0.44211082      -0.43377117       0.05553258 </v>
   <v>      -0.18356815       0.05793272      -0.43697635 </v>
   <v>      -0.44355989       0.05926320      -0.43734675 </v>
   <v>       0.05660627      -0.18675228      -0.44117896 </v>
   <v>      -0.43507896      -0.42718852      -0.19156549 </v>
   <v>      -0.42635616      -0.19308751      -0.43816390 </v>
   <v>       0.05142831      -0.42150977      -0.20404154 </v>
   <v>      -0.43572651       0.06243392      -0.18111228 </v>
   <v>      -0.19241002      -0.42675617      -0.44313642 </v>
   <v>      -0.44647479      -0.18290466       0.06903950 </v>
   <v>       0.49807124       0.48556465       0.25698024 </v>
   <v>      -0.23765268       0.49466326       0.24696358 </v>
   <v>      -0.24187653       0.24929145       0.49876828 </v>
   <v>       0.49685232       0.25609232       0.49682762 </v>
   <v>       0.49005314       0.49495289      -0.23654368 </v>
   <v>       0.24901935      -0.49803245      -0.25529346 </v>
   <v>      -0.48946290       0.25501239      -0.26168355 </v>
   <v>       0.25126477      -0.25321006       0.49435862 </v>
   <v>       0.24979156      -0.49417677       0.49694594 </v>
   <v>       0.32633445       0.29600481       0.06667235 </v>
   <v>      -0.25573072      -0.49202914       0.48718410 </v>
   <v>      -0.49940568      -0.25101208      -0.49468033 </v>
   <v>       0.49694813      -0.24268168       0.24770257 </v>
   <v>       0.06900909       0.29868599       0.31958959 </v>
   <v>       0.31275356       0.31265139       0.31052987 </v>
   <v>       0.31990926       0.06073809       0.31326899 </v>
   <v>      -0.25491356      -0.25094083      -0.24319620 </v>
   <v>       0.25316564       0.23914580       0.25876777 </v>
   <v>      -0.43547099       0.31466813      -0.44198732 </v>
   <v>      -0.44057652      -0.43814111       0.31529853 </v>
   <v>       0.31249857      -0.43783819      -0.43696624 </v>
   <v>      -0.42985141      -0.43451911      -0.45581513 </v>
   <v>      -0.49584916       0.48771927      -0.49776692 </v>
  </varray>
 </structure>
 <varray name="primitive_index" >
  <v type="int" >        1 </v>
  <v type="int" >       68 </v>
  <v type="int" >       65 </v>
  <v type="int" >      113 </v>
  <v type="int" >       77 </v>
  <v type="int" >        8 </v>
  <v type="int" >        5 </v>
  <v type="int" >       17 </v>
  <v type="int" >       20 </v>
  <v type="int" >       53 </v>
  <v type="int" >        2 </v>
  <v type="int" >        4 </v>
  <v type="int" >       29 </v>
  <v type="int" >       50 </v>
  <v type="int" >       49 </v>
  <v type="int" >       72 </v>
  <v type="int" >       14 </v>
  <v type="int" >       13 </v>
  <v type="int" >      120 </v>
  <v type="int" >       96 </v>
  <v type="int" >      117 </v>
  <v type="int" >       84 </v>
  <v type="int" >      116 </v>
  <v type="int" >      114 </v>
  <v type="int" >       93 </v>
  <v type="int" >       80 </v>
  <v type="int" >      125 </v>
  <v type="int" >       78 </v>
  <v type="int" >      126 </v>
  <v type="int" >       24 </v>
  <v type="int" >       56 </v>
  <v type="int" >       30 </v>
  <v type="int" >       54 </v>
  <v type="int" >       69 </v>
  <v type="int" >       32 </v>
  <v type="int" >       62 </v>
  <v type="int" >       83 </v>
  <v type="int" >       66 </v>
  <v type="int" >       71 </v>
  <v type="int" >      101 </v>
  <v type="int" >       97 </v>
  <v type="int" >       81 </v>
  <v type="int" >       67 </v>
  <v type="int" >       98 </v>
  <v type="int" >       89 </v>
  <v type="int" >       73 </v>
  <v type="int" >       74 </v>
  <v type="int" >       12 </v>
  <v type="int" >       60 </v>
  <v type="int" >       36 </v>
  <v type="int" >       57 </v>
  <v type="int" >        7 </v>
  <v type="int" >       21 </v>
  <v type="int" >       23 </v>
  <v type="int" >        6 </v>
  <v type="int" >       48 </v>
  <v type="int" >       45 </v>
  <v type="int" >       19 </v>
  <v type="int" >       18 </v>
  <v type="int" >       38 </v>
  <v type="int" >       25 </v>
  <v type="int" >       37 </v>
  <v type="int" >       52 </v>
  <v type="int" >       87 </v>
  <v type="int" >       16 </v>
  <v type="int" >       51 </v>
  <v type="int" >       10 </v>
  <v type="int" >       34 </v>
  <v type="int" >       88 </v>
  <v type="int" >       26 </v>
  <v type="int" >      124 </v>
  <v type="int" >       61 </v>
  <v type="int" >      118 </v>
  <v type="int" >      104 </v>
  <v type="int" >       15 </v>
  <v type="int" >       63 </v>
  <v type="int" >      102 </v>
  <v type="int" >       94 </v>
  <v type="int" >       95 </v>
  <v type="int" >      119 </v>
  <v type="int" >      112 </v>
  <v type="int" >       92 </v>
  <v type="int" >       90 </v>
  <v type="int" >      127 </v>
  <v type="int" >      110 </v>
  <v type="int" >      128 </v>
  <v type="int" >      122 </v>
  <v type="int" >       11 </v>
  <v type="int" >        9 </v>
  <v type="int" >        3 </v>
  <v type="int" >       33 </v>
  <v type="int" >       35 </v>
  <v type="int" >       41 </v>
  <v type="int" >       76 </v>
  <v type="int" >      105 </v>
  <v type="int" >       75 </v>
  <v type="int" >      100 </v>
  <v type="int" >       99 </v>
  <v type="int" >      109 </v>
  <v type="int" >      123 </v>
  <v type="int" >      111 </v>
  <v type="int" >      121 </v>
  <v type="int" >      115 </v>
  <v type="int" >      108 </v>
  <v type="int" >       79 </v>
  <v type="int" >       27 </v>
  <v type="int" >       28 </v>
  <v type="int" >       40 </v>
  <v type="int" >       39 </v>
  <v type="int" >       59 </v>
  <v type="int" >       58 </v>
  <v type="int" >       55 </v>
  <v type="int" >       46 </v>
  <v type="int" >       42 </v>
  <v type="int" >       70 </v>
  <v type="int" >       44 </v>
  <v type="int" >       47 </v>
  <v type="int" >       31 </v>
  <v type="int" >       85 </v>
  <v type="int" >       86 </v>
  <v type="int" >       82 </v>
  <v type="int" >       64 </v>
  <v type="int" >       22 </v>
  <v type="int" >      103 </v>
  <v type="int" >       91 </v>
  <v type="int" >      106 </v>
  <v type="int" >      107 </v>
  <v type="int" >       43 </v>
 </varray>
 <kpoints>
  <generation param="Gamma">
   <v type="int" name="divisions">       2        2        2 </v>
   <v name="usershift">      0.00000000       0.00000000       0.00000000 </v>
   <v name="genvec1">      0.50000000       0.00000000       0.00000000 </v>
   <v name="genvec2">      0.00000000       0.50000000       0.00000000 </v>
   <v name="genvec3">      0.00000000       0.00000000       0.50000000 </v>
   <v name="shift">      0.00000000       0.00000000       0.00000000 </v>
  </generation>
  <varray name="kpointlist" >
   <v>       0.00000000       0.00000000       0.00000000 </v>
   <v>       0.50000000       0.00000000       0.00000000 </v>
   <v>       0.00000000       0.50000000       0.00000000 </v>
   <v>       0.50000000       0.50000000       0.00000000 </v>
   <v>       0.00000000       0.00000000       0.50000000 </v>
   <v>       0.50000000       0.00000000       0.50000000 </v>
   <v>       0.00000000       0.50000000       0.50000000 </v>
   <v>       0.50000000       0.50000000       0.50000000 </v>
  </varray>
  <varray name="weights" >
   <v>       0.12500000 </v>
   <v>       0.12500000 </v>
   <v>       0.12500000 </v>
   <v>       0.12500000 </v>
   <v>       0.12500000 </v>
   <v>       0.12500000 </v>
   <v>       0.12500000 </v>
   <v>       0.12500000 </v>
  </varray>
 </kpoints>
 <parameters>
  <separator name="general" >
   <i type="string" name="SYSTEM">potpaw_PBE@./ARUN.APL1ZEROSTATE</i>
   <i type="logical" name="LCOMPAT"> F  </i>
  </separator>
  <separator name="electronic" >
   <i type="string" name="PREC">accura</i>
   <i name="ENMAX">    500.00000000</i>
   <i name="ENAUG">    322.06900000</i>
   <i name="EDIFF">      0.00000001</i>
   <i type="int" name="IALGO">    38</i>
   <i type="int" name="IWAVPR">    10</i>
   <i type="int" name="NBANDS">   322</i>
   <i name="NELECT">    512.00000000</i>
   <i type="int" name="TURBO">     0</i>
   <i type="int" name="IRESTART">     0</i>
   <i type="int" name="NREBOOT">     0</i>
   <i type="int" name="NMIN">     0</i>
   <i name="EREF">      0.00000000</i>
   <separator name="electronic smearing" >
    <i type="int" name="ISMEAR">     0</i>
    <i name="SIGMA">      0.01000000</i>
    <i name="KSPACING">      0.50000000</i>
    <i type="logical" name="KGAMMA"> T  </i>
   </separator>
   <separator name="electronic projectors" >
    <i type="logical" name="LREAL"> F  </i>
    <v name="ROPT">      0.00000000</v>
    <i type="int" name="LMAXPAW">  -100</i>
    <i type="int" name="LMAXMIX">     2</i>
    <i type="logical" name="NLSPLINE"> F  </i>
   </separator>
   <separator name="electronic startup" >
    <i type="int" name="ISTART">     0</i>
    <i type="int" name="ICHARG">     2</i>
    <i type="int" name="INIWAV">     1</i>
   </separator>
   <separator name="electronic spin" >
    <i type="int" name="ISPIN">     1</i>
    <i type="logical" name="LNONCOLLINEAR"> F  </i>
    <v name="MAGMOM">      1.00000000      1.00000000      1.00000000      1.00000000      1.00000000      1.00000000      1.00000000      1.00000000      1.00000000      1.00000000      1.00000000      1.00000000      1.00000000      1.00000000      1.00000000      1.00000000      1.00000000      1.00000000      1.00000000      1.00000000
      1.00000000      1.00000000      1.00000000      1.00000000      1.00000000      1.00000000      1.00000000      1.00000000      1.00000000      1.00000000      1.00000000      1.00000000      1.00000000      1.00000000      1.00000000      1.00000000      1.00000000      1.00000000      1.00000000      1.00000000
      1.00000000      1.00000000      1.00000000      1.00000000      1.00000000      1.00000000      1.00000000      1.00000000      1.00000000      1.00000000      1.00000000      1.00000000      1.00000000      1.00000000      1.00000000      1.00000000      1.00000000      1.00000000      1.00000000      1.00000000
      1.00000000      1.00000000      1.00000000      1.00000000      1.00000000      1.00000000      1.00000000      1.00000000      1.00000000      1.00000000      1.00000000      1.00000000      1.00000000      1.00000000      1.00000000      1.00000000      1.00000000      1.00000000      1.00000000      1.00000000
      1.00000000      1.00000000      1.00000000      1.00000000      1.00000000      1.00000000      1.00000000      1.00000000      1.00000000      1.00000000      1.00000000      1.00000000      1.00000000      1.00000000      1.00000000      1.00000000      1.00000000      1.00000000      1.00000000      1.00000000
      1.00000000      1.00000000      1.00000000      1.00000000      1.00000000      1.00000000      1.00000000      1.00000000      1.00000000      1.00000000      1.00000000      1.00000000      1.00000000      1.00000000      1.00000000      1.00000000      1.00000000      1.00000000      1.00000000      1.00000000
      1.00000000      1.00000000      1.00000000      1.00000000      1.00000000      1.00000000      1.00000000      1.00000000</v>
    <i name="NUPDOWN">     -1.00000000</i>
    <i type="logical" name="LSORBIT"> F  </i>
    <v name="SAXIS">      0.00000000      0.00000000      1.00000000</v>
    <i type="logical" name="LSPIRAL"> F  </i>
    <v name="QSPIRAL">      0.00000000      0.00000000      0.00000000</v>
    <i type="logical" name="LZEROZ"> F  </i>
   </separator>
   <separator name="electronic exchange-correlation" >
    <i type="logical" name="LASPH"> F  </i>
    <i type="logical" name="LMETAGGA"> F  </i>
   </separator>
   <separator name="electronic convergence" >
    <i type="int" name="NELM">   120</i>
    <i type="int" name="NELMDL">    -5</i>
    <i type="int" name="NELMIN">     4</i>
    <i name="ENINI">    500.00000000</i>
    <separator name="electronic convergence detail" >
     <i type="logical" name="LDIAG"> T  </i>
     <i type="logical" name="LSUBROT"> F  </i>
     <i name="WEIMIN">      0.00000000</i>
     <i name="EBREAK">      0.00000000</i>
     <i name="DEPER">      0.30000000</i>
     <i type="int" name="NRMM">     4</i>
     <i name="TIME">      0.40000000</i>
    </separator>
   </separator>
   <separator name="electronic mixer" >
    <i name="AMIX">      0.40000000</i>
    <i name="BMIX">      1.00000000</i>
    <i name="AMIN">      0.10000000</i>
    <i name="AMIX_MAG">      1.60000000</i>
    <i name="BMIX_MAG">      1.00000000</i>
    <separator name="electronic mixer details" >
     <i type="int" name="IMIX">     4</i>
     <i type="logical" name="MIXFIRST"> F  </i>
     <i type="int" name="MAXMIX">   -45</i>
     <i name="WC">    100.00000000</i>
     <i type="int" name="INIMIX">     1</i>
     <i type="int" name="MIXPRE">     1</i>
     <i type="int" name="MREMOVE">     5</i>
    </separator>
   </separator>
   <separator name="electronic dipolcorrection" >
    <i type="logical" name="LDIPOL"> F  </i>
    <i type="logical" name="LMONO"> F  </i>
    <i type="int" name="IDIPOL">     0</i>
    <i name="EPSILON">      1.00000000</i>
    <v name="DIPOL">   -100.00000000   -100.00000000   -100.00000000</v>
    <i name="EFIELD">      0.00000000</i>
   </separator>
  </separator>
  <separator name="grids" >
   <i type="int" name="NGX">   120</i>
   <i type="int" name="NGY">   120</i>
   <i type="int" name="NGZ">   120</i>
   <i type="int" name="NGXF">   240</i>
   <i type="int" name="NGYF">   240</i>
   <i type="int" name="NGZF">   240</i>
   <i type="logical" name="ADDGRID"> T  </i>
  </separator>
  <separator name="ionic" >
   <i type="int" name="NSW">     0</i>
   <i type="int" name="IBRION">    -1</i>
   <i type="int" name="MDALGO">     0</i>
   <i type="int" name="ISIF">     2</i>
   <i name="PSTRESS">      0.00000000</i>
   <i name="EDIFFG">      0.00000010</i>
   <i type="int" name="NFREE">     0</i>
   <i name="POTIM">      0.50000000</i>
   <i name="SMASS">     -3.00000000</i>
   <i name="SCALEE">      1.00000000</i>
  </separator>
  <separator name="ionic md" >
   <i name="TEBEG">      0.00010000</i>
   <i name="TEEND">      0.00010000</i>
   <i type="int" name="NBLOCK">     1</i>
   <i type="int" name="KBLOCK">     1</i>
   <i type="int" name="NPACO">   256</i>
   <i name="APACO">     16.00000000</i>
  </separator>
  <separator name="symmetry" >
   <i type="int" name="ISYM">     2</i>
   <i name="SYMPREC">      0.00001000</i>
  </separator>
  <separator name="dos" >
   <i type="int" name="LORBIT">     0</i>
   <v name="RWIGS">     -1.00000000</v>
   <i type="int" name="NEDOS">   301</i>
   <i name="EMIN">     10.00000000</i>
   <i name="EMAX">    -10.00000000</i>
   <i name="EFERMI">      0.00000000</i>
  </separator>
  <separator name="writing" >
   <i type="int" name="NWRITE">     2</i>
   <i type="logical" name="LWAVE"> F  </i>
   <i type="logical" name="LDOWNSAMPLE"> F  </i>
   <i type="logical" name="LCHARG"> F  </i>
   <i type="logical" name="LPARD"> F  </i>
   <i type="logical" name="LVTOT"> F  </i>
   <i type="logical" name="LVHAR"> F  </i>
   <i type="logical" name="LELF"> F  </i>
   <i type="logical" name="LOPTICS"> F  </i>
   <v name="STM">      0.00000000      0.00000000      0.00000000      0.00000000      0.00000000      0.00000000      0.00000000</v>
  </separator>
  <separator name="performance" >
   <i type="int" name="NPAR">     2</i>
   <i type="int" name="NSIM">     4</i>
   <i type="int" name="NBLK">    -1</i>
   <i type="logical" name="LPLANE"> T  </i>
   <i type="logical" name="LSCALAPACK"> T  </i>
   <i type="logical" name="LSCAAWARE"> F  </i>
   <i type="logical" name="LSCALU"> F  </i>
   <i type="logical" name="LASYNC"> F  </i>
   <i type="logical" name="LORBITALREAL"> F  </i>
  </separator>
  <separator name="miscellaneous" >
   <i type="int" name="IDIOT">     3</i>
   <i type="int" name="ISPECIAL">     0</i>
   <i type="logical" name="LMUSIC"> F  </i>
   <v name="POMASS">     28.08500000</v>
   <v name="DARWINR">      0.00000000</v>
   <v name="DARWINV">      1.00000000</v>
   <i type="logical" name="LCORR"> T  </i>
  </separator>
  <i type="logical" name="GGA_COMPAT"> T  </i>
  <i type="logical" name="LBERRY"> F  </i>
  <i type="int" name="ICORELEVEL">     0</i>
  <i type="logical" name="LDAU"> F  </i>
  <i type="int" name="I_CONSTRAINED_M">     0</i>
  <separator name="electronic exchange-correlation" >
   <i type="string" name="GGA">--</i>
   <i type="int" name="VOSKOWN">     0</i>
   <i type="logical" name="LHFCALC"> F  </i>
   <i type="string" name="PRECFOCK"></i>
   <i type="logical" name="LSYMGRAD"> F  </i>
   <i type="logical" name="LHFONE"> F  </i>
   <i type="logical" name="LRHFCALC"> F  </i>
   <i type="logical" name="LTHOMAS"> F  </i>
   <i type="logical" name="LMODELHF"> F  </i>
   <i name="ENCUT4O">     -1.00000000</i>
   <i type="int" name="EXXOEP">     0</i>
   <i type="int" name="FOURORBIT">     0</i>
   <i name="AEXX">      0.00000000</i>
   <i name="HFALPHA">      0.00000000</i>
   <i name="MCALPHA">      0.00000000</i>
   <i name="ALDAX">      1.00000000</i>
   <i name="AGGAX">      1.00000000</i>
   <i name="ALDAC">      1.00000000</i>
   <i name="AGGAC">      1.00000000</i>
   <i type="int" name="NKREDX">     1</i>
   <i type="int" name="NKREDY">     1</i>
   <i type="int" name="NKREDZ">     1</i>
   <i type="logical" name="SHIFTRED"> F  </i>
   <i type="logical" name="ODDONLY"> F  </i>
   <i type="logical" name="EVENONLY"> F  </i>
   <i type="int" name="LMAXFOCK">     0</i>
   <i type="int" name="NMAXFOCKAE">     0</i>
   <i type="logical" name="LFOCKAEDFT"> F  </i>
   <i name="HFSCREEN">      0.00000000</i>
   <i name="HFSCREENC">      0.00000000</i>
   <i type="int" name="NBANDSGWLOW">     0</i>
  </separator>
  <separator name="vdW DFT" >
   <i type="logical" name="LUSE_VDW"> F  </i>
   <i name="Zab_VDW">     -0.84910000</i>
   <i name="PARAM1">      0.12340000</i>
   <i name="PARAM2">      1.00000000</i>
   <i name="PARAM3">      0.00000000</i>
  </separator>
  <separator name="model GW" >
   <i type="int" name="MODEL_GW">     0</i>
   <i name="MODEL_EPS0">     12.26607635</i>
   <i name="MODEL_ALPHA">      1.00000000</i>
  </separator>
  <separator name="linear response parameters" >
   <i type="logical" name="LEPSILON"> F  </i>
   <i type="logical" name="LRPA"> F  </i>
   <i type="logical" name="LNABLA"> F  </i>
   <i type="logical" name="LVEL"> F  </i>
   <i type="int" name="KINTER">     0</i>
   <i name="CSHIFT">      0.10000000</i>
   <i name="OMEGAMAX">     -1.00000000</i>
   <i name="DEG_THRESHOLD">      0.00200000</i>
   <i name="RTIME">     -0.10000000</i>
   <i name="WPLASMAI">      0.00000000</i>
   <v name="DFIELD">      0.00000000      0.00000000      0.00000000</v>
   <v name="WPLASMA">      0.00000000      0.00000000      0.00000000      0.00000000      0.00000000      0.00000000      0.00000000      0.00000000      0.00000000</v>
  </separator>
  <separator name="orbital magnetization" >
   <i type="logical" name="NUCIND"> F  </i>
   <v name="MAGPOS">      0.00000000      0.00000000      0.00000000</v>
   <i type="logical" name="LNICSALL"> T  </i>
   <i type="logical" name="ORBITALMAG"> F  </i>
   <i type="logical" name="LMAGBLOCH"> F  </i>
   <i type="logical" name="LCHIMAG"> F  </i>
   <i type="logical" name="LGAUGE"> T  </i>
   <i type="int" name="MAGATOM">     0</i>
   <v name="MAGDIPOL">      0.00000000      0.00000000      0.00000000</v>
   <v name="AVECCONST">      0.00000000      0.00000000      0.00000000</v>
  </separator>
  <separator name="response functions" >
   <i type="logical" name="LADDER"> F  </i>
   <i type="logical" name="LRPAFORCE"> F  </i>
   <i type="logical" name="LFXC"> F  </i>
   <i type="logical" name="LHARTREE"> T  </i>
   <i type="int" name="IBSE">     0</i>
   <v type="int" name="KPOINT">    -1     0     0     0</v>
   <i type="logical" name="LTCTE"> F  </i>
   <i type="logical" name="LTETE"> F  </i>
   <i type="logical" name="LTRIPLET"> F  </i>
   <i type="logical" name="LFXCEPS"> F  </i>
   <i type="logical" name="LFXHEG"> F  </i>
   <i type="int" name="NATURALO">     2</i>
   <i type="logical" name="L2ORDER"> F  </i>
   <i type="logical" name="LMP2LT"> F  </i>
   <i type="logical" name="LUSEW"> F  </i>
   <i name="ENCUTGW">     -2.00000000</i>
   <i name="ENCUTGWSOFT">     -2.00000000</i>
   <i name="ENCUTLF">     -1.00000000</i>
   <i type="int" name="LMAXMP2">    -1</i>
   <i name="SCISSOR">      0.00000000</i>
   <i type="int" name="NOMEGA">     0</i>
   <i type="int" name="NOMEGAR">     0</i>
   <i type="int" name="NBANDSGW">    -1</i>
   <i type="int" name="NBANDSO">    -1</i>
   <i type="int" name="NBANDSV">    -1</i>
   <i type="int" name="NELM">   120</i>
   <i type="int" name="NELMHF">     1</i>
   <i type="int" name="DIM">     3</i>
   <i type="int" name="ANTIRES">     0</i>
   <i name="OMEGAMAX">    -30.00000000</i>
   <i name="OMEGAMIN">    -30.00000000</i>
   <i name="OMEGATL">   -200.00000000</i>
   <i type="int" name="OMEGAGRID">   140</i>
   <i name="CSHIFT">     -0.10000000</i>
   <i type="logical" name="SELFENERGY"> F  </i>
   <i type="logical" name="LSPECTRAL"> F  </i>
   <i type="logical" name="LSPECTRALGW"> F  </i>
   <i type="logical" name="LSINGLES"> F  </i>
   <i type="logical" name="LFERMIGW"> F  </i>
   <i type="logical" name="ODDONLYGW"> F  </i>
   <i type="logical" name="EVENONLYGW"> F  </i>
   <i type="int" name="NKREDLFX">     1</i>
   <i type="int" name="NKREDLFY">     1</i>
   <i type="int" name="NKREDLFZ">     1</i>
   <i type="int" name="MAXMEM">  2800</i>
   <i type="int" name="TELESCOPE">     0</i>
   <i type="int" name="TAUPAR">     1</i>
   <i type="int" name="OMEGAPAR">    -1</i>
   <i name="LAMBDA">      1.00000000</i>
  </separator>
  <separator name="External order field" >
   <i name="OFIELD_KAPPA">      0.00000000</i>
   <v name="OFIELD_K">      0.00000000      0.00000000      0.00000000</v>
   <i name="OFIELD_Q6_NEAR">      0.00000000</i>
   <i name="OFIELD_Q6_FAR">      0.00000000</i>
   <i name="OFIELD_A">      0.00000000</i>
  </separator>
 </parameters>
 <atominfo>
  <atoms>     128 </atoms>
  <types>       1 </types>
  <array name="atoms" >
   <dimension dim="1">ion</dimension>
   <field type="string">element</field>
   <field type="int">atomtype</field>
   <set>
    <rc><c>Si</c><c>   1</c></rc>
    <rc><c>Si</c><c>   1</c></rc>
    <rc><c>Si</c><c>   1</c></rc>
    <rc><c>Si</c><c>   1</c></rc>
    <rc><c>Si</c><c>   1</c></rc>
    <rc><c>Si</c><c>   1</c></rc>
    <rc><c>Si</c><c>   1</c></rc>
    <rc><c>Si</c><c>   1</c></rc>
    <rc><c>Si</c><c>   1</c></rc>
    <rc><c>Si</c><c>   1</c></rc>
    <rc><c>Si</c><c>   1</c></rc>
    <rc><c>Si</c><c>   1</c></rc>
    <rc><c>Si</c><c>   1</c></rc>
    <rc><c>Si</c><c>   1</c></rc>
    <rc><c>Si</c><c>   1</c></rc>
    <rc><c>Si</c><c>   1</c></rc>
    <rc><c>Si</c><c>   1</c></rc>
    <rc><c>Si</c><c>   1</c></rc>
    <rc><c>Si</c><c>   1</c></rc>
    <rc><c>Si</c><c>   1</c></rc>
    <rc><c>Si</c><c>   1</c></rc>
    <rc><c>Si</c><c>   1</c></rc>
    <rc><c>Si</c><c>   1</c></rc>
    <rc><c>Si</c><c>   1</c></rc>
    <rc><c>Si</c><c>   1</c></rc>
    <rc><c>Si</c><c>   1</c></rc>
    <rc><c>Si</c><c>   1</c></rc>
    <rc><c>Si</c><c>   1</c></rc>
    <rc><c>Si</c><c>   1</c></rc>
    <rc><c>Si</c><c>   1</c></rc>
    <rc><c>Si</c><c>   1</c></rc>
    <rc><c>Si</c><c>   1</c></rc>
    <rc><c>Si</c><c>   1</c></rc>
    <rc><c>Si</c><c>   1</c></rc>
    <rc><c>Si</c><c>   1</c></rc>
    <rc><c>Si</c><c>   1</c></rc>
    <rc><c>Si</c><c>   1</c></rc>
    <rc><c>Si</c><c>   1</c></rc>
    <rc><c>Si</c><c>   1</c></rc>
    <rc><c>Si</c><c>   1</c></rc>
    <rc><c>Si</c><c>   1</c></rc>
    <rc><c>Si</c><c>   1</c></rc>
    <rc><c>Si</c><c>   1</c></rc>
    <rc><c>Si</c><c>   1</c></rc>
    <rc><c>Si</c><c>   1</c></rc>
    <rc><c>Si</c><c>   1</c></rc>
    <rc><c>Si</c><c>   1</c></rc>
    <rc><c>Si</c><c>   1</c></rc>
    <rc><c>Si</c><c>   1</c></rc>
    <rc><c>Si</c><c>   1</c></rc>
    <rc><c>Si</c><c>   1</c></rc>
    <rc><c>Si</c><c>   1</c></rc>
    <rc><c>Si</c><c>   1</c></rc>
    <rc><c>Si</c><c>   1</c></rc>
    <rc><c>Si</c><c>   1</c></rc>
    <rc><c>Si</c><c>   1</c></rc>
    <rc><c>Si</c><c>   1</c></rc>
    <rc><c>Si</c><c>   1</c></rc>
    <rc><c>Si</c><c>   1</c></rc>
    <rc><c>Si</c><c>   1</c></rc>
    <rc><c>Si</c><c>   1</c></rc>
    <rc><c>Si</c><c>   1</c></rc>
    <rc><c>Si</c><c>   1</c></rc>
    <rc><c>Si</c><c>   1</c></rc>
    <rc><c>Si</c><c>   1</c></rc>
    <rc><c>Si</c><c>   1</c></rc>
    <rc><c>Si</c><c>   1</c></rc>
    <rc><c>Si</c><c>   1</c></rc>
    <rc><c>Si</c><c>   1</c></rc>
    <rc><c>Si</c><c>   1</c></rc>
    <rc><c>Si</c><c>   1</c></rc>
    <rc><c>Si</c><c>   1</c></rc>
    <rc><c>Si</c><c>   1</c></rc>
    <rc><c>Si</c><c>   1</c></rc>
    <rc><c>Si</c><c>   1</c></rc>
    <rc><c>Si</c><c>   1</c></rc>
    <rc><c>Si</c><c>   1</c></rc>
    <rc><c>Si</c><c>   1</c></rc>
    <rc><c>Si</c><c>   1</c></rc>
    <rc><c>Si</c><c>   1</c></rc>
    <rc><c>Si</c><c>   1</c></rc>
    <rc><c>Si</c><c>   1</c></rc>
    <rc><c>Si</c><c>   1</c></rc>
    <rc><c>Si</c><c>   1</c></rc>
    <rc><c>Si</c><c>   1</c></rc>
    <rc><c>Si</c><c>   1</c></rc>
    <rc><c>Si</c><c>   1</c></rc>
    <rc><c>Si</c><c>   1</c></rc>
    <rc><c>Si</c><c>   1</c></rc>
    <rc><c>Si</c><c>   1</c></rc>
    <rc><c>Si</c><c>   1</c></rc>
    <rc><c>Si</c><c>   1</c></rc>
    <rc><c>Si</c><c>   1</c></rc>
    <rc><c>Si</c><c>   1</c></rc>
    <rc><c>Si</c><c>   1</c></rc>
    <rc><c>Si</c><c>   1</c></rc>
    <rc><c>Si</c><c>   1</c></rc>
    <rc><c>Si</c><c>   1</c></rc>
    <rc><c>Si</c><c>   1</c></rc>
    <rc><c>Si</c><c>   1</c></rc>
    <rc><c>Si</c><c>   1</c></rc>
    <rc><c>Si</c><c>   1</c></rc>
    <rc><c>Si</c><c>   1</c></rc>
    <rc><c>Si</c><c>   1</c></rc>
    <rc><c>Si</c><c>   1</c></rc>
    <rc><c>Si</c><c>   1</c></rc>
    <rc><c>Si</c><c>   1</c></rc>
    <rc><c>Si</c><c>   1</c></rc>
    <rc><c>Si</c><c>   1</c></rc>
    <rc><c>Si</c><c>   1</c></rc>
    <rc><c>Si</c><c>   1</c></rc>
    <rc><c>Si</c><c>   1</c></rc>
    <rc><c>Si</c><c>   1</c></rc>
    <rc><c>Si</c><c>   1</c></rc>
    <rc><c>Si</c><c>   1</c></rc>
    <rc><c>Si</c><c>   1</c></rc>
    <rc><c>Si</c><c>   1</c></rc>
    <rc><c>Si</c><c>   1</c></rc>
    <rc><c>Si</c><c>   1</c></rc>
    <rc><c>Si</c><c>   1</c></rc>
    <rc><c>Si</c><c>   1</c></rc>
    <rc><c>Si</c><c>   1</c></rc>
    <rc><c>Si</c><c>   1</c></rc>
    <rc><c>Si</c><c>   1</c></rc>
    <rc><c>Si</c><c>   1</c></rc>
    <rc><c>Si</c><c>   1</c></rc>
    <rc><c>Si</c><c>   1</c></rc>
    <rc><c>Si</c><c>   1</c></rc>
   </set>
  </array>
  <array name="atomtypes" >
   <dimension dim="1">type</dimension>
   <field type="int">atomspertype</field>
   <field type="string">element</field>
   <field>mass</field>
   <field>valence</field>
   <field type="string">pseudopotential</field>
   <set>
    <rc><c> 128</c><c>Si</c><c>     28.08500000</c><c>      4.00000000</c><c> PAW_PBE Si 05Jan2001                   </c></rc>
   </set>
  </array>
 </atominfo>
 <structure name="initialpos" >
  <crystal>
   <varray name="basis" >
    <v>       0.00000000      10.93733369      10.93733369 </v>
    <v>      10.93733369       0.00000000      10.93733369 </v>
    <v>      10.93733369      10.93733369       0.00000000 </v>
   </varray>
   <i name="volume">   2616.76295363 </i>
   <varray name="rec_basis" >
    <v>      -0.04571498       0.04571498       0.04571498 </v>
    <v>       0.04571498      -0.04571498       0.04571498 </v>
    <v>       0.04571498       0.04571498      -0.04571498 </v>
   </varray>
  </crystal>
  <varray name="positions" >
   <v>       0.98842584       0.01812328       0.00434110 </v>
   <v>       0.24345565       0.99683041       0.01058792 </v>
   <v>       0.48828639       0.98950543       0.01576108 </v>
   <v>       0.74800821       0.00997850       0.99429795 </v>
   <v>       0.99894660       0.25188550       0.99762029 </v>
   <v>       0.25481587       0.24685876       0.99849453 </v>
   <v>       0.50505421       0.23994157       0.00024288 </v>
   <v>       0.75006824       0.24816093       0.99788711 </v>
   <v>       0.99286892       0.50831569       0.99819132 </v>
   <v>       0.24189222       0.50910193       0.99270282 </v>
   <v>       0.50369703       0.49849194       0.00295953 </v>
   <v>       0.75654270       0.49427463       0.00084094 </v>
   <v>       0.98678528       0.74640278       0.00466737 </v>
   <v>       0.25884609       0.75199323       0.00466256 </v>
   <v>       0.50573382       0.74646444       0.01184722 </v>
   <v>       0.75603752       0.75317230       0.98691785 </v>
   <v>       0.99935932       0.00377793       0.24656722 </v>
   <v>       0.26212123       0.99393535       0.24458117 </v>
   <v>       0.49756306       0.00228052       0.25325710 </v>
   <v>       0.74455169       0.99578930       0.24784457 </v>
   <v>       0.99895485       0.25371887       0.24845988 </v>
   <v>       0.25316564       0.23914580       0.25876777 </v>
   <v>       0.49552799       0.25620778       0.25252747 </v>
   <v>       0.76512346       0.25007031       0.23192095 </v>
   <v>       0.99728525       0.51118960       0.25416080 </v>
   <v>       0.25275840       0.50177071       0.24951719 </v>
   <v>       0.49807124       0.48556465       0.25698024 </v>
   <v>       0.76234732       0.49466326       0.24696358 </v>
   <v>       0.99442090       0.75335126       0.24803632 </v>
   <v>       0.24397688       0.76327993       0.24135785 </v>
   <v>       0.49694813       0.75731832       0.24770257 </v>
   <v>       0.75103214       0.73549804       0.25617867 </v>
   <v>       0.00727337       0.99920103       0.50796161 </v>
   <v>       0.25677945       0.01455958       0.49233732 </v>
   <v>       0.49882193       0.99098631       0.50819057 </v>
   <v>       0.76668397       0.99635240       0.49466092 </v>
   <v>       0.99082311       0.25832455       0.49851892 </v>
   <v>       0.24945898       0.25247373       0.49807669 </v>
   <v>       0.49685232       0.25609232       0.49682762 </v>
   <v>       0.75812347       0.24929145       0.49876828 </v>
   <v>       0.98483967       0.51111639       0.49605475 </v>
   <v>       0.24979156       0.50582323       0.49694594 </v>
   <v>       0.50415084       0.48771927       0.50223308 </v>
   <v>       0.74426928       0.50797086       0.48718410 </v>
   <v>       0.98488494       0.75026051       0.50063632 </v>
   <v>       0.25126477       0.74678994       0.49435862 </v>
   <v>       0.50059432       0.74898792       0.50531967 </v>
   <v>       0.75585414       0.75319815       0.49255872 </v>
   <v>       0.99629553       0.99583847       0.75701596 </v>
   <v>       0.24380794       0.00624157       0.75022343 </v>
   <v>       0.50760768       0.99204099       0.75486909 </v>
   <v>       0.74345164       0.99980252       0.75638748 </v>
   <v>       0.00371016       0.24547348       0.74422092 </v>
   <v>       0.25781851       0.24496291       0.74589299 </v>
   <v>       0.51053710       0.25501239       0.73831645 </v>
   <v>       0.75362097       0.24337302       0.75504743 </v>
   <v>       0.99649189       0.50046270       0.74670907 </v>
   <v>       0.24901935       0.50196755       0.74470654 </v>
   <v>       0.49005314       0.49495289       0.76345632 </v>
   <v>       0.74935234       0.49333561       0.74863792 </v>
   <v>       0.99551279       0.75080303       0.75054832 </v>
   <v>       0.25348232       0.75540476       0.74489736 </v>
   <v>       0.50320641       0.74294390       0.74524677 </v>
   <v>       0.74508644       0.74905917       0.75680380 </v>
   <v>       0.06219724       0.05724571       0.06856897 </v>
   <v>       0.30733059       0.06218540       0.05800811 </v>
   <v>       0.55946765       0.06312720       0.05673762 </v>
   <v>       0.81176119       0.05911949       0.06176599 </v>
   <v>       0.06515058       0.30666120       0.05878414 </v>
   <v>       0.32633445       0.29600481       0.06667235 </v>
   <v>       0.55945221       0.31528522       0.07303289 </v>
   <v>       0.82052334       0.29413399       0.05920380 </v>
   <v>       0.06002508       0.56224131       0.06277475 </v>
   <v>       0.31577475       0.55464371       0.06198458 </v>
   <v>       0.55788918       0.56622883       0.05553258 </v>
   <v>       0.80672338       0.55969458       0.06823577 </v>
   <v>       0.07276552       0.79523856       0.06874455 </v>
   <v>       0.32248746       0.80203880       0.06207449 </v>
   <v>       0.55352521       0.81709534       0.06903950 </v>
   <v>       0.81200644       0.81331502       0.06291123 </v>
   <v>       0.06856983       0.06481196       0.31605786 </v>
   <v>       0.31990926       0.06073809       0.31326899 </v>
   <v>       0.56798335       0.05902540       0.30140741 </v>
   <v>       0.80887701       0.06485742       0.31749392 </v>
   <v>       0.06900909       0.29868599       0.31958959 </v>
   <v>       0.31275356       0.31265139       0.31052987 </v>
   <v>       0.57211950       0.30276956       0.31763502 </v>
   <v>       0.81068782       0.31940700       0.30745175 </v>
   <v>       0.06824180       0.55565511       0.31489557 </v>
   <v>       0.31437078       0.56390395       0.31379913 </v>
   <v>       0.55942348       0.56185889       0.31529853 </v>
   <v>       0.82969107       0.55737292       0.31280934 </v>
   <v>       0.05968841       0.81167813       0.31632553 </v>
   <v>       0.31534151       0.80974072       0.30502985 </v>
   <v>       0.56066493       0.81354518       0.30883656 </v>
   <v>       0.81203089       0.82562526       0.30396302 </v>
   <v>       0.05575286       0.07243401       0.56950255 </v>
   <v>       0.31201569       0.07410537       0.55812580 </v>
   <v>       0.55644011       0.05926320       0.56265325 </v>
   <v>       0.81643185       0.05793272       0.56302365 </v>
   <v>       0.06168899       0.31574131       0.56305239 </v>
   <v>       0.31431799       0.30474537       0.56160241 </v>
   <v>       0.56452901       0.31466813       0.55801268 </v>
   <v>       0.81423331       0.30439220       0.56993484 </v>
   <v>       0.07001882       0.54743013       0.56166231 </v>
   <v>       0.31249857       0.56216181       0.56303376 </v>
   <v>       0.57014859       0.56548089       0.54418487 </v>
   <v>       0.80758998       0.57324383       0.55686358 </v>
   <v>       0.05660627       0.81324772       0.55882104 </v>
   <v>       0.31858837       0.80394081       0.56480194 </v>
   <v>       0.57364384       0.80691249       0.56183610 </v>
   <v>       0.80725371       0.81482759       0.56914300 </v>
   <v>       0.06138026       0.05457596       0.81695637 </v>
   <v>       0.31441337       0.04992545       0.81283904 </v>
   <v>       0.56427349       0.06243392       0.81888772 </v>
   <v>       0.81947075       0.05884713       0.81451609 </v>
   <v>       0.06622298       0.31364133       0.80144614 </v>
   <v>       0.30851432       0.31026015       0.81301774 </v>
   <v>       0.55560255       0.31779579       0.80724707 </v>
   <v>       0.81480329       0.31302607       0.80925907 </v>
   <v>       0.05142831       0.57849023       0.79595846 </v>
   <v>       0.31012633       0.55751048       0.81825791 </v>
   <v>       0.56492104       0.57281148       0.80843451 </v>
   <v>       0.80402426       0.56394201       0.81268527 </v>
   <v>       0.06440681       0.80202846       0.82189273 </v>
   <v>       0.31510994       0.80579941       0.80748012 </v>
   <v>       0.56532048       0.80656723       0.82198257 </v>
   <v>       0.80548117       0.81280444       0.80983437 </v>
  </varray>
 </structure>
 <calculation>
  <scstep>
   <time name="dav">   69.52   69.55</time>
   <time name="total">   70.52   70.56</time>
   <energy>
    <i name="alphaZ">    210.77028614 </i>
    <i name="ewald"> -14471.02483372 </i>
    <i name="hartreedc">   -755.71330522 </i>
    <i name="XCdc">  -1195.28740150 </i>
    <i name="pawpsdc">   4221.13331941 </i>
    <i name="pawaedc">  -1969.18571412 </i>
    <i name="eentropy">     -0.00174724 </i>
    <i name="bandstr">   2150.89758628 </i>
    <i name="atom">  13192.48085998 </i>
    <i name="e_fr_energy">   1384.06905003 </i>
    <i name="e_wo_entrp">   1384.07079727 </i>
    <i name="e_0_energy">   1384.06992365 </i>
   </energy>
  </scstep>
  <scstep>
   <time name="dav">   78.85   78.88</time>
   <time name="total">   78.85   78.88</time>
   <energy>
    <i name="e_fr_energy">   -536.40581310 </i>
    <i name="e_wo_entrp">   -536.40574275 </i>
    <i name="e_0_energy">   -536.40577792 </i>
   </energy>
  </scstep>
  <scstep>
   <time name="dav">   80.79   80.82</time>
   <time name="total">   80.79   80.82</time>
   <energy>
    <i name="e_fr_energy">   -686.87483898 </i>
    <i name="e_wo_entrp">   -686.87483898 </i>
    <i name="e_0_energy">   -686.87483898 </i>
   </energy>
  </scstep>
  <scstep>
   <time name="dav">   79.82   79.85</time>
   <time name="total">   79.82   79.85</time>
   <energy>
    <i name="e_fr_energy">   -691.10704331 </i>
    <i name="e_wo_entrp">   -691.10704331 </i>
    <i name="e_0_energy">   -691.10704331 </i>
   </energy>
  </scstep>
  <scstep>
   <time name="dav">   81.07   81.10</time>
   <time name="total">   84.24   84.27</time>
   <energy>
    <i name="e_fr_energy">   -691.25417691 </i>
    <i name="e_wo_entrp">   -691.25417691 </i>
    <i name="e_0_energy">   -691.25417691 </i>
   </energy>
  </scstep>
  <scstep>
   <time name="dav">   76.70   76.73</time>
   <time name="total">   80.89   80.93</time>
   <energy>
    <i name="e_fr_energy">   -682.78781127 </i>
    <i name="e_wo_entrp">   -682.78781127 </i>
    <i name="e_0_energy">   -682.78781127 </i>
   </energy>
  </scstep>
  <scstep>
   <time name="dav">   75.68   75.73</time>
   <time name="total">   79.86   79.92</time>
   <energy>
    <i name="e_fr_energy">   -679.23635861 </i>
    <i name="e_wo_entrp">   -679.23635861 </i>
    <i name="e_0_energy">   -679.23635861 </i>
   </energy>
  </scstep>
  <scstep>
   <time name="dav">   75.90   75.93</time>
   <time name="total">   80.09   80.13</time>
   <energy>
    <i name="e_fr_energy">   -679.29558808 </i>
    <i name="e_wo_entrp">   -679.29558808 </i>
    <i name="e_0_energy">   -679.29558808 </i>
   </energy>
  </scstep>
  <scstep>
   <time name="dav">   79.50   79.52</time>
   <time name="total">   83.69   83.71</time>
   <energy>
    <i name="e_fr_energy">   -679.31765681 </i>
    <i name="e_wo_entrp">   -679.31765681 </i>
    <i name="e_0_energy">   -679.31765681 </i>
   </energy>
  </scstep>
  <scstep>
   <time name="dav">   76.54   76.56</time>
   <time name="total">   80.73   80.75</time>
   <energy>
    <i name="e_fr_energy">   -679.32031752 </i>
    <i name="e_wo_entrp">   -679.32031752 </i>
    <i name="e_0_energy">   -679.32031752 </i>
   </energy>
  </scstep>
  <scstep>
   <time name="dav">   76.06   76.09</time>
   <time name="total">   80.25   80.28</time>
   <energy>
    <i name="e_fr_energy">   -679.32161635 </i>
    <i name="e_wo_entrp">   -679.32161635 </i>
    <i name="e_0_energy">   -679.32161635 </i>
   </energy>
  </scstep>
  <scstep>
   <time name="dav">   78.86   78.89</time>
   <time name="total">   83.03   83.06</time>
   <energy>
    <i name="e_fr_energy">   -679.32170394 </i>
    <i name="e_wo_entrp">   -679.32170394 </i>
    <i name="e_0_energy">   -679.32170394 </i>
   </energy>
  </scstep>
  <scstep>
   <time name="dav">   75.07   75.09</time>
   <time name="total">   79.23   79.25</time>
   <energy>
    <i name="e_fr_energy">   -679.32172546 </i>
    <i name="e_wo_entrp">   -679.32172546 </i>
    <i name="e_0_energy">   -679.32172546 </i>
   </energy>
  </scstep>
  <scstep>
   <time name="dav">   79.77   79.81</time>
   <time name="total">   83.88   83.93</time>
   <energy>
    <i name="e_fr_energy">   -679.32173038 </i>
    <i name="e_wo_entrp">   -679.32173038 </i>
    <i name="e_0_energy">   -679.32173038 </i>
   </energy>
  </scstep>
  <scstep>
   <time name="dav">   78.84   78.88</time>
   <time name="total">   82.96   83.01</time>
   <energy>
    <i name="e_fr_energy">   -679.32173324 </i>
    <i name="e_wo_entrp">   -679.32173324 </i>
    <i name="e_0_energy">   -679.32173324 </i>
   </energy>
  </scstep>
  <scstep>
   <time name="dav">   78.33   78.36</time>
   <time name="total">   82.44   82.49</time>
   <energy>
    <i name="e_fr_energy">   -679.32173282 </i>
    <i name="e_wo_entrp">   -679.32173282 </i>
    <i name="e_0_energy">   -679.32173282 </i>
   </energy>
  </scstep>
  <scstep>
   <time name="dav">   54.85   54.88</time>
   <time name="total">   58.96   59.00</time>
   <energy>
    <i name="e_fr_energy">   -679.32173275 </i>
    <i name="e_wo_entrp">   -679.32173275 </i>
    <i name="e_0_energy">   -679.32173275 </i>
   </energy>
  </scstep>
  <scstep>
   <time name="dav">   51.42   51.45</time>
   <time name="total">   55.54   55.57</time>
   <energy>
    <i name="e_fr_energy">   -679.32173282 </i>
    <i name="e_wo_entrp">   -679.32173282 </i>
    <i name="e_0_energy">   -679.32173282 </i>
   </energy>
  </scstep>
  <scstep>
   <time name="dav">   50.65   50.67</time>
   <time name="total">   54.75   54.77</time>
   <energy>
    <i name="e_fr_energy">   -679.32173280 </i>
    <i name="e_wo_entrp">   -679.32173280 </i>
    <i name="e_0_energy">   -679.32173280 </i>
   </energy>
  </scstep>
  <scstep>
   <time name="dav">   49.60   49.63</time>
   <time name="total">   53.70   53.73</time>
   <energy>
    <i name="e_fr_energy">   -679.32173281 </i>
    <i name="e_wo_entrp">   -679.32173281 </i>
    <i name="e_0_energy">   -679.32173281 </i>
   </energy>
  </scstep>
  <scstep>
   <time name="dav">   49.63   49.65</time>
   <time name="total">   50.63   50.65</time>
   <energy>
    <i name="alphaZ">    210.77028614 </i>
    <i name="ewald"> -14471.02483372 </i>
    <i name="hartreedc">  -1001.63324138 </i>
    <i name="XCdc">  -1155.69831823 </i>
    <i name="pawpsdc">   4732.21907799 </i>
    <i name="pawaedc">  -2493.98616762 </i>
    <i name="eentropy">     -0.00000000 </i>
    <i name="bandstr">    307.55060401 </i>
    <i name="atom">  13192.48085998 </i>
    <i name="e_fr_energy">   -679.32173281 </i>
    <i name="e_wo_entrp">   -679.32173281 </i>
    <i name="e_0_energy">   -679.32173281 </i>
   </energy>
  </scstep>
  <structure>
   <crystal>
    <varray name="basis" >
     <v>       0.00000000      10.93733369      10.93733369 </v>
     <v>      10.93733369       0.00000000      10.93733369 </v>
     <v>      10.93733369      10.93733369       0.00000000 </v>
    </varray>
    <i name="volume">   2616.76295363 </i>
    <varray name="rec_basis" >
     <v>      -0.04571498       0.04571498       0.04571498 </v>
     <v>       0.04571498      -0.04571498       0.04571498 </v>
     <v>       0.04571498       0.04571498      -0.04571498 </v>
    </varray>
   </crystal>
   <varray name="positions" >
    <v>       0.98842584       0.01812328       0.00434110 </v>
    <v>       0.24345565       0.99683041       0.01058792 </v>
    <v>       0.48828639       0.98950543       0.01576108 </v>
    <v>       0.74800821       0.00997850       0.99429795 </v>
    <v>       0.99894660       0.25188550       0.99762029 </v>
    <v>       0.25481587       0.24685876       0.99849453 </v>
    <v>       0.50505421       0.23994157       0.00024288 </v>
    <v>       0.75006824       0.24816093       0.99788711 </v>
    <v>       0.99286892       0.50831569       0.99819132 </v>
    <v>       0.24189222       0.50910193       0.99270282 </v>
    <v>       0.50369703       0.49849194       0.00295953 </v>
    <v>       0.75654270       0.49427463       0.00084094 </v>
    <v>       0.98678528       0.74640278       0.00466737 </v>
    <v>       0.25884609       0.75199323       0.00466256 </v>
    <v>       0.50573382       0.74646444       0.01184722 </v>
    <v>       0.75603752       0.75317230       0.98691785 </v>
    <v>       0.99935932       0.00377793       0.24656722 </v>
    <v>       0.26212123       0.99393535       0.24458117 </v>
    <v>       0.49756306       0.00228052       0.25325710 </v>
    <v>       0.74455169       0.99578930       0.24784457 </v>
    <v>       0.99895485       0.25371887       0.24845988 </v>
    <v>       0.25316564       0.23914580       0.25876777 </v>
    <v>       0.49552799       0.25620778       0.25252747 </v>
    <v>       0.76512346       0.25007031       0.23192095 </v>
    <v>       0.99728525       0.51118960       0.25416080 </v>
    <v>       0.25275840       0.50177071       0.24951719 </v>
    <v>       0.49807124       0.48556465       0.25698024 </v>
    <v>       0.76234732       0.49466326       0.24696358 </v>
    <v>       0.99442090       0.75335126       0.24803632 </v>
    <v>       0.24397688       0.76327993       0.24135785 </v>
    <v>       0.49694813       0.75731832       0.24770257 </v>
    <v>       0.75103214       0.73549804       0.25617867 </v>
    <v>       0.00727337       0.99920103       0.50796161 </v>
    <v>       0.25677945       0.01455958       0.49233732 </v>
    <v>       0.49882193       0.99098631       0.50819057 </v>
    <v>       0.76668397       0.99635240       0.49466092 </v>
    <v>       0.99082311       0.25832455       0.49851892 </v>
    <v>       0.24945898       0.25247373       0.49807669 </v>
    <v>       0.49685232       0.25609232       0.49682762 </v>
    <v>       0.75812347       0.24929145       0.49876828 </v>
    <v>       0.98483967       0.51111639       0.49605475 </v>
    <v>       0.24979156       0.50582323       0.49694594 </v>
    <v>       0.50415084       0.48771927       0.50223308 </v>
    <v>       0.74426928       0.50797086       0.48718410 </v>
    <v>       0.98488494       0.75026051       0.50063632 </v>
    <v>       0.25126477       0.74678994       0.49435862 </v>
    <v>       0.50059432       0.74898792       0.50531967 </v>
    <v>       0.75585414       0.75319815       0.49255872 </v>
    <v>       0.99629553       0.99583847       0.75701596 </v>
    <v>       0.24380794       0.00624157       0.75022343 </v>
    <v>       0.50760768       0.99204099       0.75486909 </v>
    <v>       0.74345164       0.99980252       0.75638748 </v>
    <v>       0.00371016       0.24547348       0.74422092 </v>
    <v>       0.25781851       0.24496291       0.74589299 </v>
    <v>       0.51053710       0.25501239       0.73831645 </v>
    <v>       0.75362097       0.24337302       0.75504743 </v>
    <v>       0.99649189       0.50046270       0.74670907 </v>
    <v>       0.24901935       0.50196755       0.74470654 </v>
    <v>       0.49005314       0.49495289       0.76345632 </v>
    <v>       0.74935234       0.49333561       0.74863792 </v>
    <v>       0.99551279       0.75080303       0.75054832 </v>
    <v>       0.25348232       0.75540476       0.74489736 </v>
    <v>       0.50320641       0.74294390       0.74524677 </v>
    <v>       0.74508644       0.74905917       0.75680380 </v>
    <v>       0.06219724       0.05724571       0.06856897 </v>
    <v>       0.30733059       0.06218540       0.05800811 </v>
    <v>       0.55946765       0.06312720       0.05673762 </v>
    <v>       0.81176119       0.05911949       0.06176599 </v>
    <v>       0.06515058       0.30666120       0.05878414 </v>
    <v>       0.32633445       0.29600481       0.06667235 </v>
    <v>       0.55945221       0.31528522       0.07303289 </v>
    <v>       0.82052334       0.29413399       0.05920380 </v>
    <v>       0.06002508       0.56224131       0.06277475 </v>
    <v>       0.31577475       0.55464371       0.06198458 </v>
    <v>       0.55788918       0.56622883       0.05553258 </v>
    <v>       0.80672338       0.55969458       0.06823577 </v>
    <v>       0.07276552       0.79523856       0.06874455 </v>
    <v>       0.32248746       0.80203880       0.06207449 </v>
    <v>       0.55352521       0.81709534       0.06903950 </v>
    <v>       0.81200644       0.81331502       0.06291123 </v>
    <v>       0.06856983       0.06481196       0.31605786 </v>
    <v>       0.31990926       0.06073809       0.31326899 </v>
    <v>       0.56798335       0.05902540       0.30140741 </v>
    <v>       0.80887701       0.06485742       0.31749392 </v>
    <v>       0.06900909       0.29868599       0.31958959 </v>
    <v>       0.31275356       0.31265139       0.31052987 </v>
    <v>       0.57211950       0.30276956       0.31763502 </v>
    <v>       0.81068782       0.31940700       0.30745175 </v>
    <v>       0.06824180       0.55565511       0.31489557 </v>
    <v>       0.31437078       0.56390395       0.31379913 </v>
    <v>       0.55942348       0.56185889       0.31529853 </v>
    <v>       0.82969107       0.55737292       0.31280934 </v>
    <v>       0.05968841       0.81167813       0.31632553 </v>
    <v>       0.31534151       0.80974072       0.30502985 </v>
    <v>       0.56066493       0.81354518       0.30883656 </v>
    <v>       0.81203089       0.82562526       0.30396302 </v>
    <v>       0.05575286       0.07243401       0.56950255 </v>
    <v>       0.31201569       0.07410537       0.55812580 </v>
    <v>       0.55644011       0.05926320       0.56265325 </v>
    <v>       0.81643185       0.05793272       0.56302365 </v>
    <v>       0.06168899       0.31574131       0.56305239 </v>
    <v>       0.31431799       0.30474537       0.56160241 </v>
    <v>       0.56452901       0.31466813       0.55801268 </v>
    <v>       0.81423331       0.30439220       0.56993484 </v>
    <v>       0.07001882       0.54743013       0.56166231 </v>
    <v>       0.31249857       0.56216181       0.56303376 </v>
    <v>       0.57014859       0.56548089       0.54418487 </v>
    <v>       0.80758998       0.57324383       0.55686358 </v>
    <v>       0.05660627       0.81324772       0.55882104 </v>
    <v>       0.31858837       0.80394081       0.56480194 </v>
    <v>       0.57364384       0.80691249       0.56183610 </v>
    <v>       0.80725371       0.81482759       0.56914300 </v>
    <v>       0.06138026       0.05457596       0.81695637 </v>
    <v>       0.31441337       0.04992545       0.81283904 </v>
    <v>       0.56427349       0.06243392       0.81888772 </v>
    <v>       0.81947075       0.05884713       0.81451609 </v>
    <v>       0.06622298       0.31364133       0.80144614 </v>
    <v>       0.30851432       0.31026015       0.81301774 </v>
    <v>       0.55560255       0.31779579       0.80724707 </v>
    <v>       0.81480329       0.31302607       0.80925907 </v>
    <v>       0.05142831       0.57849023       0.79595846 </v>
    <v>       0.31012633       0.55751048       0.81825791 </v>
    <v>       0.56492104       0.57281148       0.80843451 </v>
    <v>       0.80402426       0.56394201       0.81268527 </v>
    <v>       0.06440681       0.80202846       0.82189273 </v>
    <v>       0.31510994       0.80579941       0.80748012 </v>
    <v>       0.56532048       0.80656723       0.82198257 </v>
    <v>       0.80548117       0.81280444       0.80983437 </v>
   </varray>
  </structure>
  <varray name="forces" >
   <v>      -2.78410544       0.91258403      -0.72169390 </v>
   <v>      -2.37556588      -0.59026831      -0.16952399 </v>
   <v>       0.23978856      -1.63747176       2.43800898 </v>
   <v>      -0.61439738       0.62575580      -1.60088275 </v>
   <v>      -1.69620858       0.49590716       0.34204693 </v>
   <v>       0.30583428      -0.15978244      -0.18054289 </v>
   <v>       0.72735011      -0.36956575       1.88883695 </v>
   <v>      -0.22086387      -0.54613506      -0.87761977 </v>
   <v>      -1.51200628       0.09179964      -0.22278961 </v>
   <v>       0.02137262       2.49578114      -1.13078031 </v>
   <v>      -0.91255578      -1.83439602      -0.34964017 </v>
   <v>      -0.31044417      -0.74089906      -1.27087964 </v>
   <v>      -0.45376596       1.97200256       1.83715777 </v>
   <v>      -2.65496336      -1.71752760      -1.94053589 </v>
   <v>      -1.05890577      -1.39836793      -0.43518846 </v>
   <v>       1.63088423       0.95513544      -1.67176202 </v>
   <v>       1.08655240       1.38518750      -0.79268839 </v>
   <v>       1.29609451      -0.46001185      -0.14197601 </v>
   <v>      -2.08837186      -0.33988978       0.38936783 </v>
   <v>       1.47235927      -0.11425561       2.61887974 </v>
   <v>      -0.46123239       0.22820660      -0.00110633 </v>
   <v>      -0.08487141      -0.91175396       1.09006202 </v>
   <v>      -0.50963996       1.46595626      -0.59589984 </v>
   <v>       2.21753501       1.21608261      -1.75475966 </v>
   <v>      -3.73308499       1.71166485       0.69135879 </v>
   <v>      -0.33285120       0.16995197      -0.16011177 </v>
   <v>       0.22388766      -0.44954247       1.89335798 </v>
   <v>       2.29935889      -0.78011789       0.02900455 </v>
   <v>      -0.23508829       1.60696909       0.14773638 </v>
   <v>      -0.74394354       1.24387685      -1.29269375 </v>
   <v>      -0.61273557       1.05389555      -1.28995840 </v>
   <v>       1.14287986      -1.09326600       1.62021883 </v>
   <v>      -0.49977049      -0.93534670      -0.33811718 </v>
   <v>      -0.10280436       0.39798269      -2.66183851 </v>
   <v>      -0.67594629      -1.26452057       0.79183923 </v>
   <v>       1.31597815      -1.03030159      -1.76427282 </v>
   <v>      -0.14379954       1.74201385       0.52680395 </v>
   <v>       0.15267589      -0.89914223       0.39029157 </v>
   <v>      -0.51106626       1.33508898      -0.87085101 </v>
   <v>      -0.48485184      -0.85890276      -0.91827332 </v>
   <v>      -1.17435068       2.23805979       0.44363888 </v>
   <v>      -0.92118936       0.95255181      -0.77902963 </v>
   <v>       1.58102489      -1.75838487       1.41137532 </v>
   <v>      -0.07886224       3.13834029      -0.04306915 </v>
   <v>      -0.88745439       2.16342521       0.70195784 </v>
   <v>       0.79558645      -0.04494308       0.16761551 </v>
   <v>      -0.94821968      -0.44153618       0.63318860 </v>
   <v>       0.70483185      -0.14531022       0.81147340 </v>
   <v>      -1.26078076       0.92677619       0.46970022 </v>
   <v>      -1.90184890       0.03689210      -0.60942989 </v>
   <v>       0.21332856      -0.87863494       0.08541280 </v>
   <v>      -0.77452201       0.45782999       1.07298331 </v>
   <v>       0.48787441       0.45234484      -0.38694910 </v>
   <v>      -0.13303418      -0.03921611      -1.09514837 </v>
   <v>       0.31693683      -0.43144142      -2.40085437 </v>
   <v>       0.59765332      -0.94792009      -0.25377098 </v>
   <v>      -0.07215751      -0.46464819      -0.38268475 </v>
   <v>       0.85387469       0.13401416      -0.96363414 </v>
   <v>      -0.34109856      -0.33678667       2.70609790 </v>
   <v>       0.77181761      -0.72966291       1.16919351 </v>
   <v>       0.87471245      -1.20055432       1.43540744 </v>
   <v>      -0.79637464      -0.04017463      -2.34612206 </v>
   <v>       2.26271118      -0.55456728       1.64041704 </v>
   <v>      -1.14317340      -0.44734965      -0.16873758 </v>
   <v>       0.71455840      -0.84242054       1.16453436 </v>
   <v>       1.00859967       0.75474434       0.40779790 </v>
   <v>      -0.00551680       1.46774333      -1.01543343 </v>
   <v>       1.13115452      -0.40870678       0.08810310 </v>
   <v>       1.32235163      -0.05078505       0.97790250 </v>
   <v>       1.62637225      -1.77201551      -0.39997207 </v>
   <v>      -1.89261795      -0.62528090       0.25153252 </v>
   <v>       0.78376505      -1.40591000       1.85644143 </v>
   <v>       0.59540457      -0.13115527      -0.68427289 </v>
   <v>       0.72669231      -0.51447308       0.70796366 </v>
   <v>       0.76780445       2.94821966       0.24388876 </v>
   <v>      -0.21726361      -0.56547879       1.33785264 </v>
   <v>       0.56543929      -2.01385525       0.75745561 </v>
   <v>       1.89015680       0.14592889       1.71452627 </v>
   <v>      -1.77389679       2.01799559       0.91870049 </v>
   <v>       1.03690528      -1.25227017      -0.97054441 </v>
   <v>      -0.51043863      -0.36119169      -0.44423570 </v>
   <v>      -0.69134400      -0.76662912      -1.03646760 </v>
   <v>       2.77486825       0.37101742      -0.31800563 </v>
   <v>      -1.73368853      -0.83598680       0.53353250 </v>
   <v>       0.62255761      -1.76343225       0.96628807 </v>
   <v>       0.65988828      -0.04307813      -0.08853232 </v>
   <v>      -0.92640986      -0.74325416       0.48730068 </v>
   <v>      -1.17180566       1.24612717      -0.83447702 </v>
   <v>       1.28303145      -0.55571728       1.01913572 </v>
   <v>       0.18877339      -0.82849976       0.30228061 </v>
   <v>      -0.85786081       0.02479904       0.41870970 </v>
   <v>       0.05622262      -2.45165684      -2.14300999 </v>
   <v>       0.06074446      -1.22853006       0.07134464 </v>
   <v>       0.84508590       0.29192293      -0.10304908 </v>
   <v>       0.86308571       1.06210975       0.10105602 </v>
   <v>      -1.84153548       1.11965036      -2.54667968 </v>
   <v>      -0.79104951       0.76985332       0.53884452 </v>
   <v>      -0.27719485       1.27209060      -0.83827861 </v>
   <v>       0.46486156       1.43099447       1.57170173 </v>
   <v>       0.88353861       0.62767521       0.74696847 </v>
   <v>      -0.26929690      -1.34095216       0.08274928 </v>
   <v>       1.26612612      -0.56367940       1.27158751 </v>
   <v>      -1.78502734       1.17176718      -0.44835993 </v>
   <v>       1.24394548      -1.48695098       0.54161160 </v>
   <v>       1.43853183      -1.69263067       0.13722567 </v>
   <v>      -0.65670804       0.17906689       0.43502249 </v>
   <v>       1.85390998      -0.03568249      -2.15982586 </v>
   <v>      -0.25117689      -0.30809820      -1.83904285 </v>
   <v>      -0.07837438       0.54271455       0.09592597 </v>
   <v>       0.49559055      -1.87204073       0.73459660 </v>
   <v>       0.06644574      -0.64978245      -0.52960884 </v>
   <v>      -0.20992948      -0.63174521      -0.71388014 </v>
   <v>       1.16262760      -0.19970163       0.21724264 </v>
   <v>       1.64878092       1.10165361       1.09374693 </v>
   <v>       0.61933952      -0.78785927      -0.88527481 </v>
   <v>      -0.03373445      -1.38245688      -0.89500076 </v>
   <v>       0.36392265       0.84435409      -0.41361154 </v>
   <v>      -0.28430937       0.38928242       1.39358716 </v>
   <v>      -0.08396593       2.34217165       0.22787559 </v>
   <v>      -0.46485513       0.64175812      -0.44468333 </v>
   <v>      -0.74917120       2.86653284      -1.11469028 </v>
   <v>      -0.37642072      -2.07736578       0.90625602 </v>
   <v>      -1.75574968       1.41380955      -3.02814585 </v>
   <v>      -0.70436172       0.79336721       0.18818478 </v>
   <v>      -0.17084972      -1.11305244       0.51377674 </v>
   <v>       2.09108140       0.96840799       1.29677943 </v>
   <v>       0.04169851      -1.02643475      -0.87999268 </v>
   <v>       0.05469415       0.50952120       1.59542818 </v>
  </varray>
  <varray name="stress" >
   <v>      13.87786505       0.64173371      -2.56563383 </v>
   <v>       0.64173371      12.38317175       6.05276641 </v>
   <v>      -2.56563383       6.05276641      13.05885012 </v>
  </varray>
  <energy>
   <i name="e_fr_energy">   -679.32173281 </i>
   <i name="e_wo_entrp">   -679.32173281 </i>
   <i name="e_0_energy">     -0.00000000 </i>
  </energy>
  <time name="totalsc"> 1681.10 1681.84</time>
  <eigenvalues>
   <array>
    <dimension dim="1">band</dimension>
    <dimension dim="2">kpoint</dimension>
    <dimension dim="3">spin</dimension>
    <field>eigene</field>
    <field>occ</field>
    <set>
     <set comment="spin 1">
      <set comment="kpoint 1">
       <r>   -6.2969    1.0000 </r>
       <r>   -5.7122    1.0000 </r>
       <r>   -5.6282    1.0000 </r>
       <r>   -5.5920    1.0000 </r>
       <r>   -5.5362    1.0000 </r>
       <r>   -5.5226    1.0000 </r>
       <r>   -5.4784    1.0000 </r>
       <r>   -5.4123    1.0000 </r>
       <r>   -5.4027    1.0000 </r>
       <r>   -5.2908    1.0000 </r>
       <r>   -5.2765    1.0000 </r>
       <r>   -5.1990    1.0000 </r>
       <r>   -5.1756    1.0000 </r>
       <r>   -5.1348    1.0000 </r>
       <r>   -5.1031    1.0000 </r>
       <r>   -4.5165    1.0000 </r>
       <r>   -4.4770    1.0000 </r>
       <r>   -4.3956    1.0000 </r>
       <r>   -4.3631    1.0000 </r>
       <r>   -4.3402    1.0000 </r>
       <r>   -4.3231    1.0000 </r>
       <r>   -4.2745    1.0000 </r>
       <r>   -4.2566    1.0000 </r>
       <r>   -4.2382    1.0000 </r>
       <r>   -4.1785    1.0000 </r>
       <r>   -4.1547    1.0000 </r>
       <r>   -4.1508    1.0000 </r>
       <r>   -4.0807    1.0000 </r>
       <r>   -4.0312    1.0000 </r>
       <r>   -4.0176    1.0000 </r>
       <r>   -3.9789    1.0000 </r>
       <r>   -3.8664    1.0000 </r>
       <r>   -3.8088    1.0000 </r>
       <r>   -3.7922    1.0000 </r>
       <r>   -3.7492    1.0000 </r>
       <r>   -3.7425    1.0000 </r>
       <r>   -3.6890    1.0000 </r>
       <r>   -3.6661    1.0000 </r>
       <r>   -3.6583    1.0000 </r>
       <r>   -3.6415    1.0000 </r>
       <r>   -3.6275    1.0000 </r>
       <r>   -3.6138    1.0000 </r>
       <r>   -3.5778    1.0000 </r>
       <r>   -3.5700    1.0000 </r>
       <r>   -3.5430    1.0000 </r>
       <r>   -3.5062    1.0000 </r>
       <r>   -3.4882    1.0000 </r>
       <r>   -3.4648    1.0000 </r>
       <r>   -3.4525    1.0000 </r>
       <r>   -3.4106    1.0000 </r>
       <r>   -3.3854    1.0000 </r>
       <r>   -3.3385    1.0000 </r>
       <r>   -3.3071    1.0000 </r>
       <r>   -3.2872    1.0000 </r>
       <r>   -3.2078    1.0000 </r>
       <r>   -2.3914    1.0000 </r>
       <r>   -2.2930    1.0000 </r>
       <r>   -2.2737    1.0000 </r>
       <r>   -2.2247    1.0000 </r>
       <r>   -2.1912    1.0000 </r>
       <r>   -2.1457    1.0000 </r>
       <r>   -2.1367    1.0000 </r>
       <r>   -2.1116    1.0000 </r>
       <r>   -2.1039    1.0000 </r>
       <r>   -2.0933    1.0000 </r>
       <r>   -2.0109    1.0000 </r>
       <r>   -1.9852    1.0000 </r>
       <r>   -1.9644    1.0000 </r>
       <r>   -1.9173    1.0000 </r>
       <r>   -1.9028    1.0000 </r>
       <r>   -1.8621    1.0000 </r>
       <r>   -1.8368    1.0000 </r>
       <r>   -1.8064    1.0000 </r>
       <r>   -1.3875    1.0000 </r>
       <r>   -1.3461    1.0000 </r>
       <r>   -1.2599    1.0000 </r>
       <r>   -1.2346    1.0000 </r>
       <r>   -1.0148    1.0000 </r>
       <r>   -0.9945    1.0000 </r>
       <r>   -0.9732    1.0000 </r>
       <r>   -0.9127    1.0000 </r>
       <r>   -0.8956    1.0000 </r>
       <r>   -0.8729    1.0000 </r>
       <r>   -0.8632    1.0000 </r>
       <r>   -0.8170    1.0000 </r>
       <r>   -0.7760    1.0000 </r>
       <r>   -0.7652    1.0000 </r>
       <r>   -0.7500    1.0000 </r>
       <r>   -0.7328    1.0000 </r>
       <r>   -0.7117    1.0000 </r>
       <r>   -0.6992    1.0000 </r>
       <r>   -0.6920    1.0000 </r>
       <r>   -0.6579    1.0000 </r>
       <r>   -0.6067    1.0000 </r>
       <r>   -0.5881    1.0000 </r>
       <r>   -0.5257    1.0000 </r>
       <r>   -0.5133    1.0000 </r>
       <r>   -0.4725    1.0000 </r>
       <r>   -0.4488    1.0000 </r>
       <r>   -0.4391    1.0000 </r>
       <r>   -0.3859    1.0000 </r>
       <r>   -0.0184    1.0000 </r>
       <r>    0.0054    1.0000 </r>
       <r>    0.0714    1.0000 </r>
       <r>    0.0839    1.0000 </r>
       <r>    0.1416    1.0000 </r>
       <r>    0.1465    1.0000 </r>
       <r>    0.2114    1.0000 </r>
       <r>    0.2559    1.0000 </r>
       <r>    0.2770    1.0000 </r>
       <r>    0.3151    1.0000 </r>
       <r>    0.3383    1.0000 </r>
       <r>    0.3984    1.0000 </r>
       <r>    1.4387    1.0000 </r>
       <r>    1.4724    1.0000 </r>
       <r>    1.5301    1.0000 </r>
       <r>    1.5596    1.0000 </r>
       <r>    1.5763    1.0000 </r>
       <r>    1.5850    1.0000 </r>
       <r>    1.6054    1.0000 </r>
       <r>    1.6328    1.0000 </r>
       <r>    1.6519    1.0000 </r>
       <r>    1.6659    1.0000 </r>
       <r>    1.6791    1.0000 </r>
       <r>    1.6967    1.0000 </r>
       <r>    1.7083    1.0000 </r>
       <r>    1.7383    1.0000 </r>
       <r>    1.7462    1.0000 </r>
       <r>    1.7648    1.0000 </r>
       <r>    1.7686    1.0000 </r>
       <r>    1.7847    1.0000 </r>
       <r>    1.8044    1.0000 </r>
       <r>    1.8166    1.0000 </r>
       <r>    1.8348    1.0000 </r>
       <r>    1.8414    1.0000 </r>
       <r>    1.8613    1.0000 </r>
       <r>    1.8706    1.0000 </r>
       <r>    1.8853    1.0000 </r>
       <r>    1.8970    1.0000 </r>
       <r>    1.9209    1.0000 </r>
       <r>    1.9257    1.0000 </r>
       <r>    1.9337    1.0000 </r>
       <r>    1.9414    1.0000 </r>
       <r>    1.9444    1.0000 </r>
       <r>    1.9732    1.0000 </r>
       <r>    1.9950    1.0000 </r>
       <r>    2.0083    1.0000 </r>
       <r>    2.0254    1.0000 </r>
       <r>    2.0390    1.0000 </r>
       <r>    2.0420    1.0000 </r>
       <r>    2.0594    1.0000 </r>
       <r>    2.0621    1.0000 </r>
       <r>    2.0775    1.0000 </r>
       <r>    2.1089    1.0000 </r>
       <r>    2.1164    1.0000 </r>
       <r>    2.1438    1.0000 </r>
       <r>    2.1462    1.0000 </r>
       <r>    2.1628    1.0000 </r>
       <r>    2.1738    1.0000 </r>
       <r>    2.1789    1.0000 </r>
       <r>    2.1937    1.0000 </r>
       <r>    2.1996    1.0000 </r>
       <r>    2.2448    1.0000 </r>
       <r>    2.2571    1.0000 </r>
       <r>    2.2715    1.0000 </r>
       <r>    2.2891    1.0000 </r>
       <r>    2.2961    1.0000 </r>
       <r>    2.3099    1.0000 </r>
       <r>    2.3269    1.0000 </r>
       <r>    2.3335    1.0000 </r>
       <r>    2.3839    1.0000 </r>
       <r>    2.4165    1.0000 </r>
       <r>    2.4312    1.0000 </r>
       <r>    2.4779    1.0000 </r>
       <r>    2.5044    1.0000 </r>
       <r>    2.7489    1.0000 </r>
       <r>    2.7594    1.0000 </r>
       <r>    2.7922    1.0000 </r>
       <r>    2.8226    1.0000 </r>
       <r>    2.8386    1.0000 </r>
       <r>    2.9065    1.0000 </r>
       <r>    3.1842    1.0000 </r>
       <r>    3.2246    1.0000 </r>
       <r>    3.2669    1.0000 </r>
       <r>    3.2833    1.0000 </r>
       <r>    3.2868    1.0000 </r>
       <r>    3.2957    1.0000 </r>
       <r>    3.3262    1.0000 </r>
       <r>    3.3387    1.0000 </r>
       <r>    3.3622    1.0000 </r>
       <r>    3.3775    1.0000 </r>
       <r>    3.3896    1.0000 </r>
       <r>    3.4060    1.0000 </r>
       <r>    3.4261    1.0000 </r>
       <r>    3.4453    1.0000 </r>
       <r>    3.4696    1.0000 </r>
       <r>    3.4882    1.0000 </r>
       <r>    3.5195    1.0000 </r>
       <r>    3.5257    1.0000 </r>
       <r>    3.5550    1.0000 </r>
       <r>    3.5685    1.0000 </r>
       <r>    3.5773    1.0000 </r>
       <r>    3.6077    1.0000 </r>
       <r>    3.6246    1.0000 </r>
       <r>    3.6410    1.0000 </r>
       <r>    3.6672    1.0000 </r>
       <r>    3.7092    1.0000 </r>
       <r>    3.7306    1.0000 </r>
       <r>    3.7322    1.0000 </r>
       <r>    3.7423    1.0000 </r>
       <r>    3.7819    1.0000 </r>
       <r>    3.8246    1.0000 </r>
       <r>    3.8387    1.0000 </r>
       <r>    3.8505    1.0000 </r>
       <r>    3.9348    1.0000 </r>
       <r>    3.9543    1.0000 </r>
       <r>    3.9870    1.0000 </r>
       <r>    4.1596    1.0000 </r>
       <r>    4.1782    1.0000 </r>
       <r>    4.1983    1.0000 </r>
       <r>    4.2258    1.0000 </r>
       <r>    4.2525    1.0000 </r>
       <r>    4.2629    1.0000 </r>
       <r>    4.2945    1.0000 </r>
       <r>    4.3332    1.0000 </r>
       <r>    4.3380    1.0000 </r>
       <r>    4.3796    1.0000 </r>
       <r>    4.4065    1.0000 </r>
       <r>    4.4188    1.0000 </r>
       <r>    4.4545    1.0000 </r>
       <r>    4.4681    1.0000 </r>
       <r>    4.4905    1.0000 </r>
       <r>    4.5122    1.0000 </r>
       <r>    4.5283    1.0000 </r>
       <r>    4.5554    1.0000 </r>
       <r>    4.6227    1.0000 </r>
       <r>    4.6629    1.0000 </r>
       <r>    4.7159    1.0000 </r>
       <r>    4.7570    1.0000 </r>
       <r>    4.8036    1.0000 </r>
       <r>    4.8350    1.0000 </r>
       <r>    4.8580    1.0000 </r>
       <r>    4.8912    1.0000 </r>
       <r>    4.9249    1.0000 </r>
       <r>    4.9354    1.0000 </r>
       <r>    4.9600    1.0000 </r>
       <r>    5.0109    1.0000 </r>
       <r>    5.0259    1.0000 </r>
       <r>    5.1046    1.0000 </r>
       <r>    5.1335    1.0000 </r>
       <r>    5.2219    1.0000 </r>
       <r>    5.2340    1.0000 </r>
       <r>    5.3219    1.0000 </r>
       <r>    5.6554    1.0000 </r>
       <r>    5.7205    1.0000 </r>
       <r>    5.9582    1.0000 </r>
       <r>    6.1544    0.0000 </r>
       <r>    6.1914    0.0000 </r>
       <r>    6.2218    0.0000 </r>
       <r>    6.2735    0.0000 </r>
       <r>    6.3177    0.0000 </r>
       <r>    6.3388    0.0000 </r>
       <r>    6.5542    0.0000 </r>
       <r>    6.5808    0.0000 </r>
       <r>    6.6345    0.0000 </r>
       <r>    6.6394    0.0000 </r>
       <r>    6.6743    0.0000 </r>
       <r>    6.7001    0.0000 </r>
       <r>    6.8314    0.0000 </r>
       <r>    6.8507    0.0000 </r>
       <r>    6.8699    0.0000 </r>
       <r>    6.8801    0.0000 </r>
       <r>    6.9031    0.0000 </r>
       <r>    6.9252    0.0000 </r>
       <r>    6.9332    0.0000 </r>
       <r>    6.9551    0.0000 </r>
       <r>    6.9695    0.0000 </r>
       <r>    6.9934    0.0000 </r>
       <r>    7.0168    0.0000 </r>
       <r>    7.0211    0.0000 </r>
       <r>    7.0343    0.0000 </r>
       <r>    7.0455    0.0000 </r>
       <r>    7.0725    0.0000 </r>
       <r>    7.0800    0.0000 </r>
       <r>    7.1109    0.0000 </r>
       <r>    7.1283    0.0000 </r>
       <r>    7.1340    0.0000 </r>
       <r>    7.1623    0.0000 </r>
       <r>    7.1733    0.0000 </r>
       <r>    7.1929    0.0000 </r>
       <r>    7.2380    0.0000 </r>
       <r>    7.2401    0.0000 </r>
       <r>    7.2699    0.0000 </r>
       <r>    7.2892    0.0000 </r>
       <r>    7.3167    0.0000 </r>
       <r>    7.3518    0.0000 </r>
       <r>    7.4254    0.0000 </r>
       <r>    7.4396    0.0000 </r>
       <r>    7.5001    0.0000 </r>
       <r>    7.5099    0.0000 </r>
       <r>    7.5406    0.0000 </r>
       <r>    7.5571    0.0000 </r>
       <r>    7.5743    0.0000 </r>
       <r>    7.6196    0.0000 </r>
       <r>    7.8450    0.0000 </r>
       <r>    7.8759    0.0000 </r>
       <r>    7.9030    0.0000 </r>
       <r>    7.9058    0.0000 </r>
       <r>    7.9257    0.0000 </r>
       <r>    7.9483    0.0000 </r>
       <r>    7.9745    0.0000 </r>
       <r>    8.0035    0.0000 </r>
       <r>    8.0281    0.0000 </r>
       <r>    8.0467    0.0000 </r>
       <r>    8.0666    0.0000 </r>
       <r>    8.1303    0.0000 </r>
       <r>    8.1427    0.0000 </r>
       <r>    8.1590    0.0000 </r>
       <r>    8.2312    0.0000 </r>
       <r>    8.5334    0.0000 </r>
       <r>    8.5725    0.0000 </r>
       <r>    8.6215    0.0000 </r>
      </set>
      <set comment="kpoint 2">
       <r>   -6.1529    1.0000 </r>
       <r>   -6.0472    1.0000 </r>
       <r>   -5.7010    1.0000 </r>
       <r>   -5.6487    1.0000 </r>
       <r>   -5.5928    1.0000 </r>
       <r>   -5.5892    1.0000 </r>
       <r>   -5.5099    1.0000 </r>
[...]
       <r>    -3.1043    34.6569   101.0147 </r>
       <r>    -3.0496    43.1801   103.3767 </r>
       <r>    -2.9949    43.4627   105.7542 </r>
       <r>    -2.9402    46.6221   108.3045 </r>
       <r>    -2.8855    30.8516   109.9921 </r>
       <r>    -2.8308    37.3270   112.0339 </r>
       <r>    -2.7761    25.1928   113.4120 </r>
       <r>    -2.7214    36.8464   115.4275 </r>
       <r>    -2.6667    37.2351   117.4643 </r>
       <r>    -2.6120    40.0897   119.6573 </r>
       <r>    -2.5573    37.5310   121.7103 </r>
       <r>    -2.5026    18.9697   122.7479 </r>
       <r>    -2.4479     0.0377   122.7500 </r>
       <r>    -2.3932     1.8299   122.8501 </r>
       <r>    -2.3385     2.7404   123.0000 </r>
       <r>    -2.2838     4.9752   123.2721 </r>
       <r>    -2.2291    22.3379   124.4940 </r>
       <r>    -2.1744    14.8785   125.3079 </r>
       <r>    -2.1197    34.5567   127.1982 </r>
       <r>    -2.0650    31.3626   128.9138 </r>
       <r>    -2.0103    14.8715   129.7273 </r>
       <r>    -1.9556    26.4113   131.1720 </r>
       <r>    -1.9009    18.0572   132.1597 </r>
       <r>    -1.8462    11.1546   132.7699 </r>
       <r>    -1.7915     8.6960   133.2456 </r>
       <r>    -1.7368     0.0807   133.2500 </r>
       <r>    -1.6821     3.9496   133.4660 </r>
       <r>    -1.6274    20.5248   134.5888 </r>
       <r>    -1.5727    28.6782   136.1575 </r>
       <r>    -1.5180    32.6236   137.9420 </r>
       <r>    -1.4633    37.9078   140.0156 </r>
       <r>    -1.4086    40.6520   142.2393 </r>
       <r>    -1.3539    50.8160   145.0190 </r>
       <r>    -1.2992    52.5963   147.8961 </r>
       <r>    -1.2445    67.7744   151.6034 </r>
       <r>    -1.1898    59.6197   154.8646 </r>
       <r>    -1.1351    56.0015   157.9279 </r>
       <r>    -1.0804    56.3218   161.0088 </r>
       <r>    -1.0257    52.8028   163.8972 </r>
       <r>    -0.9710    60.6968   167.2173 </r>
       <r>    -0.9163    65.5957   170.8054 </r>
       <r>    -0.8616    80.4546   175.2063 </r>
       <r>    -0.8069    63.7816   178.6952 </r>
       <r>    -0.7522    44.9629   181.1547 </r>
       <r>    -0.6975    53.8518   184.1005 </r>
       <r>    -0.6428    42.6378   186.4328 </r>
       <r>    -0.5881    33.6279   188.2723 </r>
       <r>    -0.5334    20.5199   189.3948 </r>
       <r>    -0.4787    21.0105   190.5441 </r>
       <r>    -0.4240    22.4859   191.7740 </r>
       <r>    -0.3693    47.5058   194.3726 </r>
       <r>    -0.3146    29.5503   195.9891 </r>
       <r>    -0.2599    60.2706   199.2859 </r>
       <r>    -0.2052    52.4352   202.1542 </r>
       <r>    -0.1505    41.0508   204.3997 </r>
       <r>    -0.0958    39.5099   206.5609 </r>
       <r>    -0.0411    39.4734   208.7202 </r>
       <r>     0.0136    46.6225   211.2704 </r>
       <r>     0.0683    23.9599   212.5811 </r>
       <r>     0.1230    17.5099   213.5389 </r>
       <r>     0.1777    13.0004   214.2500 </r>
       <r>     0.2324     4.5657   214.4997 </r>
       <r>     0.2871    19.8555   215.5859 </r>
       <r>     0.3418    29.4644   217.1976 </r>
       <r>     0.3965    35.7037   219.1506 </r>
       <r>     0.4512    19.6046   220.2230 </r>
       <r>     0.5059    22.3573   221.4460 </r>
       <r>     0.5606     6.7772   221.8167 </r>
       <r>     0.6153    37.3088   223.8575 </r>
       <r>     0.6700    19.2304   224.9094 </r>
       <r>     0.7247    23.8319   226.2131 </r>
       <r>     0.7794    12.2431   226.8828 </r>
       <r>     0.8341     8.8350   227.3661 </r>
       <r>     0.8888     7.5318   227.7781 </r>
       <r>     0.9435    24.7790   229.1335 </r>
       <r>     0.9982    27.1101   230.6164 </r>
       <r>     1.0529    25.0713   231.9878 </r>
       <r>     1.1076    17.3350   232.9361 </r>
       <r>     1.1623    33.0754   234.7453 </r>
       <r>     1.2170    22.6728   235.9856 </r>
       <r>     1.2717    27.1208   237.4691 </r>
       <r>     1.3264    24.8403   238.8279 </r>
       <r>     1.3811    41.7804   241.1133 </r>
       <r>     1.4358    28.6553   242.6808 </r>
       <r>     1.4905    90.3871   247.6250 </r>
       <r>     1.5452    80.2234   252.0133 </r>
       <r>     1.5999    89.2500   256.8953 </r>
       <r>     1.6546    80.5061   261.2991 </r>
       <r>     1.7093    67.7809   265.0068 </r>
       <r>     1.7640    55.4369   268.0392 </r>
       <r>     1.8187    49.3323   270.7378 </r>
       <r>     1.8734    30.1566   272.3874 </r>
       <r>     1.9281    23.6032   273.6785 </r>
       <r>     1.9828    19.6875   274.7554 </r>
       <r>     2.0375    37.2820   276.7948 </r>
       <r>     2.0922    70.9086   280.6735 </r>
       <r>     2.1469   104.3884   286.3836 </r>
       <r>     2.2016   122.0768   293.0613 </r>
       <r>     2.2563   112.2427   299.2011 </r>
       <r>     2.3110   109.0528   305.1664 </r>
       <r>     2.3657   118.2536   311.6350 </r>
       <r>     2.4204   100.0076   317.1055 </r>
       <r>     2.4751    62.3183   320.5144 </r>
       <r>     2.5298    32.5492   322.2949 </r>
       <r>     2.5845    40.1446   324.4909 </r>
       <r>     2.6392    44.1053   326.9035 </r>
       <r>     2.6939    62.5879   330.3271 </r>
       <r>     2.7486   102.1811   335.9165 </r>
       <r>     2.8033   101.8473   341.4876 </r>
       <r>     2.8580    81.1529   345.9267 </r>
       <r>     2.9127    94.1636   351.0775 </r>
       <r>     2.9674    89.6791   355.9831 </r>
       <r>     3.0221   108.5308   361.9198 </r>
       <r>     3.0768    93.7788   367.0496 </r>
       <r>     3.1315    81.2477   371.4939 </r>
       <r>     3.1862    68.3886   375.2348 </r>
       <r>     3.2409    82.4063   379.7425 </r>
       <r>     3.2956   104.0085   385.4318 </r>
       <r>     3.3503    92.9133   390.5143 </r>
       <r>     3.4050    85.5573   395.1944 </r>
       <r>     3.4597    84.4503   399.8139 </r>
       <r>     3.5144    89.6952   404.7203 </r>
       <r>     3.5691    84.0793   409.3195 </r>
       <r>     3.6238    65.3721   412.8954 </r>
       <r>     3.6785    82.0275   417.3824 </r>
       <r>     3.7332    83.2109   421.9341 </r>
       <r>     3.7879    91.1511   426.9201 </r>
       <r>     3.8426    85.2939   431.5858 </r>
       <r>     3.8973    63.5450   435.0617 </r>
       <r>     3.9520    87.2462   439.8341 </r>
       <r>     4.0067    59.2912   443.0774 </r>
       <r>     4.0614    65.5506   446.6631 </r>
       <r>     4.1161    69.0950   450.4427 </r>
       <r>     4.1708    75.7649   454.5871 </r>
       <r>     4.2255    74.3570   458.6544 </r>
       <r>     4.2802    67.0704   462.3232 </r>
       <r>     4.3349    64.5416   465.8538 </r>
       <r>     4.3896    77.7124   470.1047 </r>
       <r>     4.4444    80.5778   474.5123 </r>
       <r>     4.4991    68.4665   478.2575 </r>
       <r>     4.5538    71.6937   482.1792 </r>
       <r>     4.6085    57.1832   485.3072 </r>
       <r>     4.6632    31.1609   487.0118 </r>
       <r>     4.7179    42.3768   489.3298 </r>
       <r>     4.7726    31.7533   491.0668 </r>
       <r>     4.8273    25.6450   492.4696 </r>
       <r>     4.8820    34.5998   494.3622 </r>
       <r>     4.9367    45.0168   496.8246 </r>
       <r>     4.9914    38.5692   498.9344 </r>
       <r>     5.0461    34.9709   500.8474 </r>
       <r>     5.1008    27.7084   502.3631 </r>
       <r>     5.1555    11.6404   502.9998 </r>
       <r>     5.2102     5.6482   503.3088 </r>
       <r>     5.2649    13.5759   504.0514 </r>
       <r>     5.3196    17.1007   504.9868 </r>
       <r>     5.3743    15.6056   505.8405 </r>
       <r>     5.4290    23.0553   507.1016 </r>
       <r>     5.4837    17.5432   508.0612 </r>
       <r>     5.5384    21.8394   509.2559 </r>
       <r>     5.5931    13.6033   510.0000 </r>
       <r>     5.6478     8.5497   510.4677 </r>
       <r>     5.7025    13.6093   511.2121 </r>
       <r>     5.7572     5.2730   511.5005 </r>
       <r>     5.8119     4.5604   511.7500 </r>
       <r>     5.8666     0.0000   511.7500 </r>
       <r>     5.9213     0.0000   511.7500 </r>
       <r>     5.9760     4.5428   511.9985 </r>
       <r>     6.0307     0.0276   512.0000 </r>
       <r>     6.0854     0.0000   512.0000 </r>
       <r>     6.1401     7.9164   512.4330 </r>
       <r>     6.1948    20.6836   513.5644 </r>
       <r>     6.2495    12.5344   514.2501 </r>
       <r>     6.3042     6.1256   514.5852 </r>
       <r>     6.3589    30.8553   516.2730 </r>
       <r>     6.4136    22.6368   517.5112 </r>
       <r>     6.4683    30.4719   519.1780 </r>
       <r>     6.5230    14.7932   519.9873 </r>
       <r>     6.5777    20.0123   521.0819 </r>
       <r>     6.6324    11.6765   521.7207 </r>
       <r>     6.6871    24.8994   523.0827 </r>
       <r>     6.7418    27.1533   524.5680 </r>
       <r>     6.7965    37.8461   526.6382 </r>
       <r>     6.8512    29.5746   528.2560 </r>
       <r>     6.9059    41.6981   530.5370 </r>
       <r>     6.9606    36.8353   532.5519 </r>
       <r>     7.0153    32.9569   534.3547 </r>
       <r>     7.0700    58.0283   537.5289 </r>
       <r>     7.1247    26.4814   538.9774 </r>
       <r>     7.1794    26.5814   540.4315 </r>
       <r>     7.2341    29.3991   542.0396 </r>
       <r>     7.2888    73.2482   546.0463 </r>
       <r>     7.3435    80.6663   550.4589 </r>
       <r>     7.3982    73.9326   554.5031 </r>
       <r>     7.4529    73.2033   558.5073 </r>
       <r>     7.5076    77.8713   562.7670 </r>
       <r>     7.5623    93.1279   567.8612 </r>
       <r>     7.6170    88.9132   572.7248 </r>
       <r>     7.6717    91.1048   577.7083 </r>
       <r>     7.7264    78.8207   582.0198 </r>
       <r>     7.7811    85.1275   586.6764 </r>
       <r>     7.8358    99.9364   592.1430 </r>
       <r>     7.8905   101.6822   597.7051 </r>
       <r>     7.9452    89.9697   602.6265 </r>
       <r>     7.9999   101.1968   608.1620 </r>
       <r>     8.0546    75.8660   612.3120 </r>
       <r>     8.1093    79.0036   616.6336 </r>
       <r>     8.1640    93.1125   621.7269 </r>
       <r>     8.2187    59.8893   625.0029 </r>
       <r>     8.2734   102.7065   630.6211 </r>
       <r>     8.3281    78.9746   634.9411 </r>
       <r>     8.3828    77.2735   639.1680 </r>
       <r>     8.4375    51.7307   641.9977 </r>
       <r>     8.4922    22.8710   643.2488 </r>
       <r>     8.5469     4.4650   643.4930 </r>
       <r>     8.6016     4.7090   643.7506 </r>
       <r>     8.6563     4.5591   644.0000 </r>
       <r>     8.7110     0.0000   644.0000 </r>
       <r>     8.7657     0.0000   644.0000 </r>
       <r>     8.8204     0.0000   644.0000 </r>
       <r>     8.8751     0.0000   644.0000 </r>
       <r>     8.9298     0.0000   644.0000 </r>
       <r>     8.9845     0.0000   644.0000 </r>
       <r>     9.0392     0.0000   644.0000 </r>
       <r>     9.0939     0.0000   644.0000 </r>
       <r>     9.1486     0.0000   644.0000 </r>
       <r>     9.2033     0.0000   644.0000 </r>
       <r>     9.2580     0.0000   644.0000 </r>
       <r>     9.3127     0.0000   644.0000 </r>
       <r>     9.3674     0.0000   644.0000 </r>
      </set>
     </set>
    </array>
   </total>
  </dos>
 </calculation>
 <structure name="finalpos" >
  <crystal>
   <varray name="basis" >
    <v>       0.00000000      10.93733369      10.93733369 </v>
    <v>      10.93733369       0.00000000      10.93733369 </v>
    <v>      10.93733369      10.93733369       0.00000000 </v>
   </varray>
   <i name="volume">   2616.76295363 </i>
   <varray name="rec_basis" >
    <v>      -0.04571498       0.04571498       0.04571498 </v>
    <v>       0.04571498      -0.04571498       0.04571498 </v>
    <v>       0.04571498       0.04571498      -0.04571498 </v>
   </varray>
  </crystal>
  <varray name="positions" >
   <v>       0.98842584       0.01812328       0.00434110 </v>
   <v>       0.24345565       0.99683041       0.01058792 </v>
   <v>       0.48828639       0.98950543       0.01576108 </v>
   <v>       0.74800821       0.00997850       0.99429795 </v>
   <v>       0.99894660       0.25188550       0.99762029 </v>
   <v>       0.25481587       0.24685876       0.99849453 </v>
   <v>       0.50505421       0.23994157       0.00024288 </v>
   <v>       0.75006824       0.24816093       0.99788711 </v>
   <v>       0.99286892       0.50831569       0.99819132 </v>
   <v>       0.24189222       0.50910193       0.99270282 </v>
   <v>       0.50369703       0.49849194       0.00295953 </v>
   <v>       0.75654270       0.49427463       0.00084094 </v>
   <v>       0.98678528       0.74640278       0.00466737 </v>
   <v>       0.25884609       0.75199323       0.00466256 </v>
   <v>       0.50573382       0.74646444       0.01184722 </v>
   <v>       0.75603752       0.75317230       0.98691785 </v>
   <v>       0.99935932       0.00377793       0.24656722 </v>
   <v>       0.26212123       0.99393535       0.24458117 </v>
   <v>       0.49756306       0.00228052       0.25325710 </v>
   <v>       0.74455169       0.99578930       0.24784457 </v>
   <v>       0.99895485       0.25371887       0.24845988 </v>
   <v>       0.25316564       0.23914580       0.25876777 </v>
   <v>       0.49552799       0.25620778       0.25252747 </v>
   <v>       0.76512346       0.25007031       0.23192095 </v>
   <v>       0.99728525       0.51118960       0.25416080 </v>
   <v>       0.25275840       0.50177071       0.24951719 </v>
   <v>       0.49807124       0.48556465       0.25698024 </v>
   <v>       0.76234732       0.49466326       0.24696358 </v>
   <v>       0.99442090       0.75335126       0.24803632 </v>
   <v>       0.24397688       0.76327993       0.24135785 </v>
   <v>       0.49694813       0.75731832       0.24770257 </v>
   <v>       0.75103214       0.73549804       0.25617867 </v>
   <v>       0.00727337       0.99920103       0.50796161 </v>
   <v>       0.25677945       0.01455958       0.49233732 </v>
   <v>       0.49882193       0.99098631       0.50819057 </v>
   <v>       0.76668397       0.99635240       0.49466092 </v>
   <v>       0.99082311       0.25832455       0.49851892 </v>
   <v>       0.24945898       0.25247373       0.49807669 </v>
   <v>       0.49685232       0.25609232       0.49682762 </v>
   <v>       0.75812347       0.24929145       0.49876828 </v>
   <v>       0.98483967       0.51111639       0.49605475 </v>
   <v>       0.24979156       0.50582323       0.49694594 </v>
   <v>       0.50415084       0.48771927       0.50223308 </v>
   <v>       0.74426928       0.50797086       0.48718410 </v>
   <v>       0.98488494       0.75026051       0.50063632 </v>
   <v>       0.25126477       0.74678994       0.49435862 </v>
   <v>       0.50059432       0.74898792       0.50531967 </v>
   <v>       0.75585414       0.75319815       0.49255872 </v>
   <v>       0.99629553       0.99583847       0.75701596 </v>
   <v>       0.24380794       0.00624157       0.75022343 </v>
   <v>       0.50760768       0.99204099       0.75486909 </v>
   <v>       0.74345164       0.99980252       0.75638748 </v>
   <v>       0.00371016       0.24547348       0.74422092 </v>
   <v>       0.25781851       0.24496291       0.74589299 </v>
   <v>       0.51053710       0.25501239       0.73831645 </v>
   <v>       0.75362097       0.24337302       0.75504743 </v>
   <v>       0.99649189       0.50046270       0.74670907 </v>
   <v>       0.24901935       0.50196755       0.74470654 </v>
   <v>       0.49005314       0.49495289       0.76345632 </v>
   <v>       0.74935234       0.49333561       0.74863792 </v>
   <v>       0.99551279       0.75080303       0.75054832 </v>
   <v>       0.25348232       0.75540476       0.74489736 </v>
   <v>       0.50320641       0.74294390       0.74524677 </v>
   <v>       0.74508644       0.74905917       0.75680380 </v>
   <v>       0.06219724       0.05724571       0.06856897 </v>
   <v>       0.30733059       0.06218540       0.05800811 </v>
   <v>       0.55946765       0.06312720       0.05673762 </v>
   <v>       0.81176119       0.05911949       0.06176599 </v>
   <v>       0.06515058       0.30666120       0.05878414 </v>
   <v>       0.32633445       0.29600481       0.06667235 </v>
   <v>       0.55945221       0.31528522       0.07303289 </v>
   <v>       0.82052334       0.29413399       0.05920380 </v>
   <v>       0.06002508       0.56224131       0.06277475 </v>
   <v>       0.31577475       0.55464371       0.06198458 </v>
   <v>       0.55788918       0.56622883       0.05553258 </v>
   <v>       0.80672338       0.55969458       0.06823577 </v>
   <v>       0.07276552       0.79523856       0.06874455 </v>
   <v>       0.32248746       0.80203880       0.06207449 </v>
   <v>       0.55352521       0.81709534       0.06903950 </v>
   <v>       0.81200644       0.81331502       0.06291123 </v>
   <v>       0.06856983       0.06481196       0.31605786 </v>
   <v>       0.31990926       0.06073809       0.31326899 </v>
   <v>       0.56798335       0.05902540       0.30140741 </v>
   <v>       0.80887701       0.06485742       0.31749392 </v>
   <v>       0.06900909       0.29868599       0.31958959 </v>
   <v>       0.31275356       0.31265139       0.31052987 </v>
   <v>       0.57211950       0.30276956       0.31763502 </v>
   <v>       0.81068782       0.31940700       0.30745175 </v>
   <v>       0.06824180       0.55565511       0.31489557 </v>
   <v>       0.31437078       0.56390395       0.31379913 </v>
   <v>       0.55942348       0.56185889       0.31529853 </v>
   <v>       0.82969107       0.55737292       0.31280934 </v>
   <v>       0.05968841       0.81167813       0.31632553 </v>
   <v>       0.31534151       0.80974072       0.30502985 </v>
   <v>       0.56066493       0.81354518       0.30883656 </v>
   <v>       0.81203089       0.82562526       0.30396302 </v>
   <v>       0.05575286       0.07243401       0.56950255 </v>
   <v>       0.31201569       0.07410537       0.55812580 </v>
   <v>       0.55644011       0.05926320       0.56265325 </v>
   <v>       0.81643185       0.05793272       0.56302365 </v>
   <v>       0.06168899       0.31574131       0.56305239 </v>
   <v>       0.31431799       0.30474537       0.56160241 </v>
   <v>       0.56452901       0.31466813       0.55801268 </v>
   <v>       0.81423331       0.30439220       0.56993484 </v>
   <v>       0.07001882       0.54743013       0.56166231 </v>
   <v>       0.31249857       0.56216181       0.56303376 </v>
   <v>       0.57014859       0.56548089       0.54418487 </v>
   <v>       0.80758998       0.57324383       0.55686358 </v>
   <v>       0.05660627       0.81324772       0.55882104 </v>
   <v>       0.31858837       0.80394081       0.56480194 </v>
   <v>       0.57364384       0.80691249       0.56183610 </v>
   <v>       0.80725371       0.81482759       0.56914300 </v>
   <v>       0.06138026       0.05457596       0.81695637 </v>
   <v>       0.31441337       0.04992545       0.81283904 </v>
   <v>       0.56427349       0.06243392       0.81888772 </v>
   <v>       0.81947075       0.05884713       0.81451609 </v>
   <v>       0.06622298       0.31364133       0.80144614 </v>
   <v>       0.30851432       0.31026015       0.81301774 </v>
   <v>       0.55560255       0.31779579       0.80724707 </v>
   <v>       0.81480329       0.31302607       0.80925907 </v>
   <v>       0.05142831       0.57849023       0.79595846 </v>
   <v>       0.31012633       0.55751048       0.81825791 </v>
   <v>       0.56492104       0.57281148       0.80843451 </v>
   <v>       0.80402426       0.56394201       0.81268527 </v>
   <v>       0.06440681       0.80202846       0.82189273 </v>
   <v>       0.31510994       0.80579941       0.80748012 </v>
   <v>       0.56532048       0.80656723       0.82198257 </v>
   <v>       0.80548117       0.81280444       0.80983437 </v>
  </varray>
 </structure>
</modeling>
