potpaw_PBE@./ARUN.APL1ZEROSTATE         
           1
     0.000000   10.937334   10.937334
    10.937334    0.000000   10.937334
    10.937334   10.937334    0.000000
   Si
 128
Direct configuration=     1
   0.98842584  0.01812328  0.00434110
   0.24345565  0.99683041  0.01058792
   0.48828639  0.98950543  0.01576108
   0.74800821  0.00997850  0.99429795
   0.99894660  0.25188550  0.99762029
   0.25481587  0.24685876  0.99849453
   0.50505421  0.23994157  0.00024288
   0.75006824  0.24816093  0.99788711
   0.99286892  0.50831569  0.99819132
   0.24189222  0.50910193  0.99270282
   0.50369703  0.49849194  0.00295953
   0.75654270  0.49427463  0.00084094
   0.98678528  0.74640278  0.00466737
   0.25884609  0.75199323  0.00466256
   0.50573382  0.74646444  0.01184722
   0.75603752  0.75317230  0.98691785
   0.99935932  0.00377793  0.24656722
   0.26212123  0.99393535  0.24458117
   0.49756306  0.00228052  0.25325710
   0.74455169  0.99578930  0.24784457
   0.99895485  0.25371887  0.24845988
   0.25316564  0.23914580  0.25876777
   0.49552799  0.25620778  0.25252747
   0.76512346  0.25007031  0.23192095
   0.99728525  0.51118960  0.25416080
   0.25275840  0.50177071  0.24951719
   0.49807124  0.48556465  0.25698024
   0.76234732  0.49466326  0.24696358
   0.99442090  0.75335126  0.24803632
   0.24397688  0.76327993  0.24135785
   0.49694813  0.75731832  0.24770257
   0.75103214  0.73549804  0.25617867
   0.00727337  0.99920103  0.50796161
   0.25677945  0.01455958  0.49233732
   0.49882193  0.99098631  0.50819057
   0.76668397  0.99635240  0.49466092
   0.99082311  0.25832455  0.49851892
   0.24945898  0.25247373  0.49807669
   0.49685232  0.25609232  0.49682762
   0.75812347  0.24929145  0.49876828
   0.98483967  0.51111639  0.49605475
   0.24979156  0.50582323  0.49694594
   0.50415084  0.48771927  0.50223308
   0.74426928  0.50797086  0.48718410
   0.98488494  0.75026051  0.50063632
   0.25126477  0.74678994  0.49435862
   0.50059432  0.74898792  0.50531967
   0.75585414  0.75319815  0.49255872
   0.99629553  0.99583847  0.75701596
   0.24380794  0.00624157  0.75022343
   0.50760768  0.99204099  0.75486909
   0.74345164  0.99980252  0.75638748
   0.00371016  0.24547348  0.74422092
   0.25781851  0.24496291  0.74589299
   0.51053710  0.25501239  0.73831645
   0.75362097  0.24337302  0.75504743
   0.99649189  0.50046270  0.74670907
   0.24901935  0.50196755  0.74470654
   0.49005314  0.49495289  0.76345632
   0.74935234  0.49333561  0.74863792
   0.99551279  0.75080303  0.75054832
   0.25348232  0.75540476  0.74489736
   0.50320641  0.74294390  0.74524677
   0.74508644  0.74905917  0.75680380
   0.06219724  0.05724571  0.06856897
   0.30733059  0.06218540  0.05800811
   0.55946765  0.06312720  0.05673762
   0.81176119  0.05911949  0.06176599
   0.06515058  0.30666120  0.05878414
   0.32633445  0.29600481  0.06667235
   0.55945221  0.31528522  0.07303289
   0.82052334  0.29413399  0.05920380
   0.06002508  0.56224131  0.06277475
   0.31577475  0.55464371  0.06198458
   0.55788918  0.56622883  0.05553258
   0.80672338  0.55969458  0.06823577
   0.07276552  0.79523856  0.06874455
   0.32248746  0.80203880  0.06207449
   0.55352521  0.81709534  0.06903950
   0.81200644  0.81331502  0.06291123
   0.06856983  0.06481196  0.31605786
   0.31990926  0.06073809  0.31326899
   0.56798335  0.05902540  0.30140741
   0.80887701  0.06485742  0.31749392
   0.06900909  0.29868599  0.31958959
   0.31275356  0.31265139  0.31052987
   0.57211950  0.30276956  0.31763502
   0.81068782  0.31940700  0.30745175
   0.06824180  0.55565511  0.31489557
   0.31437078  0.56390395  0.31379913
   0.55942348  0.56185889  0.31529853
   0.82969107  0.55737292  0.31280934
   0.05968841  0.81167813  0.31632553
   0.31534151  0.80974072  0.30502985
   0.56066493  0.81354518  0.30883656
   0.81203089  0.82562526  0.30396302
   0.05575286  0.07243401  0.56950255
   0.31201569  0.07410537  0.55812580
   0.55644011  0.05926320  0.56265325
   0.81643185  0.05793272  0.56302365
   0.06168899  0.31574131  0.56305239
   0.31431799  0.30474537  0.56160241
   0.56452901  0.31466813  0.55801268
   0.81423331  0.30439220  0.56993484
   0.07001882  0.54743013  0.56166231
   0.31249857  0.56216181  0.56303376
   0.57014859  0.56548089  0.54418487
   0.80758998  0.57324383  0.55686358
   0.05660627  0.81324772  0.55882104
   0.31858837  0.80394081  0.56480194
   0.57364384  0.80691249  0.56183610
   0.80725371  0.81482759  0.56914300
   0.06138026  0.05457596  0.81695637
   0.31441337  0.04992545  0.81283904
   0.56427349  0.06243392  0.81888772
   0.81947075  0.05884713  0.81451609
   0.06622298  0.31364133  0.80144614
   0.30851432  0.31026015  0.81301774
   0.55560255  0.31779579  0.80724707
   0.81480329  0.31302607  0.80925907
   0.05142831  0.57849023  0.79595846
   0.31012633  0.55751048  0.81825791
   0.56492104  0.57281148  0.80843451
   0.80402426  0.56394201  0.81268527
   0.06440681  0.80202846  0.82189273
   0.31510994  0.80579941  0.80748012
   0.56532048  0.80656723  0.82198257
   0.80548117  0.81280444  0.80983437
