 128 128   0   0
  0.2044346E+02  0.1546773E-08  0.1546773E-08  0.1546773E-08  0.5000000E-15
  1.000000000000000E-004
  CAR 
 potpaw_PBE@./ARUN.APL1ZEROSTATE         
      9.26119823     -7.06237976  301      5.90126176      1.00000000
     -7.062  0.0000E+00  0.0000E+00
     -7.008  0.0000E+00  0.0000E+00
     -6.954  0.0000E+00  0.0000E+00
     -6.899  0.0000E+00  0.0000E+00
     -6.845  0.0000E+00  0.0000E+00
     -6.790  0.0000E+00  0.0000E+00
     -6.736  0.0000E+00  0.0000E+00
     -6.681  0.0000E+00  0.0000E+00
     -6.627  0.0000E+00  0.0000E+00
     -6.573  0.0000E+00  0.0000E+00
     -6.518  0.0000E+00  0.0000E+00
     -6.464  0.0000E+00  0.0000E+00
     -6.409  0.0000E+00  0.0000E+00
     -6.355  0.2238E-05  0.1217E-06
     -6.301  0.4583E+01  0.2494E+00
     -6.246  0.1181E-01  0.2500E+00
     -6.192  0.5021E+00  0.2773E+00
     -6.137  0.1834E+02  0.1275E+01
     -6.083  0.2271E+02  0.2511E+01
     -6.029  0.1379E+02  0.3261E+01
     -5.974  0.8992E+01  0.3750E+01
     -5.920  0.3948E-04  0.3750E+01
     -5.865  0.5457E+01  0.4047E+01
     -5.811  0.2090E+02  0.5184E+01
     -5.756  0.8831E+01  0.5665E+01
     -5.702  0.3571E+02  0.7608E+01
     -5.648  0.3335E+02  0.9423E+01
     -5.593  0.2963E+02  0.1104E+02
     -5.539  0.1745E+02  0.1198E+02
     -5.484  0.3628E+02  0.1396E+02
     -5.430  0.9939E+01  0.1450E+02
     -5.376  0.1704E+01  0.1459E+02
     -5.321  0.9724E+01  0.1512E+02
     -5.267  0.3933E+01  0.1534E+02
     -5.212  0.3152E+02  0.1705E+02
     -5.158  0.3580E+02  0.1900E+02
     -5.104  0.3840E+02  0.2109E+02
     -5.049  0.3964E+02  0.2324E+02
     -4.995  0.5878E+02  0.2644E+02
     -4.940  0.1575E+02  0.2730E+02
     -4.886  0.2563E+02  0.2869E+02
     -4.831  0.2108E+02  0.2984E+02
     -4.777  0.1873E+02  0.3086E+02
     -4.723  0.4157E+02  0.3312E+02
     -4.668  0.3465E+02  0.3501E+02
     -4.614  0.3992E+02  0.3718E+02
     -4.559  0.4016E+02  0.3937E+02
     -4.505  0.2494E+02  0.4072E+02
     -4.451  0.3029E+02  0.4237E+02
     -4.396  0.1685E+02  0.4329E+02
     -4.342  0.2661E+02  0.4474E+02
     -4.287  0.4481E+02  0.4717E+02
     -4.233  0.4502E+02  0.4962E+02
     -4.179  0.4528E+02  0.5209E+02
     -4.124  0.5459E+02  0.5506E+02
     -4.070  0.6154E+02  0.5841E+02
     -4.015  0.4910E+02  0.6108E+02
     -3.961  0.5800E+02  0.6423E+02
     -3.906  0.4116E+02  0.6647E+02
     -3.852  0.4652E+02  0.6900E+02
     -3.798  0.5980E+02  0.7226E+02
     -3.743  0.4991E+02  0.7497E+02
     -3.689  0.4067E+02  0.7719E+02
     -3.634  0.2711E+02  0.7866E+02
     -3.580  0.3460E+02  0.8055E+02
     -3.526  0.3895E+02  0.8266E+02
     -3.471  0.5263E+02  0.8553E+02
     -3.417  0.5968E+02  0.8878E+02
     -3.362  0.3460E+02  0.9066E+02
     -3.308  0.5102E+02  0.9343E+02
     -3.254  0.4047E+02  0.9564E+02
     -3.199  0.3404E+02  0.9749E+02
     -3.145  0.3190E+02  0.9922E+02
     -3.090  0.4859E+02  0.1019E+03
     -3.036  0.4740E+02  0.1044E+03
     -2.981  0.3854E+02  0.1065E+03
     -2.927  0.4099E+02  0.1088E+03
     -2.873  0.3320E+02  0.1106E+03
     -2.818  0.2816E+02  0.1121E+03
     -2.764  0.3651E+02  0.1141E+03
     -2.709  0.2603E+02  0.1155E+03
     -2.655  0.4745E+02  0.1181E+03
     -2.601  0.3944E+02  0.1202E+03
     -2.546  0.2387E+02  0.1215E+03
     -2.492  0.1808E+02  0.1225E+03
     -2.437  0.4091E+01  0.1228E+03
     -2.383  0.4581E+01  0.1230E+03
     -2.329  0.3781E+01  0.1232E+03
     -2.274  0.8883E+01  0.1237E+03
     -2.220  0.1360E+02  0.1244E+03
     -2.165  0.2669E+02  0.1259E+03
     -2.111  0.3559E+02  0.1278E+03
     -2.056  0.3423E+02  0.1297E+03
     -2.002  0.1512E+02  0.1305E+03
     -1.948  0.2354E+02  0.1318E+03
     -1.893  0.1316E+02  0.1325E+03
     -1.839  0.5117E+01  0.1328E+03
     -1.784  0.4072E+01  0.1330E+03
     -1.730  0.7387E+01  0.1334E+03
     -1.676  0.2196E+02  0.1346E+03
     -1.621  0.2112E+02  0.1357E+03
     -1.567  0.3375E+02  0.1376E+03
     -1.512  0.3931E+02  0.1397E+03
     -1.458  0.2547E+02  0.1411E+03
     -1.404  0.2971E+02  0.1427E+03
     -1.349  0.5812E+02  0.1459E+03
     -1.295  0.4606E+02  0.1484E+03
     -1.240  0.6577E+02  0.1520E+03
     -1.186  0.4483E+02  0.1544E+03
     -1.131  0.6284E+02  0.1578E+03
     -1.077  0.6027E+02  0.1611E+03
     -1.023  0.5443E+02  0.1641E+03
     -0.968  0.6294E+02  0.1675E+03
     -0.914  0.6225E+02  0.1709E+03
     -0.859  0.4611E+02  0.1734E+03
     -0.805  0.7858E+02  0.1777E+03
     -0.751  0.5980E+02  0.1809E+03
     -0.696  0.4773E+02  0.1835E+03
     -0.642  0.4879E+02  0.1862E+03
     -0.587  0.3961E+02  0.1883E+03
     -0.533  0.1983E+02  0.1894E+03
     -0.479  0.2152E+02  0.1906E+03
     -0.424  0.2562E+02  0.1920E+03
     -0.370  0.3794E+02  0.1940E+03
     -0.315  0.3863E+02  0.1961E+03
     -0.261  0.4982E+02  0.1989E+03
     -0.206  0.5414E+02  0.2018E+03
     -0.152  0.3948E+02  0.2039E+03
     -0.098  0.5014E+02  0.2067E+03
     -0.043  0.4220E+02  0.2090E+03
      0.011  0.4300E+02  0.2113E+03
      0.066  0.2813E+02  0.2128E+03
      0.120  0.9975E+01  0.2134E+03
      0.174  0.1113E+02  0.2140E+03
      0.229  0.1144E+02  0.2146E+03
      0.283  0.1531E+02  0.2154E+03
      0.338  0.2781E+02  0.2170E+03
      0.392  0.2310E+02  0.2182E+03
      0.446  0.3097E+02  0.2199E+03
      0.501  0.2474E+02  0.2212E+03
      0.555  0.2205E+02  0.2224E+03
      0.610  0.2722E+02  0.2239E+03
      0.664  0.2028E+02  0.2250E+03
      0.719  0.2053E+02  0.2261E+03
      0.773  0.6664E+01  0.2265E+03
      0.827  0.1838E+02  0.2275E+03
      0.882  0.4468E+01  0.2278E+03
      0.936  0.1705E+02  0.2287E+03
      0.991  0.3249E+02  0.2304E+03
      1.045  0.2833E+02  0.2320E+03
      1.099  0.3430E+02  0.2339E+03
      1.154  0.2633E+02  0.2353E+03
      1.208  0.2668E+02  0.2367E+03
      1.263  0.2260E+02  0.2380E+03
      1.317  0.3123E+02  0.2397E+03
      1.371  0.2434E+02  0.2410E+03
      1.426  0.5377E+02  0.2439E+03
      1.480  0.6416E+02  0.2474E+03
      1.535  0.8237E+02  0.2519E+03
      1.589  0.8645E+02  0.2566E+03
      1.644  0.8868E+02  0.2614E+03
      1.698  0.7036E+02  0.2652E+03
      1.752  0.4294E+02  0.2676E+03
      1.807  0.4773E+02  0.2702E+03
      1.861  0.3676E+02  0.2722E+03
      1.916  0.2556E+02  0.2736E+03
      1.970  0.1723E+02  0.2745E+03
      2.024  0.5220E+02  0.2774E+03
      2.079  0.6563E+02  0.2809E+03
      2.133  0.8505E+02  0.2855E+03
      2.188  0.1142E+03  0.2918E+03
      2.242  0.1158E+03  0.2981E+03
      2.296  0.1141E+03  0.3043E+03
      2.351  0.1011E+03  0.3098E+03
      2.405  0.1121E+03  0.3159E+03
      2.460  0.5884E+02  0.3191E+03
      2.514  0.6126E+02  0.3224E+03
      2.569  0.2741E+02  0.3239E+03
      2.623  0.5334E+02  0.3268E+03
      2.677  0.6668E+02  0.3304E+03
      2.732  0.8536E+02  0.3351E+03
      2.786  0.9795E+02  0.3404E+03
      2.841  0.7953E+02  0.3447E+03
      2.895  0.8980E+02  0.3496E+03
      2.949  0.1038E+03  0.3553E+03
      3.004  0.8994E+02  0.3602E+03
      3.058  0.7799E+02  0.3644E+03
      3.113  0.8165E+02  0.3688E+03
      3.167  0.7863E+02  0.3731E+03
      3.221  0.7916E+02  0.3774E+03
      3.276  0.8157E+02  0.3819E+03
      3.330  0.1035E+03  0.3875E+03
      3.385  0.9280E+02  0.3926E+03
      3.439  0.1001E+03  0.3980E+03
      3.494  0.7764E+02  0.4022E+03
      3.548  0.8720E+02  0.4070E+03
      3.602  0.7531E+02  0.4111E+03
      3.657  0.8767E+02  0.4158E+03
      3.711  0.5986E+02  0.4191E+03
      3.766  0.8568E+02  0.4238E+03
      3.820  0.7769E+02  0.4280E+03
      3.874  0.8813E+02  0.4328E+03
      3.929  0.8426E+02  0.4374E+03
      3.983  0.6228E+02  0.4407E+03
      4.038  0.5649E+02  0.4438E+03
      4.092  0.6892E+02  0.4476E+03
      4.146  0.5751E+02  0.4507E+03
      4.201  0.7768E+02  0.4549E+03
      4.255  0.6897E+02  0.4587E+03
      4.310  0.7018E+02  0.4625E+03
      4.364  0.7130E+02  0.4664E+03
      4.419  0.7207E+02  0.4703E+03
      4.473  0.7015E+02  0.4741E+03
      4.527  0.5900E+02  0.4773E+03
      4.582  0.6224E+02  0.4807E+03
      4.636  0.6253E+02  0.4841E+03
      4.691  0.5823E+02  0.4873E+03
      4.745  0.3685E+02  0.4893E+03
      4.799  0.3636E+02  0.4913E+03
      4.854  0.2645E+02  0.4927E+03
      4.908  0.3295E+02  0.4945E+03
      4.963  0.3968E+02  0.4967E+03
      5.017  0.3816E+02  0.4987E+03
      5.071  0.2401E+02  0.5000E+03
      5.126  0.3373E+02  0.5019E+03
      5.180  0.2204E+02  0.5031E+03
      5.235  0.6650E+01  0.5034E+03
      5.289  0.7886E+01  0.5039E+03
      5.344  0.5585E+01  0.5042E+03
      5.398  0.1790E+02  0.5051E+03
      5.452  0.3309E+02  0.5069E+03
      5.507  0.3024E+02  0.5086E+03
      5.561  0.1482E+02  0.5094E+03
      5.616  0.1634E+02  0.5103E+03
      5.670  0.1765E+02  0.5112E+03
      5.724  0.3015E+01  0.5114E+03
      5.779  0.5417E+01  0.5117E+03
      5.833  0.2159E+01  0.5118E+03
      5.888  0.3207E+01  0.5120E+03
      5.942  0.0000E+00  0.5120E+03
      5.996  0.0000E+00  0.5120E+03
      6.051  0.9721E-06  0.5120E+03
      6.105  0.8786E+01  0.5125E+03
      6.160  0.1516E+02  0.5133E+03
      6.214  0.1724E+02  0.5142E+03
      6.269  0.1468E+02  0.5150E+03
      6.323  0.2640E+02  0.5165E+03
      6.377  0.2091E+02  0.5176E+03
      6.432  0.2549E+02  0.5190E+03
      6.486  0.1159E+02  0.5196E+03
      6.541  0.2707E+02  0.5211E+03
      6.595  0.1641E+02  0.5220E+03
      6.649  0.2109E+02  0.5231E+03
      6.704  0.3589E+02  0.5251E+03
      6.758  0.2943E+02  0.5267E+03
      6.813  0.3393E+02  0.5285E+03
      6.867  0.2399E+02  0.5299E+03
      6.921  0.3676E+02  0.5319E+03
      6.976  0.5402E+02  0.5348E+03
      7.030  0.3580E+02  0.5367E+03
      7.085  0.3010E+02  0.5384E+03
      7.139  0.4389E+02  0.5408E+03
      7.194  0.4140E+02  0.5430E+03
      7.248  0.5489E+02  0.5460E+03
      7.302  0.7791E+02  0.5502E+03
      7.357  0.7123E+02  0.5541E+03
      7.411  0.7694E+02  0.5583E+03
      7.466  0.8270E+02  0.5628E+03
      7.520  0.7483E+02  0.5669E+03
      7.574  0.8612E+02  0.5716E+03
      7.629  0.8836E+02  0.5764E+03
      7.683  0.8790E+02  0.5812E+03
      7.738  0.9602E+02  0.5864E+03
      7.792  0.9062E+02  0.5913E+03
      7.846  0.8841E+02  0.5961E+03
      7.901  0.9386E+02  0.6012E+03
      7.955  0.6913E+02  0.6050E+03
      8.010  0.9552E+02  0.6102E+03
      8.064  0.9047E+02  0.6151E+03
      8.119  0.8243E+02  0.6196E+03
      8.173  0.7782E+02  0.6238E+03
      8.227  0.7585E+02  0.6280E+03
      8.282  0.8534E+02  0.6326E+03
      8.336  0.9052E+02  0.6375E+03
      8.391  0.6702E+02  0.6412E+03
      8.445  0.3805E+02  0.6432E+03
      8.499  0.7600E+01  0.6437E+03
      8.554  0.6341E+01  0.6440E+03
      8.608  0.0000E+00  0.6440E+03
      8.663  0.0000E+00  0.6440E+03
      8.717  0.0000E+00  0.6440E+03
      8.771  0.0000E+00  0.6440E+03
      8.826  0.0000E+00  0.6440E+03
      8.880  0.0000E+00  0.6440E+03
      8.935  0.0000E+00  0.6440E+03
      8.989  0.0000E+00  0.6440E+03
      9.044  0.0000E+00  0.6440E+03
      9.098  0.0000E+00  0.6440E+03
      9.152  0.0000E+00  0.6440E+03
      9.207  0.0000E+00  0.6440E+03
      9.261  0.0000E+00  0.6440E+03
