 vasp.5.4.4.18Apr17-6-g9f103f2a35 (build Nov 08 2017 09:05:29) complex          
  
 executed on          Intel_17.33 date 2020.07.18  19:20:46
 running on   32 total cores
 distrk:  each k-point on   32 cores,    1 groups
 distr:  one band on NCORES_PER_BAND=  16 cores,    2 groups


--------------------------------------------------------------------------------------------------------


 INCAR:
 POTCAR:   PAW_PBE Si 05Jan2001                   

 ----------------------------------------------------------------------------- 
|                                                                             |
|           W    W    AA    RRRRR   N    N  II  N    N   GGGG   !!!           |
|           W    W   A  A   R    R  NN   N  II  NN   N  G    G  !!!           |
|           W    W  A    A  R    R  N N  N  II  N N  N  G       !!!           |
|           W WW W  AAAAAA  RRRRR   N  N N  II  N  N N  G  GGG   !            |
|           WW  WW  A    A  R   R   N   NN  II  N   NN  G    G                |
|           W    W  A    A  R    R  N    N  II  N    N   GGGG   !!!           |
|                                                                             |
|      For optimal performance we recommend to set                            |
|        NCORE= 4 - approx SQRT( number of cores)                             |
|      NCORE specifies how many cores store one orbital (NPAR=cpu/NCORE).     |
|      This setting can  greatly improve the performance of VASP for DFT.     |
|      The default,   NCORE=1            might be grossly inefficient         |
|      on modern multi-core architectures or massively parallel machines.     |
|      Do your own testing !!!!                                               |
|      Unfortunately you need to use the default for GW and RPA calculations. |
|      (for HF NCORE is supported but not extensively tested yet)             |
|                                                                             |
 ----------------------------------------------------------------------------- 

 POTCAR:   PAW_PBE Si 05Jan2001                   
   VRHFIN =Si: s2p2                                                             
   LEXCH  = PE                                                                  
   EATOM  =   103.0669 eV,    7.5752 Ry                                         
                                                                                
   TITEL  = PAW_PBE Si 05Jan2001                                                
   LULTRA =        F    use ultrasoft PP ?                                      
   IUNSCR =        1    unscreen: 0-lin 1-nonlin 2-no                           
   RPACOR =    1.500    partial core radius                                     
   POMASS =   28.085; ZVAL   =    4.000    mass and valenz                      
   RCORE  =    1.900    outmost cutoff radius                                   
   RWIGS  =    2.480; RWIGS  =    1.312    wigner-seitz radius (au A)           
   ENMAX  =  245.345; ENMIN  =  184.009 eV                                      
   ICORE  =        2    local potential                                         
   LCOR   =        T    correct aug charges                                     
   LPAW   =        T    paw PP                                                  
   EAUG   =  322.069                                                            
   DEXC   =    -.007                                                            
   RMAX   =    2.944    core radius for proj-oper                               
   RAUG   =    1.300    factor for augmentation sphere                          
   RDEP   =    1.993    radius for radial grids                                 
   QCUT   =   -4.246; QGAM   =    8.493    optimization parameters              
                                                                                
   Description                                                                  
     l     E      TYP  RCUT    TYP  RCUT                                        
     0   .000     23  1.900                                                     
     0   .000     23  1.900                                                     
     1   .000     23  1.900                                                     
     1   .000     23  1.900                                                     
     2   .000      7  1.900                                                     
  local pseudopotential read in
  partial core-charges read in
  atomic valenz-charges read in
  non local Contribution for L=           0  read in
    real space projection operators read in
  non local Contribution for L=           0  read in
    real space projection operators read in
  non local Contribution for L=           1  read in
    real space projection operators read in
  non local Contribution for L=           1  read in
    real space projection operators read in
    PAW grid and wavefunctions read in
 
   number of l-projection  operators is LMAX  =           4
   number of lm-projection operators is LMMAX =           8
 

 ----------------------------------------------------------------------------- 
|                                                                             |
|  ADVICE TO THIS USER RUNNING 'VASP/VAMP'   (HEAR YOUR MASTER'S VOICE ...):  |
|                                                                             |
|      You have a (more or less) 'large supercell' and for larger cells       |
|      it might be more efficient to use real space projection operators      |
|      So try LREAL= Auto  in the INCAR   file.                               |
|      Mind: If you want to do a very accurate calculations keep the          |
|      reciprocal projection scheme          (i.e. LREAL=.FALSE.)             |
|                                                                             |
 ----------------------------------------------------------------------------- 

 PAW_PBE Si 05Jan2001                   :
 energy of atom  1       EATOM= -103.0669
 kinetic energy error for atom=    0.0006 (will be added to EATOM!!)
 
 
 POSCAR: kk                                      
  positions in direct lattice
  No initial velocities read in
 exchange correlation table for  LEXCH =        8
   RHO(1)=    0.500       N(1)  =     2000
   RHO(2)=  100.500       N(2)  =     4000
 


--------------------------------------------------------------------------------------------------------


 ion  position               nearest neighbor table
   1  0.997  0.004  0.997- 113 2.30  68 2.31  77 2.46  65 2.47
   2  0.254  0.986  0.003-  78 2.27 114 2.40  65 2.47  66 2.56
   3  0.500  0.007  0.002-  66 2.24  67 2.34  79 2.43 115 2.47
   4  0.746  0.009  0.009-  80 2.12  68 2.18  67 2.34 116 2.54
   5  0.009  0.249  0.009- 117 2.30  69 2.33  72 2.34  65 2.35
   6  0.243  0.264  0.994-  69 2.22 118 2.24  70 2.32  66 2.45
   7  0.504  0.253  0.999-  71 2.29  70 2.31  67 2.35 119 2.53
   8  0.756  0.240  0.003-  68 2.37  72 2.47  71 2.48 120 2.50
   9  0.998  0.512  0.011-  73 2.20 121 2.36  76 2.37  69 2.44
  10  0.263  0.493  0.000- 122 2.30  70 2.32  74 2.39  73 2.40
  11  0.508  0.506  0.981- 123 2.19  74 2.35  75 2.39  71 2.57
  12  0.750  0.497  0.007-  72 2.38  76 2.40 124 2.44  75 2.46
  13  0.002  0.754  0.996-  77 2.29 125 2.36  73 2.48  80 2.54
  14  0.255  0.735  0.998-  74 2.17  77 2.42 126 2.45  78 2.46
  15  0.511  0.760  0.988- 127 2.21  79 2.27  75 2.46  78 2.55
  16  0.743  0.752  0.999-  76 2.20  79 2.24 128 2.36  80 2.58
  17  0.997  0.998  0.262-  93 2.34  81 2.35  84 2.36  65 2.41
  18  0.253  0.994  0.253-  94 2.30  82 2.30  81 2.37  66 2.59
  19  0.498  0.994  0.249-  95 2.28  67 2.31  82 2.39  83 2.43
  20  0.744  0.002  0.246-  68 2.24  83 2.29  96 2.38  84 2.50
  21  0.999  0.258  0.249-  85 2.32  69 2.34  81 2.36  88 2.39
  22  0.264  0.248  0.248-  86 2.17  70 2.49  85 2.50  82 2.54
  23  0.508  0.249  0.245-  71 2.17  83 2.23  86 2.64  87 2.64
  24  0.743  0.247  0.241-  87 2.19  72 2.29  84 2.33  88 2.63
  25  0.980  0.492  0.262-  92 2.13  85 2.31  73 2.52  89 2.53
  26  0.264  0.496  0.244-  86 2.20  90 2.26  74 2.35  89 2.57
  27  0.508  0.503  0.244-  75 2.30  91 2.38  90 2.41  87 2.53
  28  0.769  0.496  0.241-  88 2.29  92 2.31  91 2.37  76 2.41
  29  0.995  0.763  0.245-  77 2.36  93 2.43  96 2.44  89 2.53
  30  0.251  0.748  0.243-  78 2.24  90 2.34  94 2.38  93 2.39
  31  0.507  0.739  0.254-  95 2.26  91 2.39  79 2.46  94 2.60
  32  0.759  0.739  0.242-  92 2.21  80 2.43  95 2.60  96 2.62
  33  0.991  0.997  0.505- 100 2.14 109 2.26  81 2.54  97 2.61
  34  0.239  0.001  0.500-  82 2.24  97 2.29  98 2.43 110 2.49
  35  0.510  0.997  0.507-  99 2.22 111 2.26  98 2.52  83 2.66
  36  0.755  0.003  0.495-  84 2.25  99 2.33 112 2.41 100 2.55
  37  0.011  0.252  0.493-  97 2.17  85 2.28 101 2.31 104 2.33
  38  0.260  0.251  0.496- 102 2.18  86 2.39 101 2.48  98 2.53
  39  0.496  0.251  0.515- 103 2.18 102 2.20  87 2.34  99 2.44
  40  0.747  0.250  0.512- 100 2.31 103 2.33 104 2.47  88 2.49
  41  0.000  0.500  0.492-  89 2.29 108 2.36 105 2.53 101 2.57
  42  0.246  0.498  0.501- 106 2.27 105 2.42 102 2.44  90 2.50
  43  0.489  0.506  0.505- 107 2.26 106 2.30  91 2.48 103 2.55
  44  0.744  0.502  0.497- 104 2.32 107 2.33  92 2.34 108 2.51
  45  0.990  0.760  0.507- 112 2.21 109 2.22  93 2.37 105 2.49
  46  0.261  0.733  0.507- 106 2.20  94 2.42 110 2.53 109 2.63
  47  0.503  0.746  0.506- 110 2.31 111 2.35 107 2.45  95 2.46
  48  0.764  0.746  0.498-  96 2.17 108 2.19 112 2.28 111 2.44
  49  0.998  0.994  0.757- 116 2.19 125 2.24 113 2.25  97 2.51
  50  0.248  0.025  0.742-  98 2.23 114 2.27 113 2.59 126 2.64
  51  0.503  0.003  0.736-  99 2.21 127 2.30 115 2.40 114 2.44
  52  0.740  0.013  0.748- 115 2.23 116 2.33 100 2.34 128 2.51
  53  0.999  0.252  0.757- 120 2.30 101 2.32 113 2.36 117 2.48
  54  0.244  0.250  0.755- 114 2.29 117 2.31 118 2.54 102 2.61
  55  0.505  0.256  0.743- 119 2.22 103 2.23 118 2.29 115 2.49
  56  0.745  0.243  0.755- 119 2.24 120 2.42 116 2.48 104 2.54
  57  0.999  0.502  0.753- 105 2.26 124 2.26 117 2.36 121 2.46
  58  0.248  0.489  0.742- 121 2.33 106 2.33 118 2.35 122 2.73
  59  0.509  0.505  0.747- 123 2.30 107 2.31 119 2.45 122 2.58
  60  0.766  0.503  0.733- 108 2.26 124 2.35 120 2.42 123 2.60
  61  0.988  0.749  0.753- 128 2.39 109 2.42 121 2.46 125 2.49
  62  0.239  0.753  0.751- 110 2.23 125 2.25 122 2.31 126 2.47
  63  0.497  0.752  0.761- 123 2.25 126 2.28 127 2.35 111 2.66
  64  0.751  0.750  0.750- 128 2.20 112 2.40 127 2.43 124 2.46
  65  0.060  0.063  0.071-   5 2.35  17 2.41   2 2.47   1 2.47
  66  0.324  0.071  0.048-   3 2.24   6 2.45   2 2.56  18 2.59
  67  0.561  0.067  0.067-  19 2.31   4 2.34   3 2.34   7 2.35
  68  0.815  0.053  0.069-   4 2.18  20 2.24   1 2.31   8 2.37
  69  0.067  0.319  0.064-   6 2.22   5 2.33  21 2.34   9 2.44
  70  0.322  0.310  0.051-   7 2.31  10 2.32   6 2.32  22 2.49
  71  0.560  0.304  0.073-  23 2.17   7 2.29   8 2.48  11 2.57
  72  0.824  0.309  0.062-  24 2.29   5 2.34  12 2.38   8 2.47
  73  0.073  0.558  0.065-   9 2.20  10 2.40  13 2.48  25 2.52
  74  0.323  0.564  0.058-  14 2.17  26 2.35  11 2.35  10 2.39
  75  0.555  0.567  0.062-  27 2.30  11 2.39  12 2.46  15 2.46
  76  0.812  0.578  0.052-  16 2.20   9 2.37  12 2.40  28 2.41
  77  0.064  0.810  0.059-  13 2.29  29 2.36  14 2.42   1 2.46
  78  0.311  0.806  0.066-  30 2.24   2 2.27  14 2.46  15 2.55
  79  0.565  0.815  0.059-  16 2.24  15 2.27   3 2.43  31 2.46
  80  0.801  0.841  0.054-   4 2.12  32 2.43  13 2.54  16 2.58
  81  0.066  0.071  0.304-  17 2.35  21 2.36  18 2.37  33 2.54
  82  0.309  0.049  0.324-  34 2.24  18 2.30  19 2.39  22 2.54
  83  0.563  0.072  0.298-  23 2.23  20 2.29  19 2.43  35 2.66
  84  0.810  0.063  0.317-  36 2.25  24 2.33  17 2.36  20 2.50
  85  0.066  0.311  0.312-  37 2.28  25 2.31  21 2.32  22 2.50
  86  0.299  0.323  0.308-  22 2.17  26 2.20  38 2.39  23 2.64
  87  0.575  0.304  0.331-  24 2.19  39 2.34  27 2.53  23 2.64
  88  0.809  0.315  0.314-  28 2.29  21 2.39  40 2.49  24 2.63
  89  0.060  0.563  0.311-  41 2.29  29 2.53  25 2.53  26 2.57
  90  0.317  0.563  0.303-  26 2.26  30 2.34  27 2.41  42 2.50
  91  0.581  0.550  0.311-  28 2.37  27 2.38  31 2.39  43 2.48
  92  0.812  0.564  0.311-  25 2.13  32 2.21  28 2.31  44 2.34
  93  0.063  0.812  0.319-  17 2.34  45 2.37  30 2.39  29 2.43
  94  0.301  0.812  0.316-  18 2.30  30 2.38  46 2.42  31 2.60
  95  0.553  0.814  0.312-  31 2.26  19 2.28  47 2.46  32 2.60
  96  0.802  0.815  0.327-  48 2.17  20 2.38  29 2.44  32 2.62
  97  0.059  0.080  0.559-  37 2.17  34 2.29  49 2.51  33 2.61
  98  0.312  0.051  0.569-  50 2.23  34 2.43  35 2.52  38 2.53
  99  0.570  0.059  0.561-  51 2.21  35 2.22  36 2.33  39 2.44
 100  0.823  0.067  0.564-  33 2.14  40 2.31  52 2.34  36 2.55
 101  0.065  0.297  0.574-  37 2.31  53 2.32  38 2.48  41 2.57
 102  0.325  0.306  0.549-  38 2.18  39 2.20  42 2.44  54 2.61
 103  0.563  0.304  0.567-  39 2.18  55 2.23  40 2.33  43 2.55
 104  0.827  0.320  0.556-  44 2.32  37 2.33  40 2.47  56 2.54
 105  0.055  0.563  0.574-  57 2.26  42 2.42  45 2.49  41 2.53
 106  0.308  0.560  0.557-  46 2.20  42 2.27  43 2.30  58 2.33
 107  0.560  0.553  0.566-  43 2.26  59 2.31  44 2.33  47 2.45
 108  0.813  0.573  0.555-  48 2.19  60 2.26  41 2.36  44 2.51
 109  0.053  0.818  0.561-  45 2.22  33 2.26  61 2.42  46 2.63
 110  0.320  0.806  0.576-  62 2.23  47 2.31  34 2.49  46 2.53
 111  0.571  0.819  0.550-  35 2.26  47 2.35  48 2.44  63 2.66
 112  0.816  0.812  0.560-  45 2.21  48 2.28  64 2.40  36 2.41
 113  0.044  0.067  0.816-  49 2.25   1 2.30  53 2.36  50 2.59
 114  0.311  0.069  0.814-  50 2.27  54 2.29   2 2.40  51 2.44
 115  0.564  0.060  0.807-  52 2.23  51 2.40   3 2.47  55 2.49
 116  0.825  0.048  0.810-  49 2.19  52 2.33  56 2.48   4 2.54
 117  0.061  0.316  0.827-   5 2.30  54 2.31  57 2.36  53 2.48
 118  0.324  0.305  0.819-   6 2.24  55 2.29  58 2.35  54 2.54
 119  0.568  0.312  0.799-  55 2.22  56 2.24  59 2.45   7 2.53
 120  0.817  0.312  0.805-  53 2.30  60 2.42  56 2.42   8 2.50
 121  0.067  0.556  0.825-  58 2.33   9 2.36  61 2.46  57 2.46
 122  0.305  0.571  0.819-  10 2.30  62 2.31  59 2.58  58 2.73
 123  0.561  0.574  0.808-  11 2.19  63 2.25  59 2.30  60 2.60
 124  0.820  0.555  0.814-  57 2.26  60 2.35  12 2.44  64 2.46
 125  0.060  0.817  0.810-  49 2.24  62 2.25  13 2.36  61 2.49
 126  0.317  0.815  0.805-  63 2.28  14 2.45  62 2.47  50 2.64
 127  0.559  0.822  0.814-  15 2.21  51 2.30  63 2.35  64 2.43
 128  0.799  0.814  0.812-  64 2.20  16 2.36  61 2.39  52 2.51
 
  LATTYP: Found a face centered cubic cell.
 ALAT       =    21.8746673814
  
  Lattice vectors:
  
 A1 = (   0.0000000000,  10.9373336907,  10.9373336907)
 A2 = (  10.9373336907,   0.0000000000,  10.9373336907)
 A3 = (  10.9373336907,  10.9373336907,   0.0000000000)


Analysis of symmetry for initial positions (statically):
=====================================================================
 Subroutine PRICEL returns:
 Original cell was already a primitive cell.
 

 Routine SETGRP: Setting up the symmetry group for a 
 face centered cubic supercell.


 Subroutine GETGRP returns: Found  1 space group operations
 (whereof  1 operations were pure point group operations)
 out of a pool of 48 trial point group operations.


The static configuration has the point symmetry C_1 .


Analysis of symmetry for dynamics (positions and initial velocities):
=====================================================================
 Subroutine PRICEL returns:
 Original cell was already a primitive cell.
 

 Routine SETGRP: Setting up the symmetry group for a 
 face centered cubic supercell.


 Subroutine GETGRP returns: Found  1 space group operations
 (whereof  1 operations were pure point group operations)
 out of a pool of 48 trial point group operations.


The dynamic configuration has the point symmetry C_1 .


 Subroutine INISYM returns: Found  1 space group operations
 (whereof  1 operations are pure point group operations),
 and found     1 'primitive' translations

 
 
 KPOINTS: KPOINTS File, automatically generated by

Automatic generation of k-mesh.
Space group operators:
 irot       det(A)        alpha          n_x          n_y          n_z        tau_x        tau_y        tau_z
    1     1.000000     0.000001     1.000000     0.000000     0.000000     0.000000     0.000000     0.000000
 
 Subroutine IBZKPT returns following result:
 ===========================================
 
 Found      8 irreducible k-points:
 
 Following reciprocal coordinates:
            Coordinates               Weight
  0.000000  0.000000  0.000000      1.000000
  0.500000  0.000000  0.000000      1.000000
  0.000000  0.500000  0.000000      1.000000
  0.500000  0.500000  0.000000      1.000000
  0.000000  0.000000  0.500000      1.000000
  0.500000  0.000000  0.500000      1.000000
  0.000000  0.500000  0.500000      1.000000
  0.500000  0.500000  0.500000      1.000000
 
 Following cartesian coordinates:
            Coordinates               Weight
  0.000000  0.000000  0.000000      1.000000
 -0.022857  0.022857  0.022857      1.000000
  0.022857 -0.022857  0.022857      1.000000
  0.000000  0.000000  0.045715      1.000000
  0.022857  0.022857 -0.022857      1.000000
  0.000000  0.045715  0.000000      1.000000
  0.045715  0.000000  0.000000      1.000000
  0.022857  0.022857  0.022857      1.000000
 


--------------------------------------------------------------------------------------------------------




 Dimension of arrays:
   k-points           NKPTS =      8   k-points in BZ     NKDIM =      8   number of bands    NBANDS=    322
   number of dos      NEDOS =    301   number of ions     NIONS =    128
   non local maximal  LDIM  =      4   non local SUM 2l+1 LMDIM =      8
   total plane-waves  NPLWV = ******
   max r-space proj   IRMAX =      1   max aug-charges    IRDMAX= 176811
   dimension x,y,z NGX =   120 NGY =  120 NGZ =  120
   dimension x,y,z NGXF=   240 NGYF=  240 NGZF=  240
   support grid    NGXF=   480 NGYF=  480 NGZF=  480
   ions per type =             128
   NGX,Y,Z   is equivalent  to a cutoff of  12.90, 12.90, 12.90 a.u.
   NGXF,Y,Z  is equivalent  to a cutoff of  25.80, 25.80, 25.80 a.u.

 SYSTEM =  potpaw_PBE@./ARUN.APL1ZEROSTATE         
 POSCAR =  kk                                      

 Startparameter for this run:
   NWRITE =      2    write-flag & timer
   PREC   = accura    normal or accurate (medium, high low for compatibility)
   ISTART =      0    job   : 0-new  1-cont  2-samecut
   ICHARG =      2    charge: 1-file 2-atom 10-const
   ISPIN  =      1    spin polarized calculation?
   LNONCOLLINEAR =      F non collinear calculations
   LSORBIT =      F    spin-orbit coupling
   INIWAV =      1    electr: 0-lowe 1-rand  2-diag
   LASPH  =      F    aspherical Exc in radial PAW
   METAGGA=      F    non-selfconsistent MetaGGA calc.

 Electronic Relaxation 1
   ENCUT  =  500.0 eV  36.75 Ry    6.06 a.u.  28.20 28.20 28.20*2*pi/ulx,y,z
   ENINI  =  500.0     initial cutoff
   ENAUG  =  322.1 eV  augmentation charge cutoff
   NELM   =    120;   NELMIN=  4; NELMDL= -5     # of ELM steps 
   EDIFF  = 0.1E-07   stopping-criterion for ELM
   LREAL  =      F    real-space projection
   NLSPLINE    = F    spline interpolate recip. space projectors
   LCOMPAT=      F    compatible to vasp.4.4
   GGA_COMPAT  = T    GGA compatible to vasp.4.4-vasp.4.6
   LMAXPAW     = -100 max onsite density
   LMAXMIX     =    2 max onsite mixed and CHGCAR
   VOSKOWN=      0    Vosko Wilk Nusair interpolation
   ROPT   =    0.00000
 Ionic relaxation
   EDIFFG = 0.1E-06   stopping-criterion for IOM
   NSW    =      0    number of steps for IOM
   NBLOCK =      1;   KBLOCK =      1    inner block; outer block 
   IBRION =     -1    ionic relax: 0-MD 1-quasi-New 2-CG
   NFREE  =      0    steps in history (QN), initial steepest desc. (CG)
   ISIF   =      2    stress and relaxation
   IWAVPR =     10    prediction:  0-non 1-charg 2-wave 3-comb
   ISYM   =      2    0-nonsym 1-usesym 2-fastsym
   LCORR  =      T    Harris-Foulkes like correction to forces

   POTIM  = 0.5000    time-step for ionic-motion
   TEIN   =    0.0    initial temperature
   TEBEG  =    0.0;   TEEND  =   0.0 temperature during run
   SMASS  =  -3.00    Nose mass-parameter (am)
   estimated Nose-frequenzy (Omega)   =  0.10E-29 period in steps =****** mass=  -0.547E-26a.u.
   SCALEE = 1.0000    scale energy and forces
   NPACO  =    256;   APACO  = 16.0  distance and # of slots for P.C.
   PSTRESS=    0.0 pullay stress

  Mass of Ions in am
   POMASS =  28.09
  Ionic Valenz
   ZVAL   =   4.00
  Atomic Wigner-Seitz radii
   RWIGS  =  -1.00
  virtual crystal weights 
   VCA    =   1.00
   NELECT =     512.0000    total number of electrons
   NUPDOWN=      -1.0000    fix difference up-down

 DOS related values:
   EMIN   =  10.00;   EMAX   =-10.00  energy-range for DOS
   EFERMI =   0.00
   ISMEAR =     0;   SIGMA  =   0.01  broadening in eV -4-tet -1-fermi 0-gaus

 Electronic relaxation 2 (details)
   IALGO  =     38    algorithm
   LDIAG  =      T    sub-space diagonalisation (order eigenvalues)
   LSUBROT=      F    optimize rotation matrix (better conditioning)
   TURBO    =      0    0=normal 1=particle mesh
   IRESTART =      0    0=no restart 2=restart with 2 vectors
   NREBOOT  =      0    no. of reboots
   NMIN     =      0    reboot dimension
   EREF     =   0.00    reference energy to select bands
   IMIX   =      4    mixing-type and parameters
     AMIX     =   0.40;   BMIX     =  1.00
     AMIX_MAG =   1.60;   BMIX_MAG =  1.00
     AMIN     =   0.10
     WC   =   100.;   INIMIX=   1;  MIXPRE=   1;  MAXMIX= -45

 Intra band minimization:
   WEIMIN = 0.0000     energy-eigenvalue tresh-hold
   EBREAK =  0.78E-11  absolut break condition
   DEPER  =   0.30     relativ break condition  

   TIME   =   0.40     timestep for ELM

  volume/ion in A,a.u.               =      20.44       137.96
  Fermi-wavevector in a.u.,A,eV,Ry     =   0.950408  1.796010 12.289804  0.903275
  Thomas-Fermi vector in A             =   2.078782
 
 Write flags
   LWAVE        =      F    write WAVECAR
   LDOWNSAMPLE  =      F    k-point downsampling of WAVECAR
   LCHARG       =      F    write CHGCAR
   LVTOT        =      F    write LOCPOT, total local potential
   LVHAR        =      F    write LOCPOT, Hartree potential only
   LELF         =      F    write electronic localiz. function (ELF)
   LORBIT       =      0    0 simple, 1 ext, 2 COOP (PROOUT), +10 PAW based schemes


 Dipole corrections
   LMONO  =      F    monopole corrections only (constant potential shift)
   LDIPOL =      F    correct potential (dipole corrections)
   IDIPOL =      0    1-x, 2-y, 3-z, 4-all directions 
   EPSILON=  1.0000000 bulk dielectric constant

 Exchange correlation treatment:
   GGA     =    --    GGA type
   LEXCH   =     8    internal setting for exchange type
   VOSKOWN=      0    Vosko Wilk Nusair interpolation
   LHFCALC =     F    Hartree Fock is set to
   LHFONE  =     F    Hartree Fock one center treatment
   AEXX    =    0.0000 exact exchange contribution

 Linear response parameters
   LEPSILON=     F    determine dielectric tensor
   LRPA    =     F    only Hartree local field effects (RPA)
   LNABLA  =     F    use nabla operator in PAW spheres
   LVEL    =     F    velocity operator in full k-point grid
   LINTERFAST=   F  fast interpolation
   KINTER  =     0    interpolate to denser k-point grid
   CSHIFT  =0.1000    complex shift for real part using Kramers Kronig
   OMEGAMAX=  -1.0    maximum frequency
   DEG_THRESHOLD= 0.2000000E-02 threshold for treating states as degnerate
   RTIME   =   -0.100 relaxation time in fs
  (WPLASMAI=    0.000 imaginary part of plasma frequency in eV, 0.658/RTIME)
   DFIELD  = 0.0000000 0.0000000 0.0000000 field for delta impulse in time
 
 Orbital magnetization related:
   ORBITALMAG=     F  switch on orbital magnetization
   LCHIMAG   =     F  perturbation theory with respect to B field
   DQ        =  0.001000  dq finite difference perturbation B field
   LLRAUG    =     F  two centre corrections for induced B field



--------------------------------------------------------------------------------------------------------


 Static calculation
 charge density and potential will be updated during run
 non-spin polarized calculation
 Variant of blocked Davidson
 Davidson routine will perform the subspace rotation
 perform sub-space diagonalisation
    after iterative eigenvector-optimisation
 modified Broyden-mixing scheme, WC =      100.0
 initial mixing is a Kerker type mixing with AMIX =  0.4000 and BMIX =      1.0000
 Hartree-type preconditioning will be used
 using additional bands           66
 reciprocal scheme for non local part
 use partial core corrections
 calculate Harris-corrections to forces 
   (improved forces if not selfconsistent)
 use gradient corrections 
 use of overlap-Matrix (Vanderbilt PP)
 Gauss-broadening in eV      SIGMA  =   0.01


--------------------------------------------------------------------------------------------------------


  energy-cutoff  :      500.00
  volume of cell :     2616.76
      direct lattice vectors                 reciprocal lattice vectors
     0.000000000 10.937333691 10.937333691    -0.045714981  0.045714981  0.045714981
    10.937333691  0.000000000 10.937333691     0.045714981 -0.045714981  0.045714981
    10.937333691 10.937333691  0.000000000     0.045714981  0.045714981 -0.045714981

  length of vectors
    15.467725642 15.467725642 15.467725642     0.079180669  0.079180669  0.079180669


 
 k-points in units of 2pi/SCALE and weight: KPOINTS File, automatically generated by
   0.00000000  0.00000000  0.00000000       0.125
  -0.02285749  0.02285749  0.02285749       0.125
   0.02285749 -0.02285749  0.02285749       0.125
   0.00000000  0.00000000  0.04571498       0.125
   0.02285749  0.02285749 -0.02285749       0.125
   0.00000000  0.04571498  0.00000000       0.125
   0.04571498  0.00000000  0.00000000       0.125
   0.02285749  0.02285749  0.02285749       0.125
 
 k-points in reciprocal lattice and weights: KPOINTS File, automatically generated by
   0.00000000  0.00000000  0.00000000       0.125
   0.50000000  0.00000000  0.00000000       0.125
   0.00000000  0.50000000  0.00000000       0.125
   0.50000000  0.50000000  0.00000000       0.125
   0.00000000  0.00000000  0.50000000       0.125
   0.50000000  0.00000000  0.50000000       0.125
   0.00000000  0.50000000  0.50000000       0.125
   0.50000000  0.50000000  0.50000000       0.125
 
 position of ions in fractional coordinates (direct lattice) 
   0.99678213  0.00440009  0.99729415
   0.25399940  0.98559690  0.00256957
   0.50047257  0.00714902  0.00184273
   0.74649132  0.00885625  0.00931679
   0.00878058  0.24922248  0.00866522
   0.24274320  0.26419508  0.99421481
   0.50425674  0.25262218  0.99928670
   0.75610772  0.24044814  0.00291559
   0.99847330  0.51240952  0.01149658
   0.26266753  0.49326281  0.00015102
   0.50836424  0.50604937  0.98121773
   0.74957068  0.49741488  0.00657125
   0.00170248  0.75382543  0.99627067
   0.25514061  0.73512522  0.99807493
   0.51120981  0.76024028  0.98842500
   0.74298853  0.75202324  0.99891694
   0.99730950  0.99774455  0.26195519
   0.25284080  0.99374271  0.25287318
   0.49804441  0.99426020  0.24928182
   0.74370769  0.00241071  0.24644439
   0.99864014  0.25773917  0.24946590
   0.26423923  0.24849120  0.24778195
   0.50774514  0.24883299  0.24504199
   0.74263290  0.24680580  0.24110571
   0.97990836  0.49239959  0.26234825
   0.26375033  0.49554804  0.24418854
   0.50756510  0.50254881  0.24393704
   0.76851394  0.49564216  0.24146922
   0.99491510  0.76306627  0.24522084
   0.25099058  0.74776244  0.24323373
   0.50716210  0.73925718  0.25355792
   0.75852844  0.73870946  0.24171303
   0.99102107  0.99746257  0.50474725
   0.23882692  0.00071694  0.50018009
   0.51005094  0.99676414  0.50735165
   0.75451639  0.00314691  0.49475532
   0.01073653  0.25173143  0.49269674
   0.26010404  0.25058835  0.49608286
   0.49621248  0.25050433  0.51514331
   0.74739500  0.24977031  0.51163434
   0.00000406  0.49984438  0.49241659
   0.24557679  0.49836070  0.50098371
   0.48908679  0.50633651  0.50528241
   0.74394073  0.50216447  0.49670261
   0.99021160  0.76031114  0.50680384
   0.26089368  0.73323885  0.50666362
   0.50259512  0.74648901  0.50575970
   0.76411602  0.74631390  0.49757273
   0.99777326  0.99432253  0.75734854
   0.24792344  0.02453442  0.74173012
   0.50331434  0.00266545  0.73561525
   0.73999214  0.01286461  0.74807562
   0.99877907  0.25209077  0.75701596
   0.24352482  0.24990408  0.75495711
   0.50479174  0.25618213  0.74282843
   0.74475298  0.24328978  0.75467235
   0.99866151  0.50206009  0.75265281
   0.24838836  0.48875024  0.74175409
   0.50895502  0.50536065  0.74740008
   0.76638767  0.50294183  0.73318768
   0.98808897  0.74917170  0.75307782
   0.23860066  0.75342885  0.75059953
   0.49687653  0.75171510  0.76075059
   0.75149963  0.74978993  0.75016503
   0.05965670  0.06339033  0.07112988
   0.32384605  0.07137730  0.04819936
   0.56116825  0.06689180  0.06690676
   0.81459682  0.05286971  0.06943093
   0.06741866  0.31929671  0.06420907
   0.32216045  0.31032064  0.05117265
   0.55957004  0.30423889  0.07309930
   0.82406233  0.30933228  0.06186492
   0.07276999  0.55791037  0.06518854
   0.32280720  0.56395443  0.05813222
   0.55538448  0.56658591  0.06197232
   0.81201525  0.57791662  0.05223978
   0.06407361  0.80992221  0.05899071
   0.31066676  0.80623657  0.06591861
   0.56546840  0.81452281  0.05897637
   0.80143119  0.84149441  0.05384239
   0.06624157  0.07120947  0.30429080
   0.30910990  0.04887481  0.32355746
   0.56310107  0.07217443  0.29786257
   0.81042652  0.06338303  0.31657559
   0.06616690  0.31130429  0.31197301
   0.29904553  0.32308314  0.30823372
   0.57474391  0.30422203  0.33099572
   0.80932847  0.31513350  0.31420222
   0.06027716  0.56300525  0.31096143
   0.31673165  0.56265553  0.30294159
   0.58090196  0.55015264  0.31085329
   0.81188737  0.56446692  0.31149096
   0.06290669  0.81246023  0.31944325
   0.30134052  0.81189343  0.31636726
   0.55273734  0.81350388  0.31158155
   0.80246262  0.81469228  0.32718578
   0.05912311  0.08020630  0.55949724
   0.31166922  0.05078494  0.56892740
   0.57002452  0.05851112  0.56103543
   0.82287281  0.06732304  0.56398728
   0.06513831  0.29699935  0.57423933
   0.32450097  0.30569837  0.54920523
   0.56319687  0.30420271  0.56668497
   0.82664592  0.32037234  0.55583723
   0.05467486  0.56338433  0.57404322
   0.30778324  0.55975455  0.55719731
   0.56009709  0.55287882  0.56614688
   0.81329243  0.57346188  0.55491219
   0.05332913  0.81838255  0.56132371
   0.31971641  0.80574027  0.57582244
   0.57118779  0.81876786  0.55007014
   0.81571874  0.81214780  0.56006446
   0.04443068  0.06664428  0.81614265
   0.31066844  0.06858945  0.81358774
   0.56419079  0.05957384  0.80725141
   0.82453183  0.04788202  0.81032571
   0.06147725  0.31612471  0.82671383
   0.32430950  0.30546669  0.81875585
   0.56846701  0.31199014  0.79893800
   0.81718770  0.31164599  0.80527650
   0.06684874  0.55596320  0.82534024
   0.30451560  0.57070665  0.81937761
   0.56073172  0.57439752  0.80800964
   0.81957546  0.55477328  0.81350967
   0.06044457  0.81735984  0.80970519
   0.31696796  0.81537919  0.80517366
   0.55899672  0.82178894  0.81409172
   0.79920504  0.81398760  0.81248278
 
 position of ions in cartesian coordinates  (Angst):
  10.95586413 21.80987771 10.95026406
  10.80790646  2.80618044 13.55787843
   0.09834578  5.49399008  5.55202677
   0.19876460  8.26652558  8.26148843
   2.82060384  0.19081054  2.82186565
  13.76364885 13.52902247  5.54455311
  13.69254520 16.44475635  8.27823732
   2.66175027  8.30169115 10.89966394
   5.73013591 11.04637766 16.52502962
   5.39663174  2.87453417  8.26786238
  16.26673663 16.29205517 11.09498023
   5.51226446  8.27017657 13.63869718
  19.14138501 10.91516533  8.26346083
  18.95658836 13.70683654 10.83086781
  19.12573567 16.40200632 13.90627383
  19.15061707 19.05180143 16.35144262
  13.77775642 13.77299808 21.82057189
  13.63465404  5.53116263 13.63429991
  13.60103393  8.17375625 16.32183338
   2.72181126 10.82962360  8.16054590
   5.54747108 13.65095220 13.74143980
   5.42790503  5.60014651  5.60790381
   5.40167550  8.23348401  8.27494747
   5.33645101 10.75947746 10.82182131
   8.25492895 13.58697503 16.10312326
   8.09074575  5.55549690  8.30469966
   8.16456486  8.21942964 11.04795285
   8.06203313 11.04652279 13.82649705
  11.02797257 13.56378052 19.22762885
  10.83885583  5.40549619 10.92369509
  10.85875005  8.32024867 13.63250354
  10.72320796 10.93997472 16.37579047
  16.43017008 16.35971723 21.74870912
   5.47847800  8.08276626  2.61997119
  16.45101625 11.12767161 16.48053935
   5.44572280 13.66370161  8.28681632
   8.14205934  5.50621773  2.87069973
   8.16659216  8.27066847  5.58561311
   8.37414370 11.06153572  8.16709088
   8.32773671 13.77042394 10.90632975
  10.85268940  5.38576893  5.46700919
  10.93016325  8.16538133  8.13669259
  11.06441366 10.87574777 10.88727680
  10.92494260 13.56933023 13.62906844
  13.85885934 16.37335735 19.14605130
  13.56122705  8.39503025 10.87315917
  13.69626199 11.02871315 13.66164988
  13.60480309 13.79951083 16.52007598
  19.15861103 19.19635277 21.78821642
   8.38089097 10.82417118  2.97996248
   8.07482238 13.55058636  5.53406985
   8.32265716 16.27549359  8.23424540
  11.03693706 19.20371609 13.68118082
  10.99050206 10.92073006  5.39679653
  10.92651179 13.64563809  8.32302516
  10.91504484 16.39971511 10.80655337
  13.72321376 19.15470915 16.41389294
  13.45843654 10.82951845  8.06233093
  13.70186218 13.74117494 11.09390895
  13.51996095 16.40135596 13.88308033
  16.43060431 19.04372223 19.00099962
  16.45006023 10.81921254 10.85015773
  16.54234197 13.75508739 13.65626330
  16.40550789 16.42420752 16.42010492
   1.47129238  1.43045651  1.34580640
   1.30784988  4.06918474  4.32268966
   1.46339955  6.86946600  6.86930241
   1.33764288  9.66890648  9.48777085
   4.19453066  1.43965641  4.22963507
   3.95377269  4.08326860  6.91765670
   4.12707367  6.91971568  9.44776652
   4.05990773  9.68968202 12.39631510
   6.81504076  1.50889850  6.89796162
   6.80396920  4.16646149  9.69880776
   6.87475114  6.75223739 12.27136454
   6.89223083  9.45264567 15.20214870
   9.50359051  1.34599557  9.55918396
   9.53905225  4.11883983 12.21594444
   9.55375194  6.82976084 15.09342434
   9.79259737  9.35441252 17.96922546
   4.10697180  4.05263622  1.50334795
   4.07341600  6.91969398  3.91539816
   4.04721817  9.41664664  6.94822012
   4.15573424 12.32639815  9.55714658
   6.81699187  4.13584242  4.12852838
   6.90492314  6.64201572  6.80442885
   6.94758854  9.90637661  9.61354384
   6.88325473 12.28843008 12.29861577
   9.55886517  4.06036029  6.81704762
   9.46732449  6.77757305  9.61815103
   9.41710921  9.75342473 12.37072157
   9.58064366 12.28676370 15.05364620
  12.38000604  4.18188878  9.57418008
  12.34016362  6.75607605 12.17581119
  12.30543475  9.45334410 14.94303610
  12.48910143 12.35534154 17.68736286
   6.99665112  6.76605720  1.52389220
   6.77800068  9.63137905  3.96428213
   6.77618733 12.37078014  6.87450403
   6.90485158 15.16855158  9.73636903
   9.52902813  6.99308662  3.96082045
   9.35036599  9.55601628  6.89270049
   9.52518919 12.35789475  9.48703871
   9.58339653 15.12067953 12.54532143
  12.44042471  6.87649949  6.75991959
  12.21647516  9.46058088  9.48855026
  12.23915750 12.31810607 12.17298891
  12.34140369 14.96451046 15.16739462
  15.09030773  6.72266320  9.53420154
  15.11061245  9.79480723 12.30949524
  14.97143795 12.26357212 15.20240879
  15.00834343 15.04739992 17.80451959
   9.65533516  9.41237766  1.21486387
   9.64866631 12.29636505  4.14807007
   9.48075700 14.99992103  6.82232187
   9.38650434 17.88098238  9.54188139
  12.49960643  9.71444214  4.12995858
  12.29599707 12.50208717  6.88807232
  12.15059179 14.95576490  9.62985369
  12.21615407 17.74543239 12.34643078
  15.10777669  9.75816862  6.81190211
  15.20381541 12.29239514  9.57259783
  15.11984842 14.97038101 12.41528733
  14.96536717 17.86159696 15.03171070
  17.79575319  9.51711825  9.60083976
  17.72452732 12.27323736 12.38485864
  17.89217263 15.01792648 15.10211356
  17.78924926 17.62756750 17.64402624
 


--------------------------------------------------------------------------------------------------------


 k-point  1 :   0.0000 0.0000 0.0000  plane waves:   66299
 k-point  2 :   0.5000 0.0000 0.0000  plane waves:   66394
 k-point  3 :   0.0000 0.5000 0.0000  plane waves:   66394
 k-point  4 :   0.5000 0.5000 0.0000  plane waves:   66552
 k-point  5 :   0.0000 0.0000 0.5000  plane waves:   66394
 k-point  6 :   0.5000 0.0000 0.5000  plane waves:   66552
 k-point  7 :   0.0000 0.5000 0.5000  plane waves:   66552
 k-point  8 :   0.5000 0.5000 0.5000  plane waves:   66394

 maximum and minimum number of plane-waves per node :      4207     4110

 maximum number of plane-waves:     66552
 maximum index in each direction: 
   IXMAX=   28   IYMAX=   28   IZMAX=   28
   IXMIN=  -28   IYMIN=  -28   IZMIN=  -28


 parallel 3D FFT for wavefunctions:
    minimum data exchange during FFTs selected (reduces bandwidth)
 parallel 3D FFT for charge:
    minimum data exchange during FFTs selected (reduces bandwidth)


 total amount of memory used by VASP MPI-rank0   221701. kBytes
=======================================================================

   base      :      30000. kBytes
   nonl-proj :      10690. kBytes
   fftplans  :      66746. kBytes
   grid      :      26864. kBytes
   one-center:         24. kBytes
   wavefun   :      87377. kBytes
 
     INWAV:  cpu time    0.0000: real time    0.0002
 Broyden mixing: mesh for mixing (old mesh)
   NGX = 57   NGY = 57   NGZ = 57
  (NGX  =240   NGY  =240   NGZ  =240)
  gives a total of 185193 points

 initial charge density was supplied:
 charge density of overlapping atoms calculated
 number of electron     512.0000000 magnetization 
 keeping initial charge density in first step


--------------------------------------------------------------------------------------------------------


 Maximum index for augmentation-charges         5607 (set IRDMAX)


--------------------------------------------------------------------------------------------------------


 First call to EWALD:  gamma=   0.129
 Maximum number of real-space cells 3x 3x 3
 Maximum number of reciprocal cells 3x 3x 3

    FEWALD:  cpu time    0.0059: real time    0.0059


--------------------------------------- Iteration      1(   1)  ---------------------------------------


    POTLOK:  cpu time    0.4890: real time    0.4977
    SETDIJ:  cpu time    0.5036: real time    0.5037
     EDDAV:  cpu time   69.8238: real time   69.8651
       DOS:  cpu time    0.0028: real time    0.0028
    --------------------------------------------
      LOOP:  cpu time   70.8192: real time   70.8693

 eigenvalue-minimisations  :  5152
 total energy-change (2. order) : 0.1387207E+04  (-0.1908348E+05)
 number of electron     512.0000000 magnetization 
 augmentation part      512.0000000 magnetization 

 Free energy of the ion-electron system (eV)
  ---------------------------------------------------
  alpha Z        PSCENC =       210.77028614
  Ewald energy   TEWEN  =    -14463.52994523
  -Hartree energ DENC   =      -759.77370218
  -exchange      EXHF   =         0.00000000
  -V(xc)+E(xc)   XCENC  =     -1195.30719650
  PAW double counting   =      4221.13331941    -1969.18571412
  entropy T*S    EENTRO =        -0.00268748
  eigenvalues    EBANDS =      2150.62130687
  atomic energy  EATOM  =     13192.48085998
  Solvation  Ediel_sol  =         0.00000000
  ---------------------------------------------------
  free energy    TOTEN  =      1387.20652689 eV

  energy without entropy =     1387.20921437  energy(sigma->0) =     1387.20787063


--------------------------------------------------------------------------------------------------------




--------------------------------------- Iteration      1(   2)  ---------------------------------------


     EDDAV:  cpu time   79.5165: real time   79.5500
       DOS:  cpu time    0.0028: real time    0.0028
    --------------------------------------------
      LOOP:  cpu time   79.5193: real time   79.5528

 eigenvalue-minimisations  :  6104
 total energy-change (2. order) :-0.1919174E+04  (-0.1825249E+04)
 number of electron     512.0000000 magnetization 
 augmentation part      512.0000000 magnetization 

 Free energy of the ion-electron system (eV)
  ---------------------------------------------------
  alpha Z        PSCENC =       210.77028614
  Ewald energy   TEWEN  =    -14463.52994523
  -Hartree energ DENC   =      -759.77370218
  -exchange      EXHF   =         0.00000000
  -V(xc)+E(xc)   XCENC  =     -1195.30719650
  PAW double counting   =      4221.13331941    -1969.18571412
  entropy T*S    EENTRO =        -0.00139822
  eigenvalues    EBANDS =       231.44567264
  atomic energy  EATOM  =     13192.48085998
  Solvation  Ediel_sol  =         0.00000000
  ---------------------------------------------------
  free energy    TOTEN  =      -531.96781808 eV

  energy without entropy =     -531.96641986  energy(sigma->0) =     -531.96711897


--------------------------------------------------------------------------------------------------------




--------------------------------------- Iteration      1(   3)  ---------------------------------------


     EDDAV:  cpu time   81.8501: real time   81.8816
       DOS:  cpu time    0.0010: real time    0.0010
    --------------------------------------------
      LOOP:  cpu time   81.8510: real time   81.8825

 eigenvalue-minimisations  :  6328
 total energy-change (2. order) :-0.1505851E+03  (-0.1473516E+03)
 number of electron     512.0000000 magnetization 
 augmentation part      512.0000000 magnetization 

 Free energy of the ion-electron system (eV)
  ---------------------------------------------------
  alpha Z        PSCENC =       210.77028614
  Ewald energy   TEWEN  =    -14463.52994523
  -Hartree energ DENC   =      -759.77370218
  -exchange      EXHF   =         0.00000000
  -V(xc)+E(xc)   XCENC  =     -1195.30719650
  PAW double counting   =      4221.13331941    -1969.18571412
  entropy T*S    EENTRO =        -0.00000000
  eigenvalues    EBANDS =        80.85915522
  atomic energy  EATOM  =     13192.48085998
  Solvation  Ediel_sol  =         0.00000000
  ---------------------------------------------------
  free energy    TOTEN  =      -682.55293728 eV

  energy without entropy =     -682.55293728  energy(sigma->0) =     -682.55293728


--------------------------------------------------------------------------------------------------------




--------------------------------------- Iteration      1(   4)  ---------------------------------------


     EDDAV:  cpu time   80.2318: real time   80.2548
       DOS:  cpu time    0.0010: real time    0.0010
    --------------------------------------------
      LOOP:  cpu time   80.2327: real time   80.2557

 eigenvalue-minimisations  :  6160
 total energy-change (2. order) :-0.4281078E+01  (-0.4245461E+01)
 number of electron     512.0000000 magnetization 
 augmentation part      512.0000000 magnetization 

 Free energy of the ion-electron system (eV)
  ---------------------------------------------------
  alpha Z        PSCENC =       210.77028614
  Ewald energy   TEWEN  =    -14463.52994523
  -Hartree energ DENC   =      -759.77370218
  -exchange      EXHF   =         0.00000000
  -V(xc)+E(xc)   XCENC  =     -1195.30719650
  PAW double counting   =      4221.13331941    -1969.18571412
  entropy T*S    EENTRO =        -0.00000000
  eigenvalues    EBANDS =        76.57807759
  atomic energy  EATOM  =     13192.48085998
  Solvation  Ediel_sol  =         0.00000000
  ---------------------------------------------------
  free energy    TOTEN  =      -686.83401491 eV

  energy without entropy =     -686.83401491  energy(sigma->0) =     -686.83401491


--------------------------------------------------------------------------------------------------------




--------------------------------------- Iteration      1(   5)  ---------------------------------------


     EDDAV:  cpu time   82.2095: real time   82.2271
       DOS:  cpu time    0.0010: real time    0.0010
    CHARGE:  cpu time    3.1557: real time    3.1563
    MIXING:  cpu time    0.0299: real time    0.0300
    --------------------------------------------
      LOOP:  cpu time   85.3961: real time   85.4143

 eigenvalue-minimisations  :  6360
 total energy-change (2. order) :-0.1479313E+00  (-0.1475410E+00)
 number of electron     511.9999998 magnetization 
 augmentation part      -30.2248841 magnetization 

 Broyden mixing:
  rms(total) = 0.24037E+01    rms(broyden)= 0.24037E+01
  rms(prec ) = 0.29163E+01
  weight for this iteration     100.00

 Free energy of the ion-electron system (eV)
  ---------------------------------------------------
  alpha Z        PSCENC =       210.77028614
  Ewald energy   TEWEN  =    -14463.52994523
  -Hartree energ DENC   =      -759.77370218
  -exchange      EXHF   =         0.00000000
  -V(xc)+E(xc)   XCENC  =     -1195.30719650
  PAW double counting   =      4221.13331941    -1969.18571412
  entropy T*S    EENTRO =        -0.00000000
  eigenvalues    EBANDS =        76.43014634
  atomic energy  EATOM  =     13192.48085998
  Solvation  Ediel_sol  =         0.00000000
  ---------------------------------------------------
  free energy    TOTEN  =      -686.98194617 eV

  energy without entropy =     -686.98194617  energy(sigma->0) =     -686.98194617


--------------------------------------------------------------------------------------------------------




--------------------------------------- Iteration      1(   6)  ---------------------------------------


    POTLOK:  cpu time    0.4915: real time    0.4919
    SETDIJ:  cpu time    0.5071: real time    0.5071
     EDDAV:  cpu time   77.6073: real time   77.6261
       DOS:  cpu time    0.0011: real time    0.0011
    CHARGE:  cpu time    3.1487: real time    3.1492
    MIXING:  cpu time    0.0255: real time    0.0255
    --------------------------------------------
      LOOP:  cpu time   81.7810: real time   81.8008

 eigenvalue-minimisations  :  5912
 total energy-change (2. order) : 0.8768566E+01  (-0.6327026E+00)
 number of electron     511.9999998 magnetization 
 augmentation part      -29.8851457 magnetization 

 Broyden mixing:
  rms(total) = 0.14260E+01    rms(broyden)= 0.14260E+01
  rms(prec ) = 0.17189E+01
  weight for this iteration     100.00

 eigenvalues of (default mixing * dielectric matrix)
  average eigenvalue GAMMA=   2.4222
  2.4222

 Free energy of the ion-electron system (eV)
  ---------------------------------------------------
  alpha Z        PSCENC =       210.77028614
  Ewald energy   TEWEN  =    -14463.52994523
  -Hartree energ DENC   =      -855.15905486
  -exchange      EXHF   =         0.00000000
  -V(xc)+E(xc)   XCENC  =     -1180.71677215
  PAW double counting   =      4467.05231012    -2221.90791305
  entropy T*S    EENTRO =        -0.00000000
  eigenvalues    EBANDS =       172.79684879
  atomic energy  EATOM  =     13192.48085998
  Solvation  Ediel_sol  =         0.00000000
  ---------------------------------------------------
  free energy    TOTEN  =      -678.21338026 eV

  energy without entropy =     -678.21338026  energy(sigma->0) =     -678.21338026


--------------------------------------------------------------------------------------------------------




--------------------------------------- Iteration      1(   7)  ---------------------------------------


    POTLOK:  cpu time    0.4896: real time    0.4920
    SETDIJ:  cpu time    0.5086: real time    0.5086
     EDDAV:  cpu time   77.9001: real time   77.9336
       DOS:  cpu time    0.0011: real time    0.0011
    CHARGE:  cpu time    3.1910: real time    3.1923
    MIXING:  cpu time    0.0267: real time    0.0267
    --------------------------------------------
      LOOP:  cpu time   82.1172: real time   82.1544

 eigenvalue-minimisations  :  5928
 total energy-change (2. order) : 0.3547238E+01  (-0.1217512E+01)
 number of electron     511.9999998 magnetization 
 augmentation part      -29.4346249 magnetization 

 Broyden mixing:
  rms(total) = 0.16575E+00    rms(broyden)= 0.16574E+00
  rms(prec ) = 0.21882E+00
  weight for this iteration     100.00

 eigenvalues of (default mixing * dielectric matrix)
  average eigenvalue GAMMA=   2.0765
  2.0765  2.0765

 Free energy of the ion-electron system (eV)
  ---------------------------------------------------
  alpha Z        PSCENC =       210.77028614
  Ewald energy   TEWEN  =    -14463.52994523
  -Hartree energ DENC   =     -1004.33957394
  -exchange      EXHF   =         0.00000000
  -V(xc)+E(xc)   XCENC  =     -1157.08093292
  PAW double counting   =      4786.86198105    -2550.24235706
  entropy T*S    EENTRO =        -0.00000000
  eigenvalues    EBANDS =       310.41353950
  atomic energy  EATOM  =     13192.48085998
  Solvation  Ediel_sol  =         0.00000000
  ---------------------------------------------------
  free energy    TOTEN  =      -674.66614247 eV

  energy without entropy =     -674.66614247  energy(sigma->0) =     -674.66614247


--------------------------------------------------------------------------------------------------------




--------------------------------------- Iteration      1(   8)  ---------------------------------------


    POTLOK:  cpu time    0.4914: real time    0.4923
    SETDIJ:  cpu time    0.5076: real time    0.5077
     EDDAV:  cpu time   76.6425: real time   76.6735
       DOS:  cpu time    0.0010: real time    0.0010
    CHARGE:  cpu time    3.1998: real time    3.2001
    MIXING:  cpu time    0.0243: real time    0.0243
    --------------------------------------------
      LOOP:  cpu time   80.8666: real time   80.8988

 eigenvalue-minimisations  :  5824
 total energy-change (2. order) :-0.4508896E-01  (-0.1302608E+00)
 number of electron     511.9999998 magnetization 
 augmentation part      -29.5111723 magnetization 

 Broyden mixing:
  rms(total) = 0.67752E-01    rms(broyden)= 0.67752E-01
  rms(prec ) = 0.84074E-01
  weight for this iteration     100.00

 eigenvalues of (default mixing * dielectric matrix)
  average eigenvalue GAMMA=   1.9917
  2.6716  1.6518  1.6518

 Free energy of the ion-electron system (eV)
  ---------------------------------------------------
  alpha Z        PSCENC =       210.77028614
  Ewald energy   TEWEN  =    -14463.52994523
  -Hartree energ DENC   =      -997.03021467
  -exchange      EXHF   =         0.00000000
  -V(xc)+E(xc)   XCENC  =     -1157.23366175
  PAW double counting   =      4739.53112887    -2501.43933441
  entropy T*S    EENTRO =        -0.00000000
  eigenvalues    EBANDS =       301.73964964
  atomic energy  EATOM  =     13192.48085998
  Solvation  Ediel_sol  =         0.00000000
  ---------------------------------------------------
  free energy    TOTEN  =      -674.71123143 eV

  energy without entropy =     -674.71123143  energy(sigma->0) =     -674.71123143


--------------------------------------------------------------------------------------------------------




--------------------------------------- Iteration      1(   9)  ---------------------------------------


    POTLOK:  cpu time    0.4881: real time    0.4910
    SETDIJ:  cpu time    0.5062: real time    0.5064
     EDDAV:  cpu time   78.7393: real time   78.7664
       DOS:  cpu time    0.0011: real time    0.0011
    CHARGE:  cpu time    3.1948: real time    3.1954
    MIXING:  cpu time    0.0313: real time    0.0313
    --------------------------------------------
      LOOP:  cpu time   82.9608: real time   82.9916

 eigenvalue-minimisations  :  6032
 total energy-change (2. order) :-0.2253322E-01  (-0.1219931E-01)
 number of electron     511.9999998 magnetization 
 augmentation part      -29.5142047 magnetization 

 Broyden mixing:
  rms(total) = 0.31419E-01    rms(broyden)= 0.31419E-01
  rms(prec ) = 0.36560E-01
  weight for this iteration     100.00

 eigenvalues of (default mixing * dielectric matrix)
  average eigenvalue GAMMA=   1.7859
  2.5655  0.9349  1.8216  1.8216

 Free energy of the ion-electron system (eV)
  ---------------------------------------------------
  alpha Z        PSCENC =       210.77028614
  Ewald energy   TEWEN  =    -14463.52994523
  -Hartree energ DENC   =     -1004.67156346
  -exchange      EXHF   =         0.00000000
  -V(xc)+E(xc)   XCENC  =     -1155.92715191
  PAW double counting   =      4745.93710456    -2508.02005773
  entropy T*S    EENTRO =        -0.00000000
  eigenvalues    EBANDS =       308.22670301
  atomic energy  EATOM  =     13192.48085998
  Solvation  Ediel_sol  =         0.00000000
  ---------------------------------------------------
  free energy    TOTEN  =      -674.73376466 eV

  energy without entropy =     -674.73376466  energy(sigma->0) =     -674.73376466


--------------------------------------------------------------------------------------------------------




--------------------------------------- Iteration      1(  10)  ---------------------------------------


    POTLOK:  cpu time    0.4916: real time    0.4921
    SETDIJ:  cpu time    0.5064: real time    0.5065
     EDDAV:  cpu time   78.8302: real time   78.8633
       DOS:  cpu time    0.0012: real time    0.0012
    CHARGE:  cpu time    3.2006: real time    3.2009
    MIXING:  cpu time    0.0230: real time    0.0230
    --------------------------------------------
      LOOP:  cpu time   83.0530: real time   83.0869

 eigenvalue-minimisations  :  6040
 total energy-change (2. order) :-0.2503233E-02  (-0.1102250E-02)
 number of electron     511.9999998 magnetization 
 augmentation part      -29.5248372 magnetization 

 Broyden mixing:
  rms(total) = 0.12121E-01    rms(broyden)= 0.12121E-01
  rms(prec ) = 0.14618E-01
  weight for this iteration     100.00

 eigenvalues of (default mixing * dielectric matrix)
  average eigenvalue GAMMA=   1.8517
  2.6877  2.6877  1.4908  1.4908  0.9016

 Free energy of the ion-electron system (eV)
  ---------------------------------------------------
  alpha Z        PSCENC =       210.77028614
  Ewald energy   TEWEN  =    -14463.52994523
  -Hartree energ DENC   =     -1003.33802299
  -exchange      EXHF   =         0.00000000
  -V(xc)+E(xc)   XCENC  =     -1156.12230912
  PAW double counting   =      4738.07426336    -2499.95879485
  entropy T*S    EENTRO =        -0.00000000
  eigenvalues    EBANDS =       306.88739483
  atomic energy  EATOM  =     13192.48085998
  Solvation  Ediel_sol  =         0.00000000
  ---------------------------------------------------
  free energy    TOTEN  =      -674.73626789 eV

  energy without entropy =     -674.73626789  energy(sigma->0) =     -674.73626789


--------------------------------------------------------------------------------------------------------




--------------------------------------- Iteration      1(  11)  ---------------------------------------


    POTLOK:  cpu time    0.4893: real time    0.4904
    SETDIJ:  cpu time    0.5090: real time    0.5092
     EDDAV:  cpu time   75.8489: real time   75.8670
       DOS:  cpu time    0.0010: real time    0.0010
    CHARGE:  cpu time    3.1984: real time    3.1987
    MIXING:  cpu time    0.0236: real time    0.0236
    --------------------------------------------
      LOOP:  cpu time   80.0702: real time   80.0898

 eigenvalue-minimisations  :  5744
 total energy-change (2. order) :-0.1667613E-02  (-0.2901381E-03)
 number of electron     511.9999998 magnetization 
 augmentation part      -29.5278537 magnetization 

 Broyden mixing:
  rms(total) = 0.45694E-02    rms(broyden)= 0.45694E-02
  rms(prec ) = 0.63981E-02
  weight for this iteration     100.00

 eigenvalues of (default mixing * dielectric matrix)
  average eigenvalue GAMMA=   1.7611
  2.8070  2.0345  2.0345  1.5040  1.3250  0.8618

 Free energy of the ion-electron system (eV)
  ---------------------------------------------------
  alpha Z        PSCENC =       210.77028614
  Ewald energy   TEWEN  =    -14463.52994523
  -Hartree energ DENC   =     -1003.21760206
  -exchange      EXHF   =         0.00000000
  -V(xc)+E(xc)   XCENC  =     -1156.13022968
  PAW double counting   =      4733.39911775    -2495.17302639
  entropy T*S    EENTRO =        -0.00000000
  eigenvalues    EBANDS =       306.66260399
  atomic energy  EATOM  =     13192.48085998
  Solvation  Ediel_sol  =         0.00000000
  ---------------------------------------------------
  free energy    TOTEN  =      -674.73793550 eV

  energy without entropy =     -674.73793550  energy(sigma->0) =     -674.73793550


--------------------------------------------------------------------------------------------------------




--------------------------------------- Iteration      1(  12)  ---------------------------------------


    POTLOK:  cpu time    0.4893: real time    0.4926
    SETDIJ:  cpu time    0.5076: real time    0.5078
     EDDAV:  cpu time   79.3955: real time   79.4247
       DOS:  cpu time    0.0010: real time    0.0010
    CHARGE:  cpu time    3.1901: real time    3.1905
    MIXING:  cpu time    0.0292: real time    0.0292
    --------------------------------------------
      LOOP:  cpu time   83.6127: real time   83.6458

 eigenvalue-minimisations  :  6104
 total energy-change (2. order) :-0.1997747E-04  (-0.5697534E-04)
 number of electron     511.9999998 magnetization 
 augmentation part      -29.5256821 magnetization 

 Broyden mixing:
  rms(total) = 0.21355E-02    rms(broyden)= 0.21355E-02
  rms(prec ) = 0.25119E-02
  weight for this iteration     100.00

 eigenvalues of (default mixing * dielectric matrix)
  average eigenvalue GAMMA=   1.8247
  3.1558  2.6899  1.7668  1.7668  0.8939  1.2499  1.2499

 Free energy of the ion-electron system (eV)
  ---------------------------------------------------
  alpha Z        PSCENC =       210.77028614
  Ewald energy   TEWEN  =    -14463.52994523
  -Hartree energ DENC   =     -1003.92291905
  -exchange      EXHF   =         0.00000000
  -V(xc)+E(xc)   XCENC  =     -1156.04946003
  PAW double counting   =      4734.95866255    -2496.78324741
  entropy T*S    EENTRO =        -0.00000000
  eigenvalues    EBANDS =       307.33780757
  atomic energy  EATOM  =     13192.48085998
  Solvation  Ediel_sol  =         0.00000000
  ---------------------------------------------------
  free energy    TOTEN  =      -674.73795548 eV

  energy without entropy =     -674.73795548  energy(sigma->0) =     -674.73795548


--------------------------------------------------------------------------------------------------------




--------------------------------------- Iteration      1(  13)  ---------------------------------------


    POTLOK:  cpu time    0.4887: real time    0.4913
    SETDIJ:  cpu time    0.5057: real time    0.5059
     EDDAV:  cpu time   75.8140: real time   75.8489
       DOS:  cpu time    0.0018: real time    0.0018
    CHARGE:  cpu time    3.2093: real time    3.2129
    MIXING:  cpu time    0.0305: real time    0.0305
    --------------------------------------------
      LOOP:  cpu time   80.0500: real time   80.0913

 eigenvalue-minimisations  :  5744
 total energy-change (2. order) :-0.4275390E-04  (-0.1653213E-04)
 number of electron     511.9999998 magnetization 
 augmentation part      -29.5255580 magnetization 

 Broyden mixing:
  rms(total) = 0.63627E-03    rms(broyden)= 0.63625E-03
  rms(prec ) = 0.84028E-03
  weight for this iteration     100.00

 eigenvalues of (default mixing * dielectric matrix)
  average eigenvalue GAMMA=   1.7686
  3.1282  2.5647  1.9270  1.9270  1.3653  1.3653  0.9359  0.9359

 Free energy of the ion-electron system (eV)
  ---------------------------------------------------
  alpha Z        PSCENC =       210.77028614
  Ewald energy   TEWEN  =    -14463.52994523
  -Hartree energ DENC   =     -1003.92244015
  -exchange      EXHF   =         0.00000000
  -V(xc)+E(xc)   XCENC  =     -1156.06136938
  PAW double counting   =      4734.23902600    -2496.04939062
  entropy T*S    EENTRO =        -0.00000000
  eigenvalues    EBANDS =       307.33497503
  atomic energy  EATOM  =     13192.48085998
  Solvation  Ediel_sol  =         0.00000000
  ---------------------------------------------------
  free energy    TOTEN  =      -674.73799823 eV

  energy without entropy =     -674.73799823  energy(sigma->0) =     -674.73799823


--------------------------------------------------------------------------------------------------------




--------------------------------------- Iteration      1(  14)  ---------------------------------------


    POTLOK:  cpu time    0.4917: real time    0.4923
    SETDIJ:  cpu time    0.5068: real time    0.5071
     EDDAV:  cpu time   80.2613: real time   80.2759
       DOS:  cpu time    0.0010: real time    0.0010
    CHARGE:  cpu time    3.1958: real time    3.1961
    MIXING:  cpu time    0.0181: real time    0.0181
    --------------------------------------------
      LOOP:  cpu time   84.4748: real time   84.4905

 eigenvalue-minimisations  :  6184
 total energy-change (2. order) :-0.1438846E-05  (-0.9877592E-06)
 number of electron     511.9999998 magnetization 
 augmentation part      -29.5255617 magnetization 

 Broyden mixing:
  rms(total) = 0.26911E-03    rms(broyden)= 0.26907E-03
  rms(prec ) = 0.36129E-03
  weight for this iteration     100.00

 eigenvalues of (default mixing * dielectric matrix)
  average eigenvalue GAMMA=   1.7619
  3.2013  2.6241  2.1661  1.6940  1.6940  1.2580  1.2580  0.9172  1.0440

 Free energy of the ion-electron system (eV)
  ---------------------------------------------------
  alpha Z        PSCENC =       210.77028614
  Ewald energy   TEWEN  =    -14463.52994523
  -Hartree energ DENC   =     -1003.94972071
  -exchange      EXHF   =         0.00000000
  -V(xc)+E(xc)   XCENC  =     -1156.05604734
  PAW double counting   =      4734.34450578    -2496.15637097
  entropy T*S    EENTRO =        -0.00000000
  eigenvalues    EBANDS =       307.35843268
  atomic energy  EATOM  =     13192.48085998
  Solvation  Ediel_sol  =         0.00000000
  ---------------------------------------------------
  free energy    TOTEN  =      -674.73799967 eV

  energy without entropy =     -674.73799967  energy(sigma->0) =     -674.73799967


--------------------------------------------------------------------------------------------------------




--------------------------------------- Iteration      1(  15)  ---------------------------------------


    POTLOK:  cpu time    0.4893: real time    0.4906
    SETDIJ:  cpu time    0.5106: real time    0.5106
     EDDAV:  cpu time   78.5856: real time   78.6238
       DOS:  cpu time    0.0010: real time    0.0010
    CHARGE:  cpu time    3.1911: real time    3.1951
    MIXING:  cpu time    0.0278: real time    0.0278
    --------------------------------------------
      LOOP:  cpu time   82.8054: real time   82.8489

 eigenvalue-minimisations  :  6024
 total energy-change (2. order) :-0.5130816E-05  (-0.3551097E-06)
 number of electron     511.9999998 magnetization 
 augmentation part      -29.5253703 magnetization 

 Broyden mixing:
  rms(total) = 0.73186E-04    rms(broyden)= 0.73038E-04
  rms(prec ) = 0.96860E-04
  weight for this iteration     100.00

 eigenvalues of (default mixing * dielectric matrix)
  average eigenvalue GAMMA=   1.6989
  3.2256  2.5845  2.1986  1.6893  1.6893  1.3773  1.3773  0.9808  0.9808  0.8858

 Free energy of the ion-electron system (eV)
  ---------------------------------------------------
  alpha Z        PSCENC =       210.77028614
  Ewald energy   TEWEN  =    -14463.52994523
  -Hartree energ DENC   =     -1003.98669859
  -exchange      EXHF   =         0.00000000
  -V(xc)+E(xc)   XCENC  =     -1156.05356299
  PAW double counting   =      4734.44803221    -2496.26317135
  entropy T*S    EENTRO =        -0.00000000
  eigenvalues    EBANDS =       307.39619502
  atomic energy  EATOM  =     13192.48085998
  Solvation  Ediel_sol  =         0.00000000
  ---------------------------------------------------
  free energy    TOTEN  =      -674.73800480 eV

  energy without entropy =     -674.73800480  energy(sigma->0) =     -674.73800480


--------------------------------------------------------------------------------------------------------




--------------------------------------- Iteration      1(  16)  ---------------------------------------


    POTLOK:  cpu time    0.4888: real time    0.4920
    SETDIJ:  cpu time    0.5031: real time    0.5031
     EDDAV:  cpu time   82.9879: real time   83.0111
       DOS:  cpu time    0.0011: real time    0.0011
    CHARGE:  cpu time    3.1745: real time    3.1749
    MIXING:  cpu time    0.0347: real time    0.0347
    --------------------------------------------
      LOOP:  cpu time   87.1901: real time   87.2169

 eigenvalue-minimisations  :  6464
 total energy-change (2. order) : 0.2685319E-06  (-0.2814066E-07)
 number of electron     511.9999998 magnetization 
 augmentation part      -29.5253611 magnetization 

 Broyden mixing:
  rms(total) = 0.48792E-04    rms(broyden)= 0.48570E-04
  rms(prec ) = 0.65028E-04
  weight for this iteration     100.00

 eigenvalues of (default mixing * dielectric matrix)
  average eigenvalue GAMMA=   1.6937
  3.2738  2.6281  2.0202  2.0202  1.3526  1.3526  1.4582  1.4582  0.9088  1.0792
  1.0792

 Free energy of the ion-electron system (eV)
  ---------------------------------------------------
  alpha Z        PSCENC =       210.77028614
  Ewald energy   TEWEN  =    -14463.52994523
  -Hartree energ DENC   =     -1003.98703788
  -exchange      EXHF   =         0.00000000
  -V(xc)+E(xc)   XCENC  =     -1156.05348273
  PAW double counting   =      4734.44391616    -2496.25883169
  entropy T*S    EENTRO =        -0.00000000
  eigenvalues    EBANDS =       307.39623071
  atomic energy  EATOM  =     13192.48085998
  Solvation  Ediel_sol  =         0.00000000
  ---------------------------------------------------
  free energy    TOTEN  =      -674.73800454 eV

  energy without entropy =     -674.73800454  energy(sigma->0) =     -674.73800454


--------------------------------------------------------------------------------------------------------




--------------------------------------- Iteration      1(  17)  ---------------------------------------


    POTLOK:  cpu time    0.4893: real time    0.4924
    SETDIJ:  cpu time    0.5066: real time    0.5066
     EDDAV:  cpu time   76.7390: real time   76.7768
       DOS:  cpu time    0.0010: real time    0.0010
    CHARGE:  cpu time    3.1794: real time    3.1813
    MIXING:  cpu time    0.0272: real time    0.0272
    --------------------------------------------
      LOOP:  cpu time   80.9425: real time   80.9852

 eigenvalue-minimisations  :  5840
 total energy-change (2. order) : 0.3379373E-06  (-0.6722075E-08)
 number of electron     511.9999998 magnetization 
 augmentation part      -29.5253733 magnetization 

 Broyden mixing:
  rms(total) = 0.17422E-04    rms(broyden)= 0.16792E-04
  rms(prec ) = 0.20876E-04
  weight for this iteration     100.00

 eigenvalues of (default mixing * dielectric matrix)
  average eigenvalue GAMMA=   1.6749
  3.2792  2.6138  2.0624  2.0624  1.6355  1.6355  1.3991  1.3991  0.9734  0.9220
  1.0583  1.0583

 Free energy of the ion-electron system (eV)
  ---------------------------------------------------
  alpha Z        PSCENC =       210.77028614
  Ewald energy   TEWEN  =    -14463.52994523
  -Hartree energ DENC   =     -1003.98460066
  -exchange      EXHF   =         0.00000000
  -V(xc)+E(xc)   XCENC  =     -1156.05366214
  PAW double counting   =      4734.44000007    -2496.25462578
  entropy T*S    EENTRO =        -0.00000000
  eigenvalues    EBANDS =       307.39368342
  atomic energy  EATOM  =     13192.48085998
  Solvation  Ediel_sol  =         0.00000000
  ---------------------------------------------------
  free energy    TOTEN  =      -674.73800420 eV

  energy without entropy =     -674.73800420  energy(sigma->0) =     -674.73800420


--------------------------------------------------------------------------------------------------------




--------------------------------------- Iteration      1(  18)  ---------------------------------------


    POTLOK:  cpu time    0.4891: real time    0.4897
    SETDIJ:  cpu time    0.5135: real time    0.5136
     EDDAV:  cpu time   51.9287: real time   51.9428
       DOS:  cpu time    0.0010: real time    0.0010
    CHARGE:  cpu time    3.1741: real time    3.1745
    MIXING:  cpu time    0.0247: real time    0.0247
    --------------------------------------------
      LOOP:  cpu time   56.1311: real time   56.1463

 eigenvalue-minimisations  :  3328
 total energy-change (2. order) :-0.1522021E-06  (-0.1316558E-08)
 number of electron     511.9999998 magnetization 
 augmentation part      -29.5253697 magnetization 

 Broyden mixing:
  rms(total) = 0.85783E-05    rms(broyden)= 0.72121E-05
  rms(prec ) = 0.92886E-05
  weight for this iteration     100.00
  WARNING: grid for Broyden might be to small

 eigenvalues of (default mixing * dielectric matrix)
  average eigenvalue GAMMA=   1.6976
  3.3193  2.7168  2.4429  2.1386  1.8017  1.8017  1.2952  1.2952  0.9147  1.0110
  1.0110  1.1601  1.1601

 Free energy of the ion-electron system (eV)
  ---------------------------------------------------
  alpha Z        PSCENC =       210.77028614
  Ewald energy   TEWEN  =    -14463.52994523
  -Hartree energ DENC   =     -1003.98551708
  -exchange      EXHF   =         0.00000000
  -V(xc)+E(xc)   XCENC  =     -1156.05354230
  PAW double counting   =      4734.44562205    -2496.26033666
  entropy T*S    EENTRO =        -0.00000000
  eigenvalues    EBANDS =       307.39456875
  atomic energy  EATOM  =     13192.48085998
  Solvation  Ediel_sol  =         0.00000000
  ---------------------------------------------------
  free energy    TOTEN  =      -674.73800435 eV

  energy without entropy =     -674.73800435  energy(sigma->0) =     -674.73800435


--------------------------------------------------------------------------------------------------------




--------------------------------------- Iteration      1(  19)  ---------------------------------------


    POTLOK:  cpu time    0.4874: real time    0.4902
    SETDIJ:  cpu time    0.5104: real time    0.5104
     EDDAV:  cpu time   51.0013: real time   51.0169
       DOS:  cpu time    0.0010: real time    0.0010
    --------------------------------------------
      LOOP:  cpu time   52.0000: real time   52.0184

 eigenvalue-minimisations  :  3248
 total energy-change (2. order) :-0.4783942E-08  (-0.2881623E-09)
 number of electron     511.9999998 magnetization 
 augmentation part      -29.5253697 magnetization 

 Free energy of the ion-electron system (eV)
  ---------------------------------------------------
  alpha Z        PSCENC =       210.77028614
  Ewald energy   TEWEN  =    -14463.52994523
  -Hartree energ DENC   =     -1003.98564106
  -exchange      EXHF   =         0.00000000
  -V(xc)+E(xc)   XCENC  =     -1156.05352552
  PAW double counting   =      4734.44644029    -2496.26115236
  entropy T*S    EENTRO =        -0.00000000
  eigenvalues    EBANDS =       307.39467340
  atomic energy  EATOM  =     13192.48085998
  Solvation  Ediel_sol  =         0.00000000
  ---------------------------------------------------
  free energy    TOTEN  =      -674.73800435 eV

  energy without entropy =     -674.73800435  energy(sigma->0) =     -674.73800435


--------------------------------------------------------------------------------------------------------




 average (electrostatic) potential at core
  the test charge radii are     0.9892
  (the norm of the test charge is              1.0000)
       1 -83.4313       2 -83.6028       3 -83.5902       4 -83.5228       5 -83.6392
       6 -83.6901       7 -83.5897       8 -83.5621       9 -83.5430      10 -83.5263
      11 -83.5229      12 -83.6105      13 -83.5057      14 -83.3966      15 -83.5148
      16 -83.4584      17 -83.4412      18 -83.5408      19 -83.5252      20 -83.4359
      21 -83.4586      22 -83.6686      23 -83.4241      24 -83.5283      25 -83.4876
      26 -83.4753      27 -83.6187      28 -83.4545      29 -83.3673      30 -83.4549
      31 -83.3293      32 -83.5079      33 -83.4683      34 -83.6425      35 -83.5446
      36 -83.5725      37 -83.5455      38 -83.5244      39 -83.7830      40 -83.6932
      41 -83.4291      42 -83.5662      43 -83.6960      44 -83.6498      45 -83.4245
      46 -83.5923      47 -83.6100      48 -83.3539      49 -83.5606      50 -83.4965
      51 -83.6428      52 -83.5577      53 -83.4818      54 -83.6296      55 -83.5393
      56 -83.5683      57 -83.3717      58 -83.5101      59 -83.6222      60 -83.4873
      61 -83.4815      62 -83.4100      63 -83.4342      64 -83.4821      65 -83.5754
      66 -83.7022      67 -83.5528      68 -83.3972      69 -83.6291      70 -83.5773
      71 -83.5646      72 -83.6230      73 -83.5754      74 -83.3878      75 -83.6340
      76 -83.6658      77 -83.3677      78 -83.4477      79 -83.3895      80 -83.6205
      81 -83.4436      82 -83.6088      83 -83.4491      84 -83.4914      85 -83.4865
      86 -83.4658      87 -83.7575      88 -83.4947      89 -83.4291      90 -83.5189
      91 -83.5207      92 -83.4090      93 -83.4448      94 -83.4752      95 -83.4078
      96 -83.3789      97 -83.5863      98 -83.5476      99 -83.5627     100 -83.5468
     101 -83.5775     102 -83.7195     103 -83.6619     104 -83.6166     105 -83.5492
     106 -83.4809     107 -83.6233     108 -83.4478     109 -83.4267     110 -83.6100
     111 -83.5274     112 -83.4858     113 -83.4540     114 -83.5303     115 -83.5887
     116 -83.6919     117 -83.6706     118 -83.5646     119 -83.6659     120 -83.4637
     121 -83.4528     122 -83.5167     123 -83.4461     124 -83.4471     125 -83.4578
     126 -83.4280     127 -83.5079     128 -83.3629
 
 
 
 E-fermi :   5.9013     XC(G=0):  -9.3358     alpha+bet :-11.7321


 k-point     1 :       0.0000    0.0000    0.0000
  band No.  band energies     occupation 
      1      -6.3204      2.00000
      2      -5.7336      2.00000
      3      -5.6599      2.00000
      4      -5.6247      2.00000
      5      -5.5911      2.00000
      6      -5.5220      2.00000
      7      -5.5021      2.00000
      8      -5.4997      2.00000
      9      -5.3732      2.00000
     10      -5.3444      2.00000
     11      -5.3210      2.00000
     12      -5.2457      2.00000
     13      -5.1855      2.00000
     14      -5.1344      2.00000
     15      -5.0988      2.00000
     16      -4.5962      2.00000
     17      -4.5124      2.00000
     18      -4.4698      2.00000
     19      -4.4201      2.00000
     20      -4.3887      2.00000
     21      -4.3464      2.00000
     22      -4.3197      2.00000
     23      -4.3091      2.00000
     24      -4.2704      2.00000
     25      -4.2084      2.00000
     26      -4.1533      2.00000
     27      -4.1225      2.00000
     28      -4.0814      2.00000
     29      -4.0302      2.00000
     30      -4.0048      2.00000
     31      -3.9688      2.00000
     32      -3.8915      2.00000
     33      -3.8419      2.00000
     34      -3.8402      2.00000
     35      -3.8166      2.00000
     36      -3.7519      2.00000
     37      -3.7336      2.00000
     38      -3.6785      2.00000
     39      -3.6569      2.00000
     40      -3.6476      2.00000
     41      -3.6172      2.00000
     42      -3.5811      2.00000
     43      -3.5699      2.00000
     44      -3.5227      2.00000
     45      -3.5187      2.00000
     46      -3.5041      2.00000
     47      -3.4951      2.00000
     48      -3.4480      2.00000
     49      -3.4218      2.00000
     50      -3.3838      2.00000
     51      -3.3539      2.00000
     52      -3.3203      2.00000
     53      -3.2697      2.00000
     54      -3.2545      2.00000
     55      -3.2201      2.00000
     56      -2.4023      2.00000
     57      -2.3350      2.00000
     58      -2.3024      2.00000
     59      -2.2350      2.00000
     60      -2.2258      2.00000
     61      -2.1660      2.00000
     62      -2.1517      2.00000
     63      -2.1303      2.00000
     64      -2.0985      2.00000
     65      -2.0756      2.00000
     66      -2.0566      2.00000
     67      -1.9846      2.00000
     68      -1.9537      2.00000
     69      -1.9442      2.00000
     70      -1.9290      2.00000
     71      -1.8672      2.00000
     72      -1.8303      2.00000
     73      -1.7538      2.00000
     74      -1.3714      2.00000
     75      -1.3259      2.00000
     76      -1.3048      2.00000
     77      -1.1791      2.00000
     78      -1.0451      2.00000
     79      -1.0149      2.00000
     80      -0.9737      2.00000
     81      -0.9522      2.00000
     82      -0.9452      2.00000
     83      -0.8549      2.00000
     84      -0.8435      2.00000
     85      -0.8217      2.00000
     86      -0.7783      2.00000
     87      -0.7696      2.00000
     88      -0.7597      2.00000
     89      -0.7450      2.00000
     90      -0.7066      2.00000
     91      -0.6720      2.00000
     92      -0.6645      2.00000
     93      -0.6226      2.00000
     94      -0.6104      2.00000
     95      -0.5853      2.00000
     96      -0.5618      2.00000
     97      -0.5360      2.00000
     98      -0.5124      2.00000
     99      -0.4485      2.00000
    100      -0.4140      2.00000
    101      -0.2764      2.00000
    102      -0.0298      2.00000
    103      -0.0166      2.00000
    104       0.0217      2.00000
    105       0.1194      2.00000
    106       0.1470      2.00000
    107       0.1703      2.00000
    108       0.2203      2.00000
    109       0.2486      2.00000
    110       0.2850      2.00000
    111       0.2987      2.00000
    112       0.3445      2.00000
    113       0.4952      2.00000
    114       1.3911      2.00000
    115       1.4090      2.00000
    116       1.4212      2.00000
    117       1.4948      2.00000
    118       1.5217      2.00000
    119       1.5485      2.00000
    120       1.5938      2.00000
    121       1.5983      2.00000
    122       1.6165      2.00000
    123       1.6330      2.00000
    124       1.6368      2.00000
    125       1.6635      2.00000
    126       1.6819      2.00000
    127       1.7037      2.00000
    128       1.7152      2.00000
    129       1.7316      2.00000
    130       1.7549      2.00000
    131       1.7804      2.00000
    132       1.7884      2.00000
    133       1.8007      2.00000
    134       1.8125      2.00000
    135       1.8366      2.00000
    136       1.8525      2.00000
    137       1.8566      2.00000
    138       1.8715      2.00000
    139       1.8853      2.00000
    140       1.8934      2.00000
    141       1.9194      2.00000
    142       1.9427      2.00000
    143       1.9542      2.00000
    144       1.9698      2.00000
    145       1.9727      2.00000
    146       1.9892      2.00000
    147       2.0059      2.00000
    148       2.0269      2.00000
    149       2.0351      2.00000
    150       2.0505      2.00000
    151       2.0639      2.00000
    152       2.0728      2.00000
    153       2.0961      2.00000
    154       2.1091      2.00000
    155       2.1341      2.00000
    156       2.1420      2.00000
    157       2.1570      2.00000
    158       2.1683      2.00000
    159       2.1909      2.00000
    160       2.2030      2.00000
    161       2.2226      2.00000
    162       2.2233      2.00000
[...]
   0.659E+01 0.666E-01 0.393E+01   -.573E+01 -.350E+00 -.375E+01   -.183E+01 0.191E+01 -.157E+01   0.152E-06 -.361E-07 -.184E-05
   -.245E+01 -.700E+01 -.653E+01   0.206E+01 0.639E+01 0.556E+01   0.103E+01 0.892E+00 0.188E+01   0.337E-05 0.436E-05 0.132E-05
   0.595E+01 0.698E+00 -.151E+01   -.479E+01 -.953E+00 0.124E+01   -.311E+01 0.101E+00 0.103E+01   -.181E-05 -.544E-06 -.444E-05
   -.165E+02 0.109E+01 0.768E+01   0.148E+02 -.461E+00 -.776E+01   0.351E+01 -.477E+00 -.453E+00   0.594E-05 0.614E-05 -.605E-05
   0.137E+02 -.772E+01 0.104E+02   -.120E+02 0.725E+01 -.928E+01   -.529E+01 0.312E+01 -.391E+01   -.290E-05 0.567E-05 -.207E-05
   0.357E+00 -.486E+01 -.358E+01   -.908E+00 0.409E+01 0.368E+01   0.108E+01 0.133E+01 -.106E+01   -.380E-05 0.653E-05 0.221E-05
   -.163E+01 0.174E+01 -.546E+01   0.901E+00 -.117E+01 0.421E+01   0.639E+00 -.131E+01 0.330E+01   -.568E-05 0.896E-06 -.234E-06
   -.804E+01 -.165E+01 0.187E+02   0.791E+01 0.146E+01 -.167E+02   0.350E+00 0.130E+01 -.402E+01   0.300E-05 -.188E-05 0.585E-07
   0.701E+01 0.360E+01 -.327E+01   -.617E+01 -.323E+01 0.339E+01   -.201E+01 -.139E+01 -.128E-01   -.784E-05 -.459E-05 0.187E-05
   0.971E+01 -.809E+01 -.960E+01   -.940E+01 0.731E+01 0.892E+01   -.110E+01 0.108E+01 0.148E+01   -.439E-05 -.128E-05 0.564E-05
   -.257E+01 -.105E+02 0.201E+00   0.238E+01 0.952E+01 -.563E-01   -.102E+00 0.434E+01 0.687E+00   0.340E-05 0.798E-05 0.494E-05
   -.747E+01 0.129E+02 0.490E+01   0.642E+01 -.122E+02 -.356E+01   0.133E+01 -.380E+01 -.206E+01   0.100E-05 -.134E-04 0.906E-06
   0.551E+01 0.567E+00 0.126E+02   -.542E+01 -.106E+01 -.116E+02   -.105E+01 0.719E+00 -.189E+01   -.131E-05 -.496E-05 -.166E-05
   0.574E+01 0.236E+01 -.118E+02   -.447E+01 -.214E+01 0.108E+02   -.183E+01 -.883E+00 0.192E+01   -.224E-06 -.168E-05 0.588E-05
   -.634E+01 -.777E+01 0.773E+00   0.589E+01 0.706E+01 -.916E+00   0.146E+01 0.218E+01 0.671E-01   -.153E-05 0.743E-06 0.124E-05
   -.313E+01 -.446E+00 0.545E+01   0.276E+01 -.369E+00 -.437E+01   0.134E+01 0.272E+00 -.125E+01   0.985E-06 -.250E-05 -.188E-05
   -.131E+02 0.382E+01 0.325E+01   0.117E+02 -.375E+01 -.237E+01   0.214E+01 -.785E+00 -.287E+01   0.322E-05 -.194E-05 0.476E-05
   0.923E+01 -.454E+01 0.421E+00   -.922E+01 0.383E+01 -.452E+00   -.726E+00 0.206E+00 -.296E+00   -.625E-05 0.671E-07 0.170E-05
   0.211E+01 -.431E+01 0.720E-01   -.236E+01 0.422E+01 -.715E-01   -.974E+00 0.170E+01 0.228E+00   0.378E-05 0.259E-05 0.197E-05
   -.377E+01 -.892E+01 0.292E+00   0.291E+01 0.760E+01 -.926E+00   0.398E+00 0.349E+01 0.111E+01   0.159E-05 0.518E-08 -.441E-05
   0.112E+02 0.115E+02 0.447E+00   -.106E+02 -.101E+02 -.225E+00   -.334E+01 -.348E+01 0.115E+01   -.363E-05 -.392E-05 0.324E-05
   0.632E+01 -.519E+01 0.121E+02   -.635E+01 0.436E+01 -.105E+02   -.146E+01 0.177E+01 -.498E+01   -.574E-05 0.722E-05 -.102E-04
   0.132E+02 0.502E+01 -.383E+01   -.116E+02 -.446E+01 0.331E+01   -.237E+01 -.149E+01 0.264E+01   -.205E-05 0.109E-05 -.431E-06
   0.179E+01 0.685E+01 -.800E+01   -.218E+01 -.617E+01 0.653E+01   0.806E+00 -.108E+01 0.317E+01   -.639E-06 -.445E-05 0.161E-05
   0.439E+00 0.637E+01 0.259E+01   -.755E+00 -.525E+01 -.151E+01   0.109E+01 -.330E+01 -.341E+01   0.178E-07 0.369E-05 0.501E-06
   -.440E+01 -.412E+01 -.103E+02   0.451E+01 0.404E+01 0.101E+02   0.402E+00 -.292E+00 0.245E+01   0.681E-05 0.688E-05 0.404E-05
   -.105E+02 0.421E+01 0.182E+01   0.936E+01 -.519E+01 -.197E+01   0.464E+01 0.111E+01 -.189E+00   0.314E-05 -.682E-05 -.641E-05
   -.182E+01 0.709E+01 -.144E+02   0.253E+01 -.669E+01 0.128E+02   0.890E+00 -.604E+00 0.385E+01   0.302E-05 -.293E-05 0.120E-04
   -.413E+01 -.426E+01 0.127E+01   0.446E+01 0.399E+01 -.141E+01   -.567E-01 0.148E+00 -.190E+01   0.111E-04 -.137E-05 -.399E-05
   0.102E+02 0.518E+01 -.470E+01   -.992E+01 -.474E+01 0.395E+01   -.157E+01 -.173E+01 0.153E+01   -.735E-05 -.392E-05 0.236E-05
   0.101E+01 0.192E+01 0.119E+01   -.652E+00 -.270E+01 -.105E+01   -.612E+00 0.171E+01 -.865E+00   0.380E-05 0.980E-06 0.611E-05
   -.372E+01 0.359E+01 -.226E+01   0.401E+01 -.302E+01 0.184E+01   0.789E+00 -.642E+00 0.162E+01   0.588E-06 0.248E-06 0.418E-05
   0.846E+01 0.267E+01 0.841E+01   -.762E+01 -.166E+01 -.723E+01   -.309E+01 -.821E+00 -.237E+01   0.115E-06 -.206E-06 -.688E-05
   0.561E+01 -.193E+02 -.138E+02   -.539E+01 0.180E+02 0.122E+02   -.257E+00 0.399E+01 0.199E+01   -.127E-05 0.640E-05 0.949E-05
   0.377E+01 0.941E+01 -.452E+01   -.327E+01 -.798E+01 0.357E+01   -.140E+01 -.369E+01 0.926E+00   -.110E-05 -.414E-05 -.853E-06
   0.216E+01 -.126E+01 0.864E+01   -.173E+01 0.776E+00 -.781E+01   -.309E+00 0.246E+01 -.181E+01   -.248E-05 -.298E-05 -.720E-05
   -.706E+01 0.305E+01 0.481E+01   0.575E+01 -.224E+01 -.431E+01   0.303E+01 -.131E+01 -.843E+00   -.773E-06 0.159E-05 -.333E-05
   0.487E+01 -.840E+01 -.906E+01   -.366E+01 0.820E+01 0.844E+01   -.111E+01 0.147E+01 0.257E+01   0.172E-05 0.705E-05 0.432E-05
   -.346E+01 -.946E+01 0.427E+01   0.384E+01 0.753E+01 -.466E+01   -.670E+00 0.279E+01 0.369E+00   -.139E-05 -.110E-05 -.662E-05
   -.844E+01 0.263E+01 0.107E+02   0.802E+01 -.198E+01 -.965E+01   0.214E+01 -.137E+01 -.133E+01   0.603E-06 0.147E-05 -.235E-06
   -.668E+01 0.109E+01 0.490E+01   0.563E+01 -.129E+01 -.402E+01   0.381E+01 -.112E+01 -.198E+01   0.295E-05 -.556E-06 -.123E-05
   0.377E+01 0.493E+01 0.352E+01   -.323E+01 -.457E+01 -.262E+01   -.144E+01 -.155E+01 -.118E+01   -.534E-05 -.679E-05 -.508E-05
   0.508E+01 0.245E+01 0.932E+00   -.425E+01 -.316E+01 -.636E+00   -.156E+01 -.169E+01 -.489E+00   -.283E-05 -.423E-05 0.589E-06
   -.156E+02 -.161E+01 -.250E+01   0.140E+02 0.175E+01 0.281E+01   0.418E+01 0.729E+00 -.925E-01   0.775E-05 0.485E-05 0.760E-05
   -.971E+01 0.544E+01 0.448E+01   0.876E+01 -.466E+01 -.384E+01   0.181E+01 -.108E+01 -.151E+01   0.676E-05 -.325E-06 -.248E-05
   -.162E+01 0.116E+01 -.453E+01   0.149E+01 -.944E+00 0.415E+01   0.192E-01 -.164E+01 0.343E+00   0.392E-05 -.149E-05 0.485E-05
   0.126E+02 0.527E+01 0.169E+00   -.115E+02 -.525E+01 -.403E+00   -.342E+01 -.300E+00 0.208E+00   -.424E-05 -.483E-05 0.427E-05
   0.126E+02 -.474E+01 -.850E+01   -.114E+02 0.455E+01 0.788E+01   -.349E+01 0.901E+00 0.208E+01   -.140E-05 0.390E-05 0.313E-05
   -.618E+01 0.138E+01 0.102E+02   0.491E+01 -.787E+00 -.958E+01   0.243E+01 -.131E+01 -.966E+00   0.224E-05 -.305E-05 -.101E-04
   0.871E+01 0.205E+01 0.601E+01   -.833E+01 -.158E+01 -.555E+01   -.987E+00 -.749E+00 -.218E+01   -.342E-05 -.472E-07 0.115E-05
   -.895E+01 0.116E+02 -.174E+01   0.843E+01 -.106E+02 0.196E+01   0.184E+01 -.185E+01 -.854E+00   0.132E-05 -.208E-05 0.195E-05
   0.492E+01 0.297E+01 0.121E+01   -.451E+01 -.267E+01 -.185E+01   -.219E+01 -.627E+00 0.120E+01   -.686E-05 -.268E-05 -.650E-05
   -.612E+01 -.366E+01 -.899E+01   0.501E+01 0.360E+01 0.788E+01   0.226E+01 0.910E+00 0.278E+01   -.140E-05 0.412E-05 0.247E-05
 -----------------------------------------------------------------------------------------------
   -.716E+00 -.422E+00 -.533E+00   -.835E-13 0.275E-13 0.165E-12   0.716E+00 0.422E+00 0.533E+00   -.273E-05 0.490E-05 0.682E-05
 
 
 POSITION                                       TOTAL-FORCE (eV/Angst)
 -----------------------------------------------------------------------------------
     10.95586     21.80988     10.95026        -0.107567      1.464413     -0.043296
     10.80791      2.80618     13.55788         1.552957     -0.719719      1.226241
      0.09835      5.49399      5.55203        -1.759525      0.424400      0.661391
      0.19876      8.26653      8.26149        -0.300824     -3.046961      0.826718
      2.82060      0.19081      2.82187         0.059797      0.053794     -0.458834
     13.76365     13.52902      5.54455        -0.905413      2.035786     -0.089483
     13.69255     16.44476      8.27824        -1.242509     -0.691743      0.040750
      2.66175      8.30169     10.89966         0.457172     -0.682012      0.706548
      5.73014     11.04638     16.52503        -1.941138     -1.036262     -1.010497
      5.39663      2.87453      8.26786         0.888191     -0.191803     -0.123103
     16.26674     16.29206     11.09498         0.997834      2.175689     -1.852292
      5.51226      8.27018     13.63870        -0.260472     -0.651292      0.218174
     19.14139     10.91517      8.26346         0.164081     -0.462141     -0.943895
     18.95659     13.70684     10.83087         1.946083     -1.667337      1.882210
     19.12574     16.40201     13.90627         0.908708      0.359432     -2.788345
     19.15062     19.05180     16.35144         1.188388     -0.189219      2.436817
     13.77776     13.77300     21.82057        -0.377638     -0.562009      0.603632
     13.63465      5.53116     13.63430        -0.294826     -1.336471      0.712007
     13.60103      8.17376     16.32183         1.157892      0.161848      0.294261
      2.72181     10.82962      8.16055         0.774333      1.866864     -0.233291
      5.54747     13.65095     13.74144        -0.236742      0.306718     -0.663382
      5.42791      5.60015      5.60790        -1.677874     -1.990675     -2.098943
      5.40168      8.23348      8.27495         3.330717      0.427803     -0.894031
      5.33645     10.75948     10.82182         0.248292      2.436599      1.627187
      8.25493     13.58698     16.10312        -1.470082      2.097326      3.668531
      8.09075      5.55550      8.30470         1.012907     -2.172764     -0.162443
      8.16456      8.21943     11.04795         0.293945      0.846217     -1.107533
      8.06203     11.04652     13.82650         0.421986     -1.001925     -0.311600
     11.02797     13.56378     19.22763         0.019192      0.737137     -0.943710
     10.83886      5.40550     10.92370         1.290175      0.691117     -0.589560
     10.85875      8.32025     13.63250        -0.177616     -1.698828     -0.776761
     10.72321     10.93997     16.37579         2.893372     -1.353024      1.299917
     16.43017     16.35972     21.74871        -0.897779      1.155667      3.683988
      5.47848      8.08277      2.61997         0.237293      2.221085     -0.271247
     16.45102     11.12767     16.48054        -0.901025     -3.058455     -0.505786
      5.44572     13.66370      8.28682         0.953569      1.325444     -0.286729
      8.14206      5.50622      2.87070         1.173717     -0.775903      0.504049
      8.16659      8.27067      5.58561        -1.506992     -1.329845     -2.354651
      8.37414     11.06154      8.16709        -2.633013      0.230704     -0.427925
      8.32774     13.77042     10.90633        -0.520332     -0.352710      1.717422
     10.85269      5.38577      5.46701         0.598271      1.595361     -0.425107
     10.93016      8.16538      8.13669        -1.128840     -0.824211     -0.126645
     11.06441     10.87575     10.88728        -2.375226      0.198168     -0.270635
     10.92494     13.56933     13.62907         0.604027      0.616221      0.904857
     13.85886     16.37336     19.14605        -2.425020      0.730170     -0.189952
     13.56123      8.39503     10.87316         2.182588     -1.986644      1.189191
     13.69626     11.02871     13.66165        -0.855418     -0.277234      0.420270
     13.60480     13.79951     16.52008         2.162249     -0.739432     -0.858257
     19.15861     19.19635     21.78822        -1.118117     -0.793164      2.035647
      8.38089     10.82417      2.97996        -0.281797      0.381148     -3.126910
      8.07482     13.55059      5.53407         1.942447      0.810257     -0.843328
      8.32266     16.27549      8.23425        -1.717051      1.562651     -0.149856
     11.03694     19.20372     13.68118        -0.022194      0.455618     -0.151171
     10.99050     10.92073      5.39680        -0.288097      0.439103      1.781626
     10.92651     13.64564      8.32303        -0.700457      0.726262     -1.983534
     10.91504     16.39972     10.80655        -1.469577      1.142728      2.026710
     13.72321     19.15471     16.41389         0.691443      1.627106      0.128399
     13.45844     10.82952      8.06233         1.482651      1.330844      1.035302
     13.70186     13.74117     11.09391         0.187615     -0.705512     -1.684472
     13.51996     16.40136     13.88308         1.387814      0.205398     -1.813661
     16.43060     19.04372     19.00100        -0.030326      0.556354      0.693652
     16.45006     10.81921     10.85016         0.516502      1.734718      0.718217
     16.54234     13.75509     13.65626        -0.734492     -1.292179      1.571595
     16.40551     16.42421     16.42010        -1.148859     -0.993203     -1.284054
      1.47129      1.43046      1.34581        -0.912094      0.171984     -0.186813
      1.30785      4.06918      4.32269         1.015819     -0.622345     -2.364323
      1.46340      6.86947      6.86930        -0.234065     -0.482189      0.113330
      1.33764      9.66891      9.48777         0.609327      0.322304      1.815765
      4.19453      1.43966      4.22964         1.421087     -1.136332     -0.586984
      3.95377      4.08327      6.91766         1.036830      0.772972     -0.557950
      4.12707      6.91972      9.44777        -0.833359     -1.147672      3.098232
      4.05991      9.68968     12.39632        -0.164793     -1.117698     -0.448485
      6.81504      1.50890      6.89796         1.772474      0.599932      0.414152
      6.80397      4.16646      9.69881        -1.514261      0.973566     -1.440227
      6.87475      6.75224     12.27136        -0.836111      0.007742      1.365452
      6.89223      9.45265     15.20215        -0.965608      1.627181     -1.395199
      9.50359      1.34600      9.55918         0.636996      0.283308      0.910379
      9.53905      4.11884     12.21594        -1.946003     -0.153546      0.759772
      9.55375      6.82976     15.09342         1.828866      0.152665     -0.531538
      9.79260      9.35441     17.96923        -3.529569      2.645936     -2.775516
      4.10697      4.05264      1.50335         0.527841      0.563997     -0.970602
      4.07342      6.91969      3.91540        -0.092432     -0.733599      2.055384
      4.04722      9.41665      6.94822         0.217535      1.116102     -2.074406
      4.15573     12.32640      9.55715        -1.173863     -1.016809      0.104770
      6.81699      4.13584      4.12853        -0.792082      0.300927      0.806328
      6.90492      6.64202      6.80443        -0.288330      3.313521      0.831127
      6.94759      9.90638      9.61354         0.287651     -3.149907     -0.722264
      6.88325     12.28843     12.29862        -0.959309      0.228709     -0.978498
      9.55887      4.06036      6.81705        -0.564953     -0.662515      0.894061
      9.46732      6.77757      9.61815         1.009349      1.475147     -0.075929
      9.41711      9.75342     12.37072         0.967095     -0.542453     -0.172073
      9.58064     12.28676     15.05365         0.690377     -0.719066     -2.000058
     12.38001      4.18189      9.57418        -0.719707     -0.508917     -0.327268
     12.34016      6.75608     12.17581        -1.223190      1.612839      0.227998
     12.30543      9.45334     14.94304        -0.465892      2.160292      0.472942
     12.48910     12.35534     17.68736        -2.815778     -2.032900      1.375306
      6.99665      6.76606      1.52389        -1.495268      0.942655     -3.402567
      6.77800      9.63138      3.96428        -0.730105     -0.930827      2.115436
      6.77619     12.37078      6.87450         0.416061     -0.400343      1.698564
      6.90485     15.16855      9.73637         0.774397     -2.187473     -2.330763
      9.52903      6.99309      3.96082         0.514063     -0.369961      2.231046
      9.35037      9.55602      6.89270         3.504373      0.128752     -0.337975
      9.52519     12.35789      9.48704         1.602671     -0.207717      2.263920
      9.58340     15.12068     12.54532         0.274877     -0.129614     -2.035969
     12.44042      6.87650      6.75992        -1.258081     -1.289817      0.781975
     12.21648      9.46058      9.48855        -0.252033      0.926727     -0.726224
     12.23916     12.31811     12.17299         1.077793     -0.075698      1.189331
     12.34140     14.96451     15.16739        -2.241406      0.192288     -1.197579
     15.09031      6.72266      9.53420        -0.037204      2.625998      0.409401
     15.11061      9.79481     12.30950        -0.889117     -2.262733     -0.020053
     14.97144     12.26357     15.20241         0.123291      1.973373     -0.987399
     15.00834     15.04740     17.80452         1.717863     -0.497699     -0.351440
      9.65534      9.41238      1.21486         0.098418      1.275392      1.949471
      9.64867     12.29637      4.14807        -0.283326      0.863633     -0.026309
      9.48076     14.99992      6.82232         1.711206     -0.718925     -0.323193
      9.38650     17.88098      9.54188         2.762195     -1.322487     -1.095940
     12.49961      9.71444      4.12996        -0.904686     -1.194351     -0.283415
     12.29600     12.50209      6.88807        -0.731255     -2.387034     -0.192835
     12.15059     14.95576      9.62985         2.652331      0.870637      0.213107
     12.21615     17.74543     12.34643         0.862845     -0.293529     -0.867201
     15.10778      9.75817      6.81190        -0.113751     -1.426050     -0.042930
     15.20382     12.29240      9.57260        -2.346743     -0.276142     -0.026069
     15.11985     14.97038     12.41529        -2.250308      0.712162      1.461920
     14.96537     17.86160     15.03171         1.152854     -0.711894     -0.355215
     17.79575      9.51712      9.60084        -0.608875     -0.274370     -1.715884
     17.72453     12.27324     12.38486         1.312252     -0.931203     -0.632739
     17.89217     15.01793     15.10211        -1.773594     -0.327896      0.565198
     17.78925     17.62757     17.64403         1.149039      0.853492      1.665070
 -----------------------------------------------------------------------------------
    total drift:                                0.000023      0.000010      0.000013


--------------------------------------------------------------------------------------------------------



  FREE ENERGIE OF THE ION-ELECTRON SYSTEM (eV)
  ---------------------------------------------------
  free  energy   TOTEN  =      -674.73800435 eV

  energy  without entropy=     -674.73800435  energy(sigma->0) =     -674.73800435
 


--------------------------------------------------------------------------------------------------------


    POTLOK:  cpu time    0.9903: real time    0.9919


--------------------------------------------------------------------------------------------------------


     LOOP+:  cpu time 1613.2505: real time 1613.8511
    4ORBIT:  cpu time    0.0000: real time    0.0000

 total amount of memory used by VASP MPI-rank0   221701. kBytes
=======================================================================

   base      :      30000. kBytes
   nonl-proj :      10690. kBytes
   fftplans  :      66746. kBytes
   grid      :      26864. kBytes
   one-center:         24. kBytes
   wavefun   :      87377. kBytes
 
  
  
 General timing and accounting informations for this job:
 ========================================================
  
                  Total CPU time used (sec):     1637.312
                            User time (sec):     1636.261
                          System time (sec):        1.052
                         Elapsed time (sec):     1638.963
  
                   Maximum memory used (kb):      337932.
                   Average memory used (kb):           0.
  
                          Minor page faults:       151733
                          Major page faults:            0
                 Voluntary context switches:         1333
