<?xml version="1.0" encoding="ISO-8859-1"?>
<modeling>
 <generator>
  <i name="program" type="string">vasp </i>
  <i name="version" type="string">5.4.4.18Apr17-6-g9f103f2a35  </i>
  <i name="subversion" type="string">(build Nov 08 2017 09:05:29) complex            parallel </i>
  <i name="platform" type="string">Intel_17.33 </i>
  <i name="date" type="string">2020 07 18 </i>
  <i name="time" type="string">19:20:46 </i>
 </generator>
 <incar>
  <i type="string" name="SYSTEM">potpaw_PBE@./ARUN.APL1ZEROSTATE</i>
  <i type="string" name="PREC">accurate</i>
  <i type="string" name="ALGO">Normal</i>
  <i type="int" name="NSIM">     4</i>
  <i type="logical" name="ADDGRID"> T  </i>
  <i type="int" name="NELM">   120</i>
  <i type="int" name="NELMIN">     4</i>
  <i name="EDIFF">      0.00000001</i>
  <i type="int" name="NSW">     0</i>
  <i type="int" name="ISYM">     2</i>
  <i name="ENMAX">    500.00000000</i>
  <i type="logical" name="LREAL"> F  </i>
  <i type="logical" name="LPLANE"> T  </i>
  <i type="int" name="ISMEAR">     0</i>
  <i name="SIGMA">      0.01000000</i>
  <i type="logical" name="LWAVE"> F  </i>
  <i type="logical" name="LCHARG"> F  </i>
  <i type="logical" name="LELF"> F  </i>
  <i type="logical" name="LAECHG"> F  </i>
  <v type="int" name="KPOINT_BSE">    -1     0     0     0</v>
  <i type="int" name="NELM">   120</i>
 </incar>
 <structure name="primitive_cell" >
  <crystal>
   <varray name="basis" >
    <v>       0.00000000      10.93733369      10.93733369 </v>
    <v>      10.93733369       0.00000000      10.93733369 </v>
    <v>      10.93733369      10.93733369       0.00000000 </v>
   </varray>
   <i name="volume">   2616.76295363 </i>
   <varray name="rec_basis" >
    <v>      -0.04571498       0.04571498       0.04571498 </v>
    <v>       0.04571498      -0.04571498       0.04571498 </v>
    <v>       0.04571498       0.04571498      -0.04571498 </v>
   </varray>
  </crystal>
  <varray name="positions" >
   <v>      -0.00321787       0.00440009      -0.00270585 </v>
   <v>       0.04443068       0.06664428      -0.18385735 </v>
   <v>      -0.18540318       0.05286971       0.06943093 </v>
   <v>       0.06407361      -0.19007779       0.05899071 </v>
   <v>       0.05965670       0.06339033       0.07112988 </v>
   <v>      -0.24389228       0.24044814       0.00291559 </v>
   <v>      -0.25350868       0.00885625       0.00931679 </v>
   <v>      -0.00122093       0.25209077      -0.24298404 </v>
   <v>      -0.00222674      -0.00567747      -0.24265146 </v>
   <v>      -0.00508490      -0.23693373       0.24522084 </v>
   <v>       0.00170248      -0.24617457      -0.00372933 </v>
   <v>       0.25399940      -0.01440310       0.00256957 </v>
   <v>      -0.25629231       0.00241071       0.24644439 </v>
   <v>       0.24792344       0.02453442      -0.25826988 </v>
   <v>       0.00878058       0.24922248       0.00866522 </v>
   <v>      -0.00269050      -0.00225545       0.26195519 </v>
   <v>       0.25514061      -0.26487478      -0.00192507 </v>
   <v>      -0.19856881      -0.15850559       0.05384239 </v>
   <v>      -0.17593767       0.30933228       0.06186492 </v>
   <v>      -0.17546817       0.04788202      -0.18967429 </v>
   <v>      -0.18281230       0.31164599      -0.19472350 </v>
   <v>       0.06044457      -0.18264016      -0.19029481 </v>
   <v>       0.06147725       0.31612471      -0.17328617 </v>
   <v>       0.31066844       0.06858945      -0.18641226 </v>
   <v>       0.31066676      -0.19376343       0.06591861 </v>
   <v>      -0.18957348       0.06338303       0.31657559 </v>
   <v>       0.31696796      -0.18462081      -0.19482634 </v>
   <v>       0.06290669      -0.18753977       0.31944325 </v>
   <v>      -0.19753738      -0.18530772       0.32718578 </v>
   <v>      -0.25736710       0.24680580       0.24110571 </v>
   <v>       0.24352482       0.24990408      -0.24504289 </v>
   <v>      -0.25524702       0.24328978      -0.24532765 </v>
   <v>       0.23860066      -0.24657115      -0.24940047 </v>
   <v>       0.25099058      -0.25223756       0.24323373 </v>
   <v>      -0.24147156      -0.26129054       0.24171303 </v>
   <v>       0.06513831       0.29699935      -0.42576067 </v>
   <v>      -0.43689893       0.07217443       0.29786257 </v>
   <v>       0.31166922       0.05078494      -0.43107260 </v>
   <v>      -0.44042996       0.30423889       0.07309930 </v>
   <v>      -0.43883175       0.06689180       0.06690676 </v>
   <v>       0.05912311       0.08020630      -0.44050276 </v>
   <v>       0.06624157       0.07120947       0.30429080 </v>
   <v>       0.07276999      -0.44208963       0.06518854 </v>
   <v>       0.06027716      -0.43699475       0.31096143 </v>
   <v>       0.32280720      -0.43604557       0.05813222 </v>
   <v>       0.32384605       0.07137730       0.04819936 </v>
   <v>       0.06741866       0.31929671       0.06420907 </v>
   <v>      -0.49225486       0.24883299       0.24504199 </v>
   <v>      -0.49574326       0.25262218      -0.00071330 </v>
   <v>      -0.25042932       0.49741488       0.00657125 </v>
   <v>       0.49687653      -0.24828490      -0.23924941 </v>
   <v>      -0.24548361       0.00314691       0.49475532 </v>
   <v>      -0.23588398      -0.25368610       0.49757273 </v>
   <v>      -0.23361233      -0.49705817      -0.26681232 </v>
   <v>      -0.00133849      -0.49793991      -0.24734719 </v>
   <v>       0.23882692       0.00071694      -0.49981991 </v>
   <v>       0.01073653       0.25173143       0.49269674 </v>
   <v>      -0.26000786       0.01286461      -0.25192438 </v>
   <v>       0.49804441      -0.00573980       0.24928182 </v>
   <v>       0.24274320       0.26419508      -0.00578519 </v>
   <v>       0.26010404       0.25058835       0.49608286 </v>
   <v>       0.25284080      -0.00625729       0.25287318 </v>
   <v>      -0.25701147      -0.24797676      -0.00108306 </v>
   <v>      -0.01191103      -0.25082830      -0.24692218 </v>
   <v>      -0.49668566       0.00266545      -0.26438475 </v>
   <v>      -0.00135986       0.25773917       0.24946590 </v>
   <v>      -0.00978840      -0.23968886      -0.49319616 </v>
   <v>       0.26266753       0.49326281       0.00015102 </v>
   <v>       0.26375033       0.49554804       0.24418854 </v>
   <v>      -0.48879019      -0.23975972      -0.01157500 </v>
   <v>      -0.02009164       0.49239959       0.26234825 </v>
   <v>      -0.18042454      -0.44522672      -0.18649033 </v>
   <v>       0.30451560      -0.42929335      -0.18062239 </v>
   <v>       0.31971641      -0.19425973      -0.42417756 </v>
   <v>      -0.17335408       0.32037234      -0.44416277 </v>
   <v>       0.30134052      -0.18810657       0.31636726 </v>
   <v>      -0.43153299       0.31199014      -0.20106200 </v>
   <v>      -0.44100328      -0.17821106      -0.18590828 </v>
   <v>      -0.18428126      -0.18785220      -0.43993554 </v>
   <v>      -0.18811263      -0.43553308       0.31149096 </v>
   <v>      -0.42525609       0.30422203       0.33099572 </v>
   <v>       0.31673165      -0.43734447       0.30294159 </v>
   <v>      -0.19067153       0.31513350       0.31420222 </v>
   <v>       0.32450097       0.30569837      -0.45079477 </v>
   <v>       0.32430950       0.30546669      -0.18124415 </v>
   <v>      -0.44726266      -0.18649612       0.31158155 </v>
   <v>      -0.20079496      -0.18601240      -0.18751722 </v>
   <v>      -0.00152670      -0.48759048       0.01149658 </v>
   <v>      -0.49952743       0.00714902       0.00184273 </v>
   <v>      -0.49163576      -0.49395063      -0.01878227 </v>
   <v>      -0.48994906      -0.00323586      -0.49264835 </v>
   <v>      -0.00897893      -0.00253743      -0.49525275 </v>
   <v>       0.00000406       0.49984438       0.49241659 </v>
   <v>      -0.17712719       0.06732304      -0.43601272 </v>
   <v>      -0.42881221      -0.18123214      -0.44992986 </v>
   <v>      -0.18798475      -0.42208338       0.05223978 </v>
   <v>       0.05467486      -0.43661567      -0.42595678 </v>
   <v>      -0.18670757      -0.42653812      -0.44508781 </v>
   <v>       0.06684874      -0.44403680      -0.17465976 </v>
   <v>      -0.43453160      -0.18547719       0.05897637 </v>
   <v>      -0.42997548       0.05851112      -0.43896457 </v>
   <v>      -0.43926828      -0.42560248      -0.19199036 </v>
   <v>      -0.44461552      -0.43341409       0.06197232 </v>
   <v>       0.05332913      -0.18161745      -0.43867629 </v>
   <v>      -0.43580921       0.05957384      -0.19274859 </v>
   <v>       0.24838836       0.48875024      -0.25824591 </v>
   <v>      -0.25260500       0.24977031      -0.48836566 </v>
   <v>      -0.49104498      -0.49463935      -0.25259992 </v>
   <v>      -0.23148606       0.49564216       0.24146922 </v>
   <v>       0.49621248       0.25050433      -0.48485669 </v>
   <v>       0.24557679       0.49836070      -0.49901629 </v>
   <v>      -0.49243490      -0.49745119       0.24393704 </v>
   <v>      -0.49520826       0.25618213      -0.25717157 </v>
   <v>      -0.49740488      -0.25351099      -0.49424030 </v>
   <v>      -0.49283790      -0.26074282       0.25355792 </v>
   <v>      -0.25605927      -0.49783553       0.49670261 </v>
   <v>       0.26089368      -0.26676115      -0.49333638 </v>
   <v>       0.32216045       0.31032064       0.05117265 </v>
   <v>       0.30910990       0.04887481       0.32355746 </v>
   <v>       0.29904553       0.32308314       0.30823372 </v>
   <v>       0.06616690       0.31130429       0.31197301 </v>
   <v>       0.26423923       0.24849120       0.24778195 </v>
   <v>      -0.24850037      -0.25021007      -0.24983497 </v>
   <v>      -0.41909804      -0.44984736       0.31085329 </v>
   <v>      -0.43990291      -0.44712118      -0.43385312 </v>
   <v>       0.30778324      -0.44024545      -0.44280269 </v>
   <v>      -0.43680313       0.30420271      -0.43331503 </v>
   <v>       0.48908679      -0.49366349      -0.49471759 </v>
  </varray>
 </structure>
 <varray name="primitive_index" >
  <v type="int" >        1 </v>
  <v type="int" >      113 </v>
  <v type="int" >       68 </v>
  <v type="int" >       77 </v>
  <v type="int" >       65 </v>
  <v type="int" >        8 </v>
  <v type="int" >        4 </v>
  <v type="int" >       53 </v>
  <v type="int" >       49 </v>
  <v type="int" >       29 </v>
  <v type="int" >       13 </v>
  <v type="int" >        2 </v>
  <v type="int" >       20 </v>
  <v type="int" >       50 </v>
  <v type="int" >        5 </v>
  <v type="int" >       17 </v>
  <v type="int" >       14 </v>
  <v type="int" >       80 </v>
  <v type="int" >       72 </v>
  <v type="int" >      116 </v>
  <v type="int" >      120 </v>
  <v type="int" >      125 </v>
  <v type="int" >      117 </v>
  <v type="int" >      114 </v>
  <v type="int" >       78 </v>
  <v type="int" >       84 </v>
  <v type="int" >      126 </v>
  <v type="int" >       93 </v>
  <v type="int" >       96 </v>
  <v type="int" >       24 </v>
  <v type="int" >       54 </v>
  <v type="int" >       56 </v>
  <v type="int" >       62 </v>
  <v type="int" >       30 </v>
  <v type="int" >       32 </v>
  <v type="int" >      101 </v>
  <v type="int" >       83 </v>
  <v type="int" >       98 </v>
  <v type="int" >       71 </v>
  <v type="int" >       67 </v>
  <v type="int" >       97 </v>
  <v type="int" >       81 </v>
  <v type="int" >       73 </v>
  <v type="int" >       89 </v>
  <v type="int" >       74 </v>
  <v type="int" >       66 </v>
  <v type="int" >       69 </v>
  <v type="int" >       23 </v>
  <v type="int" >        7 </v>
  <v type="int" >       12 </v>
  <v type="int" >       63 </v>
  <v type="int" >       36 </v>
  <v type="int" >       48 </v>
  <v type="int" >       60 </v>
  <v type="int" >       57 </v>
  <v type="int" >       34 </v>
  <v type="int" >       37 </v>
  <v type="int" >       52 </v>
  <v type="int" >       19 </v>
  <v type="int" >        6 </v>
  <v type="int" >       38 </v>
  <v type="int" >       18 </v>
  <v type="int" >       16 </v>
  <v type="int" >       61 </v>
  <v type="int" >       51 </v>
  <v type="int" >       21 </v>
  <v type="int" >       45 </v>
  <v type="int" >       10 </v>
  <v type="int" >       26 </v>
  <v type="int" >       15 </v>
  <v type="int" >       25 </v>
  <v type="int" >      124 </v>
  <v type="int" >      122 </v>
  <v type="int" >      110 </v>
  <v type="int" >      104 </v>
  <v type="int" >       94 </v>
  <v type="int" >      119 </v>
  <v type="int" >      127 </v>
  <v type="int" >      112 </v>
  <v type="int" >       92 </v>
  <v type="int" >       87 </v>
  <v type="int" >       90 </v>
  <v type="int" >       88 </v>
  <v type="int" >      102 </v>
  <v type="int" >      118 </v>
  <v type="int" >       95 </v>
  <v type="int" >      128 </v>
  <v type="int" >        9 </v>
  <v type="int" >        3 </v>
  <v type="int" >       11 </v>
  <v type="int" >       35 </v>
  <v type="int" >       33 </v>
  <v type="int" >       41 </v>
  <v type="int" >      100 </v>
  <v type="int" >      111 </v>
  <v type="int" >       76 </v>
  <v type="int" >      105 </v>
  <v type="int" >      108 </v>
  <v type="int" >      121 </v>
  <v type="int" >       79 </v>
  <v type="int" >       99 </v>
  <v type="int" >      123 </v>
  <v type="int" >       75 </v>
  <v type="int" >      109 </v>
  <v type="int" >      115 </v>
  <v type="int" >       58 </v>
  <v type="int" >       40 </v>
  <v type="int" >       59 </v>
  <v type="int" >       28 </v>
  <v type="int" >       39 </v>
  <v type="int" >       42 </v>
  <v type="int" >       27 </v>
  <v type="int" >       55 </v>
  <v type="int" >       47 </v>
  <v type="int" >       31 </v>
  <v type="int" >       44 </v>
  <v type="int" >       46 </v>
  <v type="int" >       70 </v>
  <v type="int" >       82 </v>
  <v type="int" >       86 </v>
  <v type="int" >       85 </v>
  <v type="int" >       22 </v>
  <v type="int" >       64 </v>
  <v type="int" >       91 </v>
  <v type="int" >      107 </v>
  <v type="int" >      106 </v>
  <v type="int" >      103 </v>
  <v type="int" >       43 </v>
 </varray>
 <kpoints>
  <generation param="Gamma">
   <v type="int" name="divisions">       2        2        2 </v>
   <v name="usershift">      0.00000000       0.00000000       0.00000000 </v>
   <v name="genvec1">      0.50000000       0.00000000       0.00000000 </v>
   <v name="genvec2">      0.00000000       0.50000000       0.00000000 </v>
   <v name="genvec3">      0.00000000       0.00000000       0.50000000 </v>
   <v name="shift">      0.00000000       0.00000000       0.00000000 </v>
  </generation>
  <varray name="kpointlist" >
   <v>       0.00000000       0.00000000       0.00000000 </v>
   <v>       0.50000000       0.00000000       0.00000000 </v>
   <v>       0.00000000       0.50000000       0.00000000 </v>
   <v>       0.50000000       0.50000000       0.00000000 </v>
   <v>       0.00000000       0.00000000       0.50000000 </v>
   <v>       0.50000000       0.00000000       0.50000000 </v>
   <v>       0.00000000       0.50000000       0.50000000 </v>
   <v>       0.50000000       0.50000000       0.50000000 </v>
  </varray>
  <varray name="weights" >
   <v>       0.12500000 </v>
   <v>       0.12500000 </v>
   <v>       0.12500000 </v>
   <v>       0.12500000 </v>
   <v>       0.12500000 </v>
   <v>       0.12500000 </v>
   <v>       0.12500000 </v>
   <v>       0.12500000 </v>
  </varray>
 </kpoints>
 <parameters>
  <separator name="general" >
   <i type="string" name="SYSTEM">potpaw_PBE@./ARUN.APL1ZEROSTATE</i>
   <i type="logical" name="LCOMPAT"> F  </i>
  </separator>
  <separator name="electronic" >
   <i type="string" name="PREC">accura</i>
   <i name="ENMAX">    500.00000000</i>
   <i name="ENAUG">    322.06900000</i>
   <i name="EDIFF">      0.00000001</i>
   <i type="int" name="IALGO">    38</i>
   <i type="int" name="IWAVPR">    10</i>
   <i type="int" name="NBANDS">   322</i>
   <i name="NELECT">    512.00000000</i>
   <i type="int" name="TURBO">     0</i>
   <i type="int" name="IRESTART">     0</i>
   <i type="int" name="NREBOOT">     0</i>
   <i type="int" name="NMIN">     0</i>
   <i name="EREF">      0.00000000</i>
   <separator name="electronic smearing" >
    <i type="int" name="ISMEAR">     0</i>
    <i name="SIGMA">      0.01000000</i>
    <i name="KSPACING">      0.50000000</i>
    <i type="logical" name="KGAMMA"> T  </i>
   </separator>
   <separator name="electronic projectors" >
    <i type="logical" name="LREAL"> F  </i>
    <v name="ROPT">      0.00000000</v>
    <i type="int" name="LMAXPAW">  -100</i>
    <i type="int" name="LMAXMIX">     2</i>
    <i type="logical" name="NLSPLINE"> F  </i>
   </separator>
   <separator name="electronic startup" >
    <i type="int" name="ISTART">     0</i>
    <i type="int" name="ICHARG">     2</i>
    <i type="int" name="INIWAV">     1</i>
   </separator>
   <separator name="electronic spin" >
    <i type="int" name="ISPIN">     1</i>
    <i type="logical" name="LNONCOLLINEAR"> F  </i>
    <v name="MAGMOM">      1.00000000      1.00000000      1.00000000      1.00000000      1.00000000      1.00000000      1.00000000      1.00000000      1.00000000      1.00000000      1.00000000      1.00000000      1.00000000      1.00000000      1.00000000      1.00000000      1.00000000      1.00000000      1.00000000      1.00000000
      1.00000000      1.00000000      1.00000000      1.00000000      1.00000000      1.00000000      1.00000000      1.00000000      1.00000000      1.00000000      1.00000000      1.00000000      1.00000000      1.00000000      1.00000000      1.00000000      1.00000000      1.00000000      1.00000000      1.00000000
      1.00000000      1.00000000      1.00000000      1.00000000      1.00000000      1.00000000      1.00000000      1.00000000      1.00000000      1.00000000      1.00000000      1.00000000      1.00000000      1.00000000      1.00000000      1.00000000      1.00000000      1.00000000      1.00000000      1.00000000
      1.00000000      1.00000000      1.00000000      1.00000000      1.00000000      1.00000000      1.00000000      1.00000000      1.00000000      1.00000000      1.00000000      1.00000000      1.00000000      1.00000000      1.00000000      1.00000000      1.00000000      1.00000000      1.00000000      1.00000000
      1.00000000      1.00000000      1.00000000      1.00000000      1.00000000      1.00000000      1.00000000      1.00000000      1.00000000      1.00000000      1.00000000      1.00000000      1.00000000      1.00000000      1.00000000      1.00000000      1.00000000      1.00000000      1.00000000      1.00000000
      1.00000000      1.00000000      1.00000000      1.00000000      1.00000000      1.00000000      1.00000000      1.00000000      1.00000000      1.00000000      1.00000000      1.00000000      1.00000000      1.00000000      1.00000000      1.00000000      1.00000000      1.00000000      1.00000000      1.00000000
      1.00000000      1.00000000      1.00000000      1.00000000      1.00000000      1.00000000      1.00000000      1.00000000</v>
    <i name="NUPDOWN">     -1.00000000</i>
    <i type="logical" name="LSORBIT"> F  </i>
    <v name="SAXIS">      0.00000000      0.00000000      1.00000000</v>
    <i type="logical" name="LSPIRAL"> F  </i>
    <v name="QSPIRAL">      0.00000000      0.00000000      0.00000000</v>
    <i type="logical" name="LZEROZ"> F  </i>
   </separator>
   <separator name="electronic exchange-correlation" >
    <i type="logical" name="LASPH"> F  </i>
    <i type="logical" name="LMETAGGA"> F  </i>
   </separator>
   <separator name="electronic convergence" >
    <i type="int" name="NELM">   120</i>
    <i type="int" name="NELMDL">    -5</i>
    <i type="int" name="NELMIN">     4</i>
    <i name="ENINI">    500.00000000</i>
    <separator name="electronic convergence detail" >
     <i type="logical" name="LDIAG"> T  </i>
     <i type="logical" name="LSUBROT"> F  </i>
     <i name="WEIMIN">      0.00000000</i>
     <i name="EBREAK">      0.00000000</i>
     <i name="DEPER">      0.30000000</i>
     <i type="int" name="NRMM">     4</i>
     <i name="TIME">      0.40000000</i>
    </separator>
   </separator>
   <separator name="electronic mixer" >
    <i name="AMIX">      0.40000000</i>
    <i name="BMIX">      1.00000000</i>
    <i name="AMIN">      0.10000000</i>
    <i name="AMIX_MAG">      1.60000000</i>
    <i name="BMIX_MAG">      1.00000000</i>
    <separator name="electronic mixer details" >
     <i type="int" name="IMIX">     4</i>
     <i type="logical" name="MIXFIRST"> F  </i>
     <i type="int" name="MAXMIX">   -45</i>
     <i name="WC">    100.00000000</i>
     <i type="int" name="INIMIX">     1</i>
     <i type="int" name="MIXPRE">     1</i>
     <i type="int" name="MREMOVE">     5</i>
    </separator>
   </separator>
   <separator name="electronic dipolcorrection" >
    <i type="logical" name="LDIPOL"> F  </i>
    <i type="logical" name="LMONO"> F  </i>
    <i type="int" name="IDIPOL">     0</i>
    <i name="EPSILON">      1.00000000</i>
    <v name="DIPOL">   -100.00000000   -100.00000000   -100.00000000</v>
    <i name="EFIELD">      0.00000000</i>
   </separator>
  </separator>
  <separator name="grids" >
   <i type="int" name="NGX">   120</i>
   <i type="int" name="NGY">   120</i>
   <i type="int" name="NGZ">   120</i>
   <i type="int" name="NGXF">   240</i>
   <i type="int" name="NGYF">   240</i>
   <i type="int" name="NGZF">   240</i>
   <i type="logical" name="ADDGRID"> T  </i>
  </separator>
  <separator name="ionic" >
   <i type="int" name="NSW">     0</i>
   <i type="int" name="IBRION">    -1</i>
   <i type="int" name="MDALGO">     0</i>
   <i type="int" name="ISIF">     2</i>
   <i name="PSTRESS">      0.00000000</i>
   <i name="EDIFFG">      0.00000010</i>
   <i type="int" name="NFREE">     0</i>
   <i name="POTIM">      0.50000000</i>
   <i name="SMASS">     -3.00000000</i>
   <i name="SCALEE">      1.00000000</i>
  </separator>
  <separator name="ionic md" >
   <i name="TEBEG">      0.00010000</i>
   <i name="TEEND">      0.00010000</i>
   <i type="int" name="NBLOCK">     1</i>
   <i type="int" name="KBLOCK">     1</i>
   <i type="int" name="NPACO">   256</i>
   <i name="APACO">     16.00000000</i>
  </separator>
  <separator name="symmetry" >
   <i type="int" name="ISYM">     2</i>
   <i name="SYMPREC">      0.00001000</i>
  </separator>
  <separator name="dos" >
   <i type="int" name="LORBIT">     0</i>
   <v name="RWIGS">     -1.00000000</v>
   <i type="int" name="NEDOS">   301</i>
   <i name="EMIN">     10.00000000</i>
   <i name="EMAX">    -10.00000000</i>
   <i name="EFERMI">      0.00000000</i>
  </separator>
  <separator name="writing" >
   <i type="int" name="NWRITE">     2</i>
   <i type="logical" name="LWAVE"> F  </i>
   <i type="logical" name="LDOWNSAMPLE"> F  </i>
   <i type="logical" name="LCHARG"> F  </i>
   <i type="logical" name="LPARD"> F  </i>
   <i type="logical" name="LVTOT"> F  </i>
   <i type="logical" name="LVHAR"> F  </i>
   <i type="logical" name="LELF"> F  </i>
   <i type="logical" name="LOPTICS"> F  </i>
   <v name="STM">      0.00000000      0.00000000      0.00000000      0.00000000      0.00000000      0.00000000      0.00000000</v>
  </separator>
  <separator name="performance" >
   <i type="int" name="NPAR">     2</i>
   <i type="int" name="NSIM">     4</i>
   <i type="int" name="NBLK">    -1</i>
   <i type="logical" name="LPLANE"> T  </i>
   <i type="logical" name="LSCALAPACK"> T  </i>
   <i type="logical" name="LSCAAWARE"> F  </i>
   <i type="logical" name="LSCALU"> F  </i>
   <i type="logical" name="LASYNC"> F  </i>
   <i type="logical" name="LORBITALREAL"> F  </i>
  </separator>
  <separator name="miscellaneous" >
   <i type="int" name="IDIOT">     3</i>
   <i type="int" name="ISPECIAL">     0</i>
   <i type="logical" name="LMUSIC"> F  </i>
   <v name="POMASS">     28.08500000</v>
   <v name="DARWINR">      0.00000000</v>
   <v name="DARWINV">      1.00000000</v>
   <i type="logical" name="LCORR"> T  </i>
  </separator>
  <i type="logical" name="GGA_COMPAT"> T  </i>
  <i type="logical" name="LBERRY"> F  </i>
  <i type="int" name="ICORELEVEL">     0</i>
  <i type="logical" name="LDAU"> F  </i>
  <i type="int" name="I_CONSTRAINED_M">     0</i>
  <separator name="electronic exchange-correlation" >
   <i type="string" name="GGA">--</i>
   <i type="int" name="VOSKOWN">     0</i>
   <i type="logical" name="LHFCALC"> F  </i>
   <i type="string" name="PRECFOCK"></i>
   <i type="logical" name="LSYMGRAD"> F  </i>
   <i type="logical" name="LHFONE"> F  </i>
   <i type="logical" name="LRHFCALC"> F  </i>
   <i type="logical" name="LTHOMAS"> F  </i>
   <i type="logical" name="LMODELHF"> F  </i>
   <i name="ENCUT4O">     -1.00000000</i>
   <i type="int" name="EXXOEP">     0</i>
   <i type="int" name="FOURORBIT">     0</i>
   <i name="AEXX">      0.00000000</i>
   <i name="HFALPHA">      0.00000000</i>
   <i name="MCALPHA">      0.00000000</i>
   <i name="ALDAX">      1.00000000</i>
   <i name="AGGAX">      1.00000000</i>
   <i name="ALDAC">      1.00000000</i>
   <i name="AGGAC">      1.00000000</i>
   <i type="int" name="NKREDX">     1</i>
   <i type="int" name="NKREDY">     1</i>
   <i type="int" name="NKREDZ">     1</i>
   <i type="logical" name="SHIFTRED"> F  </i>
   <i type="logical" name="ODDONLY"> F  </i>
   <i type="logical" name="EVENONLY"> F  </i>
   <i type="int" name="LMAXFOCK">     0</i>
   <i type="int" name="NMAXFOCKAE">     0</i>
   <i type="logical" name="LFOCKAEDFT"> F  </i>
   <i name="HFSCREEN">      0.00000000</i>
   <i name="HFSCREENC">      0.00000000</i>
   <i type="int" name="NBANDSGWLOW">     0</i>
  </separator>
  <separator name="vdW DFT" >
   <i type="logical" name="LUSE_VDW"> F  </i>
   <i name="Zab_VDW">     -0.84910000</i>
   <i name="PARAM1">      0.12340000</i>
   <i name="PARAM2">      1.00000000</i>
   <i name="PARAM3">      0.00000000</i>
  </separator>
  <separator name="model GW" >
   <i type="int" name="MODEL_GW">     0</i>
   <i name="MODEL_EPS0">     12.26607635</i>
   <i name="MODEL_ALPHA">      1.00000000</i>
  </separator>
  <separator name="linear response parameters" >
   <i type="logical" name="LEPSILON"> F  </i>
   <i type="logical" name="LRPA"> F  </i>
   <i type="logical" name="LNABLA"> F  </i>
   <i type="logical" name="LVEL"> F  </i>
   <i type="int" name="KINTER">     0</i>
   <i name="CSHIFT">      0.10000000</i>
   <i name="OMEGAMAX">     -1.00000000</i>
   <i name="DEG_THRESHOLD">      0.00200000</i>
   <i name="RTIME">     -0.10000000</i>
   <i name="WPLASMAI">      0.00000000</i>
   <v name="DFIELD">      0.00000000      0.00000000      0.00000000</v>
   <v name="WPLASMA">      0.00000000      0.00000000      0.00000000      0.00000000      0.00000000      0.00000000      0.00000000      0.00000000      0.00000000</v>
  </separator>
  <separator name="orbital magnetization" >
   <i type="logical" name="NUCIND"> F  </i>
   <v name="MAGPOS">      0.00000000      0.00000000      0.00000000</v>
   <i type="logical" name="LNICSALL"> T  </i>
   <i type="logical" name="ORBITALMAG"> F  </i>
   <i type="logical" name="LMAGBLOCH"> F  </i>
   <i type="logical" name="LCHIMAG"> F  </i>
   <i type="logical" name="LGAUGE"> T  </i>
   <i type="int" name="MAGATOM">     0</i>
   <v name="MAGDIPOL">      0.00000000      0.00000000      0.00000000</v>
   <v name="AVECCONST">      0.00000000      0.00000000      0.00000000</v>
  </separator>
  <separator name="response functions" >
   <i type="logical" name="LADDER"> F  </i>
   <i type="logical" name="LRPAFORCE"> F  </i>
   <i type="logical" name="LFXC"> F  </i>
   <i type="logical" name="LHARTREE"> T  </i>
   <i type="int" name="IBSE">     0</i>
   <v type="int" name="KPOINT">    -1     0     0     0</v>
   <i type="logical" name="LTCTE"> F  </i>
   <i type="logical" name="LTETE"> F  </i>
   <i type="logical" name="LTRIPLET"> F  </i>
   <i type="logical" name="LFXCEPS"> F  </i>
   <i type="logical" name="LFXHEG"> F  </i>
   <i type="int" name="NATURALO">     2</i>
   <i type="logical" name="L2ORDER"> F  </i>
   <i type="logical" name="LMP2LT"> F  </i>
   <i type="logical" name="LUSEW"> F  </i>
   <i name="ENCUTGW">     -2.00000000</i>
   <i name="ENCUTGWSOFT">     -2.00000000</i>
   <i name="ENCUTLF">     -1.00000000</i>
   <i type="int" name="LMAXMP2">    -1</i>
   <i name="SCISSOR">      0.00000000</i>
   <i type="int" name="NOMEGA">     0</i>
   <i type="int" name="NOMEGAR">     0</i>
   <i type="int" name="NBANDSGW">    -1</i>
   <i type="int" name="NBANDSO">    -1</i>
   <i type="int" name="NBANDSV">    -1</i>
   <i type="int" name="NELM">   120</i>
   <i type="int" name="NELMHF">     1</i>
   <i type="int" name="DIM">     3</i>
   <i type="int" name="ANTIRES">     0</i>
   <i name="OMEGAMAX">    -30.00000000</i>
   <i name="OMEGAMIN">    -30.00000000</i>
   <i name="OMEGATL">   -200.00000000</i>
   <i type="int" name="OMEGAGRID">   140</i>
   <i name="CSHIFT">     -0.10000000</i>
   <i type="logical" name="SELFENERGY"> F  </i>
   <i type="logical" name="LSPECTRAL"> F  </i>
   <i type="logical" name="LSPECTRALGW"> F  </i>
   <i type="logical" name="LSINGLES"> F  </i>
   <i type="logical" name="LFERMIGW"> F  </i>
   <i type="logical" name="ODDONLYGW"> F  </i>
   <i type="logical" name="EVENONLYGW"> F  </i>
   <i type="int" name="NKREDLFX">     1</i>
   <i type="int" name="NKREDLFY">     1</i>
   <i type="int" name="NKREDLFZ">     1</i>
   <i type="int" name="MAXMEM">  2800</i>
   <i type="int" name="TELESCOPE">     0</i>
   <i type="int" name="TAUPAR">     1</i>
   <i type="int" name="OMEGAPAR">    -1</i>
   <i name="LAMBDA">      1.00000000</i>
  </separator>
  <separator name="External order field" >
   <i name="OFIELD_KAPPA">      0.00000000</i>
   <v name="OFIELD_K">      0.00000000      0.00000000      0.00000000</v>
   <i name="OFIELD_Q6_NEAR">      0.00000000</i>
   <i name="OFIELD_Q6_FAR">      0.00000000</i>
   <i name="OFIELD_A">      0.00000000</i>
  </separator>
 </parameters>
 <atominfo>
  <atoms>     128 </atoms>
  <types>       1 </types>
  <array name="atoms" >
   <dimension dim="1">ion</dimension>
   <field type="string">element</field>
   <field type="int">atomtype</field>
   <set>
    <rc><c>Si</c><c>   1</c></rc>
    <rc><c>Si</c><c>   1</c></rc>
    <rc><c>Si</c><c>   1</c></rc>
    <rc><c>Si</c><c>   1</c></rc>
    <rc><c>Si</c><c>   1</c></rc>
    <rc><c>Si</c><c>   1</c></rc>
    <rc><c>Si</c><c>   1</c></rc>
    <rc><c>Si</c><c>   1</c></rc>
    <rc><c>Si</c><c>   1</c></rc>
    <rc><c>Si</c><c>   1</c></rc>
    <rc><c>Si</c><c>   1</c></rc>
    <rc><c>Si</c><c>   1</c></rc>
    <rc><c>Si</c><c>   1</c></rc>
    <rc><c>Si</c><c>   1</c></rc>
    <rc><c>Si</c><c>   1</c></rc>
    <rc><c>Si</c><c>   1</c></rc>
    <rc><c>Si</c><c>   1</c></rc>
    <rc><c>Si</c><c>   1</c></rc>
    <rc><c>Si</c><c>   1</c></rc>
    <rc><c>Si</c><c>   1</c></rc>
    <rc><c>Si</c><c>   1</c></rc>
    <rc><c>Si</c><c>   1</c></rc>
    <rc><c>Si</c><c>   1</c></rc>
    <rc><c>Si</c><c>   1</c></rc>
    <rc><c>Si</c><c>   1</c></rc>
    <rc><c>Si</c><c>   1</c></rc>
    <rc><c>Si</c><c>   1</c></rc>
    <rc><c>Si</c><c>   1</c></rc>
    <rc><c>Si</c><c>   1</c></rc>
    <rc><c>Si</c><c>   1</c></rc>
    <rc><c>Si</c><c>   1</c></rc>
    <rc><c>Si</c><c>   1</c></rc>
    <rc><c>Si</c><c>   1</c></rc>
    <rc><c>Si</c><c>   1</c></rc>
    <rc><c>Si</c><c>   1</c></rc>
    <rc><c>Si</c><c>   1</c></rc>
    <rc><c>Si</c><c>   1</c></rc>
    <rc><c>Si</c><c>   1</c></rc>
    <rc><c>Si</c><c>   1</c></rc>
    <rc><c>Si</c><c>   1</c></rc>
    <rc><c>Si</c><c>   1</c></rc>
    <rc><c>Si</c><c>   1</c></rc>
    <rc><c>Si</c><c>   1</c></rc>
    <rc><c>Si</c><c>   1</c></rc>
    <rc><c>Si</c><c>   1</c></rc>
    <rc><c>Si</c><c>   1</c></rc>
    <rc><c>Si</c><c>   1</c></rc>
    <rc><c>Si</c><c>   1</c></rc>
    <rc><c>Si</c><c>   1</c></rc>
    <rc><c>Si</c><c>   1</c></rc>
    <rc><c>Si</c><c>   1</c></rc>
    <rc><c>Si</c><c>   1</c></rc>
    <rc><c>Si</c><c>   1</c></rc>
    <rc><c>Si</c><c>   1</c></rc>
    <rc><c>Si</c><c>   1</c></rc>
    <rc><c>Si</c><c>   1</c></rc>
    <rc><c>Si</c><c>   1</c></rc>
    <rc><c>Si</c><c>   1</c></rc>
    <rc><c>Si</c><c>   1</c></rc>
    <rc><c>Si</c><c>   1</c></rc>
    <rc><c>Si</c><c>   1</c></rc>
    <rc><c>Si</c><c>   1</c></rc>
    <rc><c>Si</c><c>   1</c></rc>
    <rc><c>Si</c><c>   1</c></rc>
    <rc><c>Si</c><c>   1</c></rc>
    <rc><c>Si</c><c>   1</c></rc>
    <rc><c>Si</c><c>   1</c></rc>
    <rc><c>Si</c><c>   1</c></rc>
    <rc><c>Si</c><c>   1</c></rc>
    <rc><c>Si</c><c>   1</c></rc>
    <rc><c>Si</c><c>   1</c></rc>
    <rc><c>Si</c><c>   1</c></rc>
    <rc><c>Si</c><c>   1</c></rc>
    <rc><c>Si</c><c>   1</c></rc>
    <rc><c>Si</c><c>   1</c></rc>
    <rc><c>Si</c><c>   1</c></rc>
    <rc><c>Si</c><c>   1</c></rc>
    <rc><c>Si</c><c>   1</c></rc>
    <rc><c>Si</c><c>   1</c></rc>
    <rc><c>Si</c><c>   1</c></rc>
    <rc><c>Si</c><c>   1</c></rc>
    <rc><c>Si</c><c>   1</c></rc>
    <rc><c>Si</c><c>   1</c></rc>
    <rc><c>Si</c><c>   1</c></rc>
    <rc><c>Si</c><c>   1</c></rc>
    <rc><c>Si</c><c>   1</c></rc>
    <rc><c>Si</c><c>   1</c></rc>
    <rc><c>Si</c><c>   1</c></rc>
    <rc><c>Si</c><c>   1</c></rc>
    <rc><c>Si</c><c>   1</c></rc>
    <rc><c>Si</c><c>   1</c></rc>
    <rc><c>Si</c><c>   1</c></rc>
    <rc><c>Si</c><c>   1</c></rc>
    <rc><c>Si</c><c>   1</c></rc>
    <rc><c>Si</c><c>   1</c></rc>
    <rc><c>Si</c><c>   1</c></rc>
    <rc><c>Si</c><c>   1</c></rc>
    <rc><c>Si</c><c>   1</c></rc>
    <rc><c>Si</c><c>   1</c></rc>
    <rc><c>Si</c><c>   1</c></rc>
    <rc><c>Si</c><c>   1</c></rc>
    <rc><c>Si</c><c>   1</c></rc>
    <rc><c>Si</c><c>   1</c></rc>
    <rc><c>Si</c><c>   1</c></rc>
    <rc><c>Si</c><c>   1</c></rc>
    <rc><c>Si</c><c>   1</c></rc>
    <rc><c>Si</c><c>   1</c></rc>
    <rc><c>Si</c><c>   1</c></rc>
    <rc><c>Si</c><c>   1</c></rc>
    <rc><c>Si</c><c>   1</c></rc>
    <rc><c>Si</c><c>   1</c></rc>
    <rc><c>Si</c><c>   1</c></rc>
    <rc><c>Si</c><c>   1</c></rc>
    <rc><c>Si</c><c>   1</c></rc>
    <rc><c>Si</c><c>   1</c></rc>
    <rc><c>Si</c><c>   1</c></rc>
    <rc><c>Si</c><c>   1</c></rc>
    <rc><c>Si</c><c>   1</c></rc>
    <rc><c>Si</c><c>   1</c></rc>
    <rc><c>Si</c><c>   1</c></rc>
    <rc><c>Si</c><c>   1</c></rc>
    <rc><c>Si</c><c>   1</c></rc>
    <rc><c>Si</c><c>   1</c></rc>
    <rc><c>Si</c><c>   1</c></rc>
    <rc><c>Si</c><c>   1</c></rc>
    <rc><c>Si</c><c>   1</c></rc>
    <rc><c>Si</c><c>   1</c></rc>
    <rc><c>Si</c><c>   1</c></rc>
   </set>
  </array>
  <array name="atomtypes" >
   <dimension dim="1">type</dimension>
   <field type="int">atomspertype</field>
   <field type="string">element</field>
   <field>mass</field>
   <field>valence</field>
   <field type="string">pseudopotential</field>
   <set>
    <rc><c> 128</c><c>Si</c><c>     28.08500000</c><c>      4.00000000</c><c> PAW_PBE Si 05Jan2001                   </c></rc>
   </set>
  </array>
 </atominfo>
 <structure name="initialpos" >
  <crystal>
   <varray name="basis" >
    <v>       0.00000000      10.93733369      10.93733369 </v>
    <v>      10.93733369       0.00000000      10.93733369 </v>
    <v>      10.93733369      10.93733369       0.00000000 </v>
   </varray>
   <i name="volume">   2616.76295363 </i>
   <varray name="rec_basis" >
    <v>      -0.04571498       0.04571498       0.04571498 </v>
    <v>       0.04571498      -0.04571498       0.04571498 </v>
    <v>       0.04571498       0.04571498      -0.04571498 </v>
   </varray>
  </crystal>
  <varray name="positions" >
   <v>       0.99678213       0.00440009       0.99729415 </v>
   <v>       0.25399940       0.98559690       0.00256957 </v>
   <v>       0.50047257       0.00714902       0.00184273 </v>
   <v>       0.74649132       0.00885625       0.00931679 </v>
   <v>       0.00878058       0.24922248       0.00866522 </v>
   <v>       0.24274320       0.26419508       0.99421481 </v>
   <v>       0.50425674       0.25262218       0.99928670 </v>
   <v>       0.75610772       0.24044814       0.00291559 </v>
   <v>       0.99847330       0.51240952       0.01149658 </v>
   <v>       0.26266753       0.49326281       0.00015102 </v>
   <v>       0.50836424       0.50604937       0.98121773 </v>
   <v>       0.74957068       0.49741488       0.00657125 </v>
   <v>       0.00170248       0.75382543       0.99627067 </v>
   <v>       0.25514061       0.73512522       0.99807493 </v>
   <v>       0.51120981       0.76024028       0.98842500 </v>
   <v>       0.74298853       0.75202324       0.99891694 </v>
   <v>       0.99730950       0.99774455       0.26195519 </v>
   <v>       0.25284080       0.99374271       0.25287318 </v>
   <v>       0.49804441       0.99426020       0.24928182 </v>
   <v>       0.74370769       0.00241071       0.24644439 </v>
   <v>       0.99864014       0.25773917       0.24946590 </v>
   <v>       0.26423923       0.24849120       0.24778195 </v>
   <v>       0.50774514       0.24883299       0.24504199 </v>
   <v>       0.74263290       0.24680580       0.24110571 </v>
   <v>       0.97990836       0.49239959       0.26234825 </v>
   <v>       0.26375033       0.49554804       0.24418854 </v>
   <v>       0.50756510       0.50254881       0.24393704 </v>
   <v>       0.76851394       0.49564216       0.24146922 </v>
   <v>       0.99491510       0.76306627       0.24522084 </v>
   <v>       0.25099058       0.74776244       0.24323373 </v>
   <v>       0.50716210       0.73925718       0.25355792 </v>
   <v>       0.75852844       0.73870946       0.24171303 </v>
   <v>       0.99102107       0.99746257       0.50474725 </v>
   <v>       0.23882692       0.00071694       0.50018009 </v>
   <v>       0.51005094       0.99676414       0.50735165 </v>
   <v>       0.75451639       0.00314691       0.49475532 </v>
   <v>       0.01073653       0.25173143       0.49269674 </v>
   <v>       0.26010404       0.25058835       0.49608286 </v>
   <v>       0.49621248       0.25050433       0.51514331 </v>
   <v>       0.74739500       0.24977031       0.51163434 </v>
   <v>       0.00000406       0.49984438       0.49241659 </v>
   <v>       0.24557679       0.49836070       0.50098371 </v>
   <v>       0.48908679       0.50633651       0.50528241 </v>
   <v>       0.74394073       0.50216447       0.49670261 </v>
   <v>       0.99021160       0.76031114       0.50680384 </v>
   <v>       0.26089368       0.73323885       0.50666362 </v>
   <v>       0.50259512       0.74648901       0.50575970 </v>
   <v>       0.76411602       0.74631390       0.49757273 </v>
   <v>       0.99777326       0.99432253       0.75734854 </v>
   <v>       0.24792344       0.02453442       0.74173012 </v>
   <v>       0.50331434       0.00266545       0.73561525 </v>
   <v>       0.73999214       0.01286461       0.74807562 </v>
   <v>       0.99877907       0.25209077       0.75701596 </v>
   <v>       0.24352482       0.24990408       0.75495711 </v>
   <v>       0.50479174       0.25618213       0.74282843 </v>
   <v>       0.74475298       0.24328978       0.75467235 </v>
   <v>       0.99866151       0.50206009       0.75265281 </v>
   <v>       0.24838836       0.48875024       0.74175409 </v>
   <v>       0.50895502       0.50536065       0.74740008 </v>
   <v>       0.76638767       0.50294183       0.73318768 </v>
   <v>       0.98808897       0.74917170       0.75307782 </v>
   <v>       0.23860066       0.75342885       0.75059953 </v>
   <v>       0.49687653       0.75171510       0.76075059 </v>
   <v>       0.75149963       0.74978993       0.75016503 </v>
   <v>       0.05965670       0.06339033       0.07112988 </v>
   <v>       0.32384605       0.07137730       0.04819936 </v>
   <v>       0.56116825       0.06689180       0.06690676 </v>
   <v>       0.81459682       0.05286971       0.06943093 </v>
   <v>       0.06741866       0.31929671       0.06420907 </v>
   <v>       0.32216045       0.31032064       0.05117265 </v>
   <v>       0.55957004       0.30423889       0.07309930 </v>
   <v>       0.82406233       0.30933228       0.06186492 </v>
   <v>       0.07276999       0.55791037       0.06518854 </v>
   <v>       0.32280720       0.56395443       0.05813222 </v>
   <v>       0.55538448       0.56658591       0.06197232 </v>
   <v>       0.81201525       0.57791662       0.05223978 </v>
   <v>       0.06407361       0.80992221       0.05899071 </v>
   <v>       0.31066676       0.80623657       0.06591861 </v>
   <v>       0.56546840       0.81452281       0.05897637 </v>
   <v>       0.80143119       0.84149441       0.05384239 </v>
   <v>       0.06624157       0.07120947       0.30429080 </v>
   <v>       0.30910990       0.04887481       0.32355746 </v>
   <v>       0.56310107       0.07217443       0.29786257 </v>
   <v>       0.81042652       0.06338303       0.31657559 </v>
   <v>       0.06616690       0.31130429       0.31197301 </v>
   <v>       0.29904553       0.32308314       0.30823372 </v>
   <v>       0.57474391       0.30422203       0.33099572 </v>
   <v>       0.80932847       0.31513350       0.31420222 </v>
   <v>       0.06027716       0.56300525       0.31096143 </v>
   <v>       0.31673165       0.56265553       0.30294159 </v>
   <v>       0.58090196       0.55015264       0.31085329 </v>
   <v>       0.81188737       0.56446692       0.31149096 </v>
   <v>       0.06290669       0.81246023       0.31944325 </v>
   <v>       0.30134052       0.81189343       0.31636726 </v>
   <v>       0.55273734       0.81350388       0.31158155 </v>
   <v>       0.80246262       0.81469228       0.32718578 </v>
   <v>       0.05912311       0.08020630       0.55949724 </v>
   <v>       0.31166922       0.05078494       0.56892740 </v>
   <v>       0.57002452       0.05851112       0.56103543 </v>
   <v>       0.82287281       0.06732304       0.56398728 </v>
   <v>       0.06513831       0.29699935       0.57423933 </v>
   <v>       0.32450097       0.30569837       0.54920523 </v>
   <v>       0.56319687       0.30420271       0.56668497 </v>
   <v>       0.82664592       0.32037234       0.55583723 </v>
   <v>       0.05467486       0.56338433       0.57404322 </v>
   <v>       0.30778324       0.55975455       0.55719731 </v>
   <v>       0.56009709       0.55287882       0.56614688 </v>
   <v>       0.81329243       0.57346188       0.55491219 </v>
   <v>       0.05332913       0.81838255       0.56132371 </v>
   <v>       0.31971641       0.80574027       0.57582244 </v>
   <v>       0.57118779       0.81876786       0.55007014 </v>
   <v>       0.81571874       0.81214780       0.56006446 </v>
   <v>       0.04443068       0.06664428       0.81614265 </v>
   <v>       0.31066844       0.06858945       0.81358774 </v>
   <v>       0.56419079       0.05957384       0.80725141 </v>
   <v>       0.82453183       0.04788202       0.81032571 </v>
   <v>       0.06147725       0.31612471       0.82671383 </v>
   <v>       0.32430950       0.30546669       0.81875585 </v>
   <v>       0.56846701       0.31199014       0.79893800 </v>
   <v>       0.81718770       0.31164599       0.80527650 </v>
   <v>       0.06684874       0.55596320       0.82534024 </v>
   <v>       0.30451560       0.57070665       0.81937761 </v>
   <v>       0.56073172       0.57439752       0.80800964 </v>
   <v>       0.81957546       0.55477328       0.81350967 </v>
   <v>       0.06044457       0.81735984       0.80970519 </v>
   <v>       0.31696796       0.81537919       0.80517366 </v>
   <v>       0.55899672       0.82178894       0.81409172 </v>
   <v>       0.79920504       0.81398760       0.81248278 </v>
  </varray>
 </structure>
 <calculation>
  <scstep>
   <time name="dav">   69.82   69.87</time>
   <time name="total">   70.82   70.87</time>
   <energy>
    <i name="alphaZ">    210.77028614 </i>
    <i name="ewald"> -14463.52994523 </i>
    <i name="hartreedc">   -759.77370218 </i>
    <i name="XCdc">  -1195.30719650 </i>
    <i name="pawpsdc">   4221.13331941 </i>
    <i name="pawaedc">  -1969.18571412 </i>
    <i name="eentropy">     -0.00268748 </i>
    <i name="bandstr">   2150.62130687 </i>
    <i name="atom">  13192.48085998 </i>
    <i name="e_fr_energy">   1387.20652689 </i>
    <i name="e_wo_entrp">   1387.20921437 </i>
    <i name="e_0_energy">   1387.20787063 </i>
   </energy>
  </scstep>
  <scstep>
   <time name="dav">   79.52   79.55</time>
   <time name="total">   79.52   79.55</time>
   <energy>
    <i name="e_fr_energy">   -531.96781808 </i>
    <i name="e_wo_entrp">   -531.96641986 </i>
    <i name="e_0_energy">   -531.96711897 </i>
   </energy>
  </scstep>
  <scstep>
   <time name="dav">   81.85   81.88</time>
   <time name="total">   81.85   81.88</time>
   <energy>
    <i name="e_fr_energy">   -682.55293728 </i>
    <i name="e_wo_entrp">   -682.55293728 </i>
    <i name="e_0_energy">   -682.55293728 </i>
   </energy>
  </scstep>
  <scstep>
   <time name="dav">   80.23   80.25</time>
   <time name="total">   80.23   80.26</time>
   <energy>
    <i name="e_fr_energy">   -686.83401491 </i>
    <i name="e_wo_entrp">   -686.83401491 </i>
    <i name="e_0_energy">   -686.83401491 </i>
   </energy>
  </scstep>
  <scstep>
   <time name="dav">   82.21   82.23</time>
   <time name="total">   85.40   85.41</time>
   <energy>
    <i name="e_fr_energy">   -686.98194617 </i>
    <i name="e_wo_entrp">   -686.98194617 </i>
    <i name="e_0_energy">   -686.98194617 </i>
   </energy>
  </scstep>
  <scstep>
   <time name="dav">   77.61   77.63</time>
   <time name="total">   81.78   81.80</time>
   <energy>
    <i name="e_fr_energy">   -678.21338026 </i>
    <i name="e_wo_entrp">   -678.21338026 </i>
    <i name="e_0_energy">   -678.21338026 </i>
   </energy>
  </scstep>
  <scstep>
   <time name="dav">   77.90   77.93</time>
   <time name="total">   82.12   82.15</time>
   <energy>
    <i name="e_fr_energy">   -674.66614247 </i>
    <i name="e_wo_entrp">   -674.66614247 </i>
    <i name="e_0_energy">   -674.66614247 </i>
   </energy>
  </scstep>
  <scstep>
   <time name="dav">   76.64   76.67</time>
   <time name="total">   80.87   80.90</time>
   <energy>
    <i name="e_fr_energy">   -674.71123143 </i>
    <i name="e_wo_entrp">   -674.71123143 </i>
    <i name="e_0_energy">   -674.71123143 </i>
   </energy>
  </scstep>
  <scstep>
   <time name="dav">   78.74   78.77</time>
   <time name="total">   82.96   82.99</time>
   <energy>
    <i name="e_fr_energy">   -674.73376466 </i>
    <i name="e_wo_entrp">   -674.73376466 </i>
    <i name="e_0_energy">   -674.73376466 </i>
   </energy>
  </scstep>
  <scstep>
   <time name="dav">   78.83   78.86</time>
   <time name="total">   83.05   83.09</time>
   <energy>
    <i name="e_fr_energy">   -674.73626789 </i>
    <i name="e_wo_entrp">   -674.73626789 </i>
    <i name="e_0_energy">   -674.73626789 </i>
   </energy>
  </scstep>
  <scstep>
   <time name="dav">   75.85   75.87</time>
   <time name="total">   80.07   80.09</time>
   <energy>
    <i name="e_fr_energy">   -674.73793550 </i>
    <i name="e_wo_entrp">   -674.73793550 </i>
    <i name="e_0_energy">   -674.73793550 </i>
   </energy>
  </scstep>
  <scstep>
   <time name="dav">   79.40   79.42</time>
   <time name="total">   83.61   83.65</time>
   <energy>
    <i name="e_fr_energy">   -674.73795548 </i>
    <i name="e_wo_entrp">   -674.73795548 </i>
    <i name="e_0_energy">   -674.73795548 </i>
   </energy>
  </scstep>
  <scstep>
   <time name="dav">   75.81   75.85</time>
   <time name="total">   80.05   80.09</time>
   <energy>
    <i name="e_fr_energy">   -674.73799823 </i>
    <i name="e_wo_entrp">   -674.73799823 </i>
    <i name="e_0_energy">   -674.73799823 </i>
   </energy>
  </scstep>
  <scstep>
   <time name="dav">   80.26   80.28</time>
   <time name="total">   84.47   84.49</time>
   <energy>
    <i name="e_fr_energy">   -674.73799967 </i>
    <i name="e_wo_entrp">   -674.73799967 </i>
    <i name="e_0_energy">   -674.73799967 </i>
   </energy>
  </scstep>
  <scstep>
   <time name="dav">   78.59   78.62</time>
   <time name="total">   82.81   82.85</time>
   <energy>
    <i name="e_fr_energy">   -674.73800480 </i>
    <i name="e_wo_entrp">   -674.73800480 </i>
    <i name="e_0_energy">   -674.73800480 </i>
   </energy>
  </scstep>
  <scstep>
   <time name="dav">   82.99   83.01</time>
   <time name="total">   87.19   87.22</time>
   <energy>
    <i name="e_fr_energy">   -674.73800454 </i>
    <i name="e_wo_entrp">   -674.73800454 </i>
    <i name="e_0_energy">   -674.73800454 </i>
   </energy>
  </scstep>
  <scstep>
   <time name="dav">   76.74   76.78</time>
   <time name="total">   80.94   80.99</time>
   <energy>
    <i name="e_fr_energy">   -674.73800420 </i>
    <i name="e_wo_entrp">   -674.73800420 </i>
    <i name="e_0_energy">   -674.73800420 </i>
   </energy>
  </scstep>
  <scstep>
   <time name="dav">   51.93   51.94</time>
   <time name="total">   56.13   56.15</time>
   <energy>
    <i name="e_fr_energy">   -674.73800435 </i>
    <i name="e_wo_entrp">   -674.73800435 </i>
    <i name="e_0_energy">   -674.73800435 </i>
   </energy>
  </scstep>
  <scstep>
   <time name="dav">   51.00   51.02</time>
   <time name="total">   52.00   52.02</time>
   <energy>
    <i name="alphaZ">    210.77028614 </i>
    <i name="ewald"> -14463.52994523 </i>
    <i name="hartreedc">  -1003.98564106 </i>
    <i name="XCdc">  -1156.05352552 </i>
    <i name="pawpsdc">   4734.44644029 </i>
    <i name="pawaedc">  -2496.26115236 </i>
    <i name="eentropy">     -0.00000000 </i>
    <i name="bandstr">    307.39467340 </i>
    <i name="atom">  13192.48085998 </i>
    <i name="e_fr_energy">   -674.73800435 </i>
    <i name="e_wo_entrp">   -674.73800435 </i>
    <i name="e_0_energy">   -674.73800435 </i>
   </energy>
  </scstep>
  <structure>
   <crystal>
    <varray name="basis" >
     <v>       0.00000000      10.93733369      10.93733369 </v>
     <v>      10.93733369       0.00000000      10.93733369 </v>
     <v>      10.93733369      10.93733369       0.00000000 </v>
    </varray>
    <i name="volume">   2616.76295363 </i>
    <varray name="rec_basis" >
     <v>      -0.04571498       0.04571498       0.04571498 </v>
     <v>       0.04571498      -0.04571498       0.04571498 </v>
     <v>       0.04571498       0.04571498      -0.04571498 </v>
    </varray>
   </crystal>
   <varray name="positions" >
    <v>       0.99678213       0.00440009       0.99729415 </v>
    <v>       0.25399940       0.98559690       0.00256957 </v>
    <v>       0.50047257       0.00714902       0.00184273 </v>
    <v>       0.74649132       0.00885625       0.00931679 </v>
    <v>       0.00878058       0.24922248       0.00866522 </v>
    <v>       0.24274320       0.26419508       0.99421481 </v>
    <v>       0.50425674       0.25262218       0.99928670 </v>
    <v>       0.75610772       0.24044814       0.00291559 </v>
    <v>       0.99847330       0.51240952       0.01149658 </v>
    <v>       0.26266753       0.49326281       0.00015102 </v>
    <v>       0.50836424       0.50604937       0.98121773 </v>
    <v>       0.74957068       0.49741488       0.00657125 </v>
    <v>       0.00170248       0.75382543       0.99627067 </v>
    <v>       0.25514061       0.73512522       0.99807493 </v>
    <v>       0.51120981       0.76024028       0.98842500 </v>
    <v>       0.74298853       0.75202324       0.99891694 </v>
    <v>       0.99730950       0.99774455       0.26195519 </v>
    <v>       0.25284080       0.99374271       0.25287318 </v>
    <v>       0.49804441       0.99426020       0.24928182 </v>
    <v>       0.74370769       0.00241071       0.24644439 </v>
    <v>       0.99864014       0.25773917       0.24946590 </v>
    <v>       0.26423923       0.24849120       0.24778195 </v>
    <v>       0.50774514       0.24883299       0.24504199 </v>
    <v>       0.74263290       0.24680580       0.24110571 </v>
    <v>       0.97990836       0.49239959       0.26234825 </v>
    <v>       0.26375033       0.49554804       0.24418854 </v>
    <v>       0.50756510       0.50254881       0.24393704 </v>
    <v>       0.76851394       0.49564216       0.24146922 </v>
    <v>       0.99491510       0.76306627       0.24522084 </v>
    <v>       0.25099058       0.74776244       0.24323373 </v>
    <v>       0.50716210       0.73925718       0.25355792 </v>
    <v>       0.75852844       0.73870946       0.24171303 </v>
    <v>       0.99102107       0.99746257       0.50474725 </v>
    <v>       0.23882692       0.00071694       0.50018009 </v>
    <v>       0.51005094       0.99676414       0.50735165 </v>
    <v>       0.75451639       0.00314691       0.49475532 </v>
    <v>       0.01073653       0.25173143       0.49269674 </v>
    <v>       0.26010404       0.25058835       0.49608286 </v>
    <v>       0.49621248       0.25050433       0.51514331 </v>
    <v>       0.74739500       0.24977031       0.51163434 </v>
    <v>       0.00000406       0.49984438       0.49241659 </v>
    <v>       0.24557679       0.49836070       0.50098371 </v>
    <v>       0.48908679       0.50633651       0.50528241 </v>
    <v>       0.74394073       0.50216447       0.49670261 </v>
    <v>       0.99021160       0.76031114       0.50680384 </v>
    <v>       0.26089368       0.73323885       0.50666362 </v>
    <v>       0.50259512       0.74648901       0.50575970 </v>
    <v>       0.76411602       0.74631390       0.49757273 </v>
    <v>       0.99777326       0.99432253       0.75734854 </v>
    <v>       0.24792344       0.02453442       0.74173012 </v>
    <v>       0.50331434       0.00266545       0.73561525 </v>
    <v>       0.73999214       0.01286461       0.74807562 </v>
    <v>       0.99877907       0.25209077       0.75701596 </v>
    <v>       0.24352482       0.24990408       0.75495711 </v>
    <v>       0.50479174       0.25618213       0.74282843 </v>
    <v>       0.74475298       0.24328978       0.75467235 </v>
    <v>       0.99866151       0.50206009       0.75265281 </v>
    <v>       0.24838836       0.48875024       0.74175409 </v>
    <v>       0.50895502       0.50536065       0.74740008 </v>
    <v>       0.76638767       0.50294183       0.73318768 </v>
    <v>       0.98808897       0.74917170       0.75307782 </v>
    <v>       0.23860066       0.75342885       0.75059953 </v>
    <v>       0.49687653       0.75171510       0.76075059 </v>
    <v>       0.75149963       0.74978993       0.75016503 </v>
    <v>       0.05965670       0.06339033       0.07112988 </v>
    <v>       0.32384605       0.07137730       0.04819936 </v>
    <v>       0.56116825       0.06689180       0.06690676 </v>
    <v>       0.81459682       0.05286971       0.06943093 </v>
    <v>       0.06741866       0.31929671       0.06420907 </v>
    <v>       0.32216045       0.31032064       0.05117265 </v>
    <v>       0.55957004       0.30423889       0.07309930 </v>
    <v>       0.82406233       0.30933228       0.06186492 </v>
    <v>       0.07276999       0.55791037       0.06518854 </v>
    <v>       0.32280720       0.56395443       0.05813222 </v>
    <v>       0.55538448       0.56658591       0.06197232 </v>
    <v>       0.81201525       0.57791662       0.05223978 </v>
    <v>       0.06407361       0.80992221       0.05899071 </v>
    <v>       0.31066676       0.80623657       0.06591861 </v>
    <v>       0.56546840       0.81452281       0.05897637 </v>
    <v>       0.80143119       0.84149441       0.05384239 </v>
    <v>       0.06624157       0.07120947       0.30429080 </v>
    <v>       0.30910990       0.04887481       0.32355746 </v>
    <v>       0.56310107       0.07217443       0.29786257 </v>
    <v>       0.81042652       0.06338303       0.31657559 </v>
    <v>       0.06616690       0.31130429       0.31197301 </v>
    <v>       0.29904553       0.32308314       0.30823372 </v>
    <v>       0.57474391       0.30422203       0.33099572 </v>
    <v>       0.80932847       0.31513350       0.31420222 </v>
    <v>       0.06027716       0.56300525       0.31096143 </v>
    <v>       0.31673165       0.56265553       0.30294159 </v>
    <v>       0.58090196       0.55015264       0.31085329 </v>
    <v>       0.81188737       0.56446692       0.31149096 </v>
    <v>       0.06290669       0.81246023       0.31944325 </v>
    <v>       0.30134052       0.81189343       0.31636726 </v>
    <v>       0.55273734       0.81350388       0.31158155 </v>
    <v>       0.80246262       0.81469228       0.32718578 </v>
    <v>       0.05912311       0.08020630       0.55949724 </v>
    <v>       0.31166922       0.05078494       0.56892740 </v>
    <v>       0.57002452       0.05851112       0.56103543 </v>
    <v>       0.82287281       0.06732304       0.56398728 </v>
    <v>       0.06513831       0.29699935       0.57423933 </v>
    <v>       0.32450097       0.30569837       0.54920523 </v>
    <v>       0.56319687       0.30420271       0.56668497 </v>
    <v>       0.82664592       0.32037234       0.55583723 </v>
    <v>       0.05467486       0.56338433       0.57404322 </v>
    <v>       0.30778324       0.55975455       0.55719731 </v>
    <v>       0.56009709       0.55287882       0.56614688 </v>
    <v>       0.81329243       0.57346188       0.55491219 </v>
    <v>       0.05332913       0.81838255       0.56132371 </v>
    <v>       0.31971641       0.80574027       0.57582244 </v>
    <v>       0.57118779       0.81876786       0.55007014 </v>
    <v>       0.81571874       0.81214780       0.56006446 </v>
    <v>       0.04443068       0.06664428       0.81614265 </v>
    <v>       0.31066844       0.06858945       0.81358774 </v>
    <v>       0.56419079       0.05957384       0.80725141 </v>
    <v>       0.82453183       0.04788202       0.81032571 </v>
    <v>       0.06147725       0.31612471       0.82671383 </v>
    <v>       0.32430950       0.30546669       0.81875585 </v>
    <v>       0.56846701       0.31199014       0.79893800 </v>
    <v>       0.81718770       0.31164599       0.80527650 </v>
    <v>       0.06684874       0.55596320       0.82534024 </v>
    <v>       0.30451560       0.57070665       0.81937761 </v>
    <v>       0.56073172       0.57439752       0.80800964 </v>
    <v>       0.81957546       0.55477328       0.81350967 </v>
    <v>       0.06044457       0.81735984       0.80970519 </v>
    <v>       0.31696796       0.81537919       0.80517366 </v>
    <v>       0.55899672       0.82178894       0.81409172 </v>
    <v>       0.79920504       0.81398760       0.81248278 </v>
   </varray>
  </structure>
  <varray name="forces" >
   <v>      -0.10756727       1.46441304      -0.04329615 </v>
   <v>       1.55295697      -0.71971889       1.22624105 </v>
   <v>      -1.75952502       0.42440003       0.66139081 </v>
   <v>      -0.30082414      -3.04696107       0.82671757 </v>
   <v>       0.05979681       0.05379389      -0.45883375 </v>
   <v>      -0.90541260       2.03578555      -0.08948311 </v>
   <v>      -1.24250891      -0.69174264       0.04074965 </v>
   <v>       0.45717243      -0.68201152       0.70654820 </v>
   <v>      -1.94113763      -1.03626207      -1.01049726 </v>
   <v>       0.88819079      -0.19180337      -0.12310304 </v>
   <v>       0.99783440       2.17568937      -1.85229158 </v>
   <v>      -0.26047233      -0.65129231       0.21817412 </v>
   <v>       0.16408106      -0.46214055      -0.94389490 </v>
   <v>       1.94608316      -1.66733700       1.88220989 </v>
   <v>       0.90870823       0.35943204      -2.78834546 </v>
   <v>       1.18838785      -0.18921920       2.43681737 </v>
   <v>      -0.37763816      -0.56200898       0.60363202 </v>
   <v>      -0.29482594      -1.33647139       0.71200712 </v>
   <v>       1.15789199       0.16184754       0.29426092 </v>
   <v>       0.77433283       1.86686371      -0.23329077 </v>
   <v>      -0.23674187       0.30671775      -0.66338156 </v>
   <v>      -1.67787383      -1.99067468      -2.09894320 </v>
   <v>       3.33071741       0.42780338      -0.89403077 </v>
   <v>       0.24829246       2.43659947       1.62718717 </v>
   <v>      -1.47008194       2.09732594       3.66853124 </v>
   <v>       1.01290674      -2.17276370      -0.16244312 </v>
   <v>       0.29394461       0.84621732      -1.10753337 </v>
   <v>       0.42198592      -1.00192477      -0.31159996 </v>
   <v>       0.01919167       0.73713719      -0.94370966 </v>
   <v>       1.29017474       0.69111684      -0.58955959 </v>
   <v>      -0.17761604      -1.69882760      -0.77676099 </v>
   <v>       2.89337155      -1.35302373       1.29991691 </v>
   <v>      -0.89777943       1.15566710       3.68398808 </v>
   <v>       0.23729329       2.22108453      -0.27124707 </v>
   <v>      -0.90102494      -3.05845454      -0.50578596 </v>
   <v>       0.95356926       1.32544448      -0.28672944 </v>
   <v>       1.17371674      -0.77590330       0.50404855 </v>
   <v>      -1.50699199      -1.32984531      -2.35465057 </v>
   <v>      -2.63301284       0.23070441      -0.42792524 </v>
   <v>      -0.52033192      -0.35270992       1.71742238 </v>
   <v>       0.59827118       1.59536065      -0.42510661 </v>
   <v>      -1.12883951      -0.82421113      -0.12664499 </v>
   <v>      -2.37522649       0.19816804      -0.27063452 </v>
   <v>       0.60402703       0.61622060       0.90485696 </v>
   <v>      -2.42501981       0.73017025      -0.18995235 </v>
   <v>       2.18258756      -1.98664355       1.18919121 </v>
   <v>      -0.85541774      -0.27723385       0.42027013 </v>
   <v>       2.16224939      -0.73943250      -0.85825656 </v>
   <v>      -1.11811655      -0.79316359       2.03564740 </v>
   <v>      -0.28179653       0.38114785      -3.12690964 </v>
   <v>       1.94244701       0.81025676      -0.84332754 </v>
   <v>      -1.71705105       1.56265116      -0.14985568 </v>
   <v>      -0.02219422       0.45561766      -0.15117069 </v>
   <v>      -0.28809701       0.43910271       1.78162595 </v>
   <v>      -0.70045684       0.72626171      -1.98353435 </v>
   <v>      -1.46957692       1.14272787       2.02670997 </v>
   <v>       0.69144303       1.62710640       0.12839942 </v>
   <v>       1.48265063       1.33084439       1.03530159 </v>
   <v>       0.18761519      -0.70551154      -1.68447192 </v>
   <v>       1.38781418       0.20539789      -1.81366064 </v>
   <v>      -0.03032558       0.55635425       0.69365178 </v>
   <v>       0.51650160       1.73471844       0.71821712 </v>
   <v>      -0.73449209      -1.29217883       1.57159517 </v>
   <v>      -1.14885857      -0.99320253      -1.28405364 </v>
   <v>      -0.91209393       0.17198380      -0.18681333 </v>
   <v>       1.01581950      -0.62234499      -2.36432286 </v>
   <v>      -0.23406528      -0.48218897       0.11332983 </v>
   <v>       0.60932734       0.32230390       1.81576484 </v>
   <v>       1.42108672      -1.13633164      -0.58698420 </v>
   <v>       1.03682973       0.77297195      -0.55794954 </v>
   <v>      -0.83335888      -1.14767179       3.09823223 </v>
   <v>      -0.16479307      -1.11769849      -0.44848549 </v>
   <v>       1.77247381       0.59993245       0.41415237 </v>
   <v>      -1.51426100       0.97356635      -1.44022688 </v>
   <v>      -0.83611055       0.00774162       1.36545186 </v>
   <v>      -0.96560837       1.62718096      -1.39519909 </v>
   <v>       0.63699598       0.28330769       0.91037863 </v>
   <v>      -1.94600254      -0.15354628       0.75977218 </v>
   <v>       1.82886611       0.15266543      -0.53153756 </v>
   <v>      -3.52956888       2.64593626      -2.77551595 </v>
   <v>       0.52784067       0.56399666      -0.97060163 </v>
   <v>      -0.09243224      -0.73359900       2.05538383 </v>
   <v>       0.21753486       1.11610227      -2.07440599 </v>
   <v>      -1.17386284      -1.01680895       0.10477035 </v>
   <v>      -0.79208172       0.30092686       0.80632754 </v>
   <v>      -0.28832983       3.31352091       0.83112668 </v>
   <v>       0.28765114      -3.14990656      -0.72226355 </v>
   <v>      -0.95930921       0.22870945      -0.97849808 </v>
   <v>      -0.56495295      -0.66251508       0.89406118 </v>
   <v>       1.00934887       1.47514747      -0.07592901 </v>
   <v>       0.96709456      -0.54245293      -0.17207273 </v>
   <v>       0.69037652      -0.71906569      -2.00005822 </v>
   <v>      -0.71970744      -0.50891724      -0.32726753 </v>
   <v>      -1.22318957       1.61283927       0.22799826 </v>
   <v>      -0.46589152       2.16029233       0.47294156 </v>
   <v>      -2.81577839      -2.03290011       1.37530591 </v>
   <v>      -1.49526788       0.94265496      -3.40256750 </v>
   <v>      -0.73010457      -0.93082741       2.11543568 </v>
   <v>       0.41606126      -0.40034262       1.69856434 </v>
   <v>       0.77439665      -2.18747276      -2.33076312 </v>
   <v>       0.51406349      -0.36996096       2.23104619 </v>
   <v>       3.50437316       0.12875191      -0.33797539 </v>
   <v>       1.60267121      -0.20771742       2.26391986 </v>
   <v>       0.27487704      -0.12961412      -2.03596878 </v>
   <v>      -1.25808136      -1.28981735       0.78197546 </v>
   <v>      -0.25203318       0.92672692      -0.72622363 </v>
   <v>       1.07779310      -0.07569771       1.18933132 </v>
   <v>      -2.24140561       0.19228817      -1.19757927 </v>
   <v>      -0.03720403       2.62599814       0.40940116 </v>
   <v>      -0.88911675      -2.26273337      -0.02005293 </v>
   <v>       0.12329079       1.97337309      -0.98739920 </v>
   <v>       1.71786349      -0.49769930      -0.35144047 </v>
   <v>       0.09841776       1.27539234       1.94947074 </v>
   <v>      -0.28332603       0.86363272      -0.02630937 </v>
   <v>       1.71120619      -0.71892505      -0.32319296 </v>
   <v>       2.76219496      -1.32248718      -1.09593991 </v>
   <v>      -0.90468574      -1.19435119      -0.28341484 </v>
   <v>      -0.73125509      -2.38703407      -0.19283453 </v>
   <v>       2.65233106       0.87063741       0.21310748 </v>
   <v>       0.86284450      -0.29352855      -0.86720135 </v>
   <v>      -0.11375065      -1.42605007      -0.04292975 </v>
   <v>      -2.34674252      -0.27614171      -0.02606933 </v>
   <v>      -2.25030814       0.71216165       1.46192004 </v>
   <v>       1.15285447      -0.71189368      -0.35521487 </v>
   <v>      -0.60887464      -0.27437050      -1.71588414 </v>
   <v>       1.31225210      -0.93120287      -0.63273877 </v>
   <v>      -1.77359393      -0.32789578       0.56519778 </v>
   <v>       1.14903936       0.85349240       1.66507036 </v>
  </varray>
  <varray name="stress" >
   <v>      17.04861275      -0.47112672      -0.29453305 </v>
   <v>      -0.47112670      16.18733810       0.02153531 </v>
   <v>      -0.29453305       0.02153533      14.15790951 </v>
  </varray>
  <energy>
   <i name="e_fr_energy">   -674.73800435 </i>
   <i name="e_wo_entrp">   -674.73800435 </i>
   <i name="e_0_energy">     -0.00000000 </i>
  </energy>
  <time name="totalsc"> 1613.25 1613.85</time>
  <eigenvalues>
   <array>
    <dimension dim="1">band</dimension>
    <dimension dim="2">kpoint</dimension>
    <dimension dim="3">spin</dimension>
    <field>eigene</field>
    <field>occ</field>
    <set>
     <set comment="spin 1">
      <set comment="kpoint 1">
       <r>   -6.3204    1.0000 </r>
       <r>   -5.7336    1.0000 </r>
       <r>   -5.6599    1.0000 </r>
       <r>   -5.6247    1.0000 </r>
       <r>   -5.5911    1.0000 </r>
       <r>   -5.5220    1.0000 </r>
       <r>   -5.5021    1.0000 </r>
       <r>   -5.4997    1.0000 </r>
       <r>   -5.3732    1.0000 </r>
       <r>   -5.3444    1.0000 </r>
       <r>   -5.3210    1.0000 </r>
       <r>   -5.2457    1.0000 </r>
       <r>   -5.1855    1.0000 </r>
       <r>   -5.1344    1.0000 </r>
       <r>   -5.0988    1.0000 </r>
       <r>   -4.5962    1.0000 </r>
       <r>   -4.5124    1.0000 </r>
       <r>   -4.4698    1.0000 </r>
       <r>   -4.4201    1.0000 </r>
       <r>   -4.3887    1.0000 </r>
       <r>   -4.3464    1.0000 </r>
       <r>   -4.3197    1.0000 </r>
       <r>   -4.3091    1.0000 </r>
       <r>   -4.2704    1.0000 </r>
       <r>   -4.2084    1.0000 </r>
       <r>   -4.1533    1.0000 </r>
       <r>   -4.1225    1.0000 </r>
       <r>   -4.0814    1.0000 </r>
       <r>   -4.0302    1.0000 </r>
       <r>   -4.0048    1.0000 </r>
       <r>   -3.9688    1.0000 </r>
       <r>   -3.8915    1.0000 </r>
       <r>   -3.8419    1.0000 </r>
       <r>   -3.8402    1.0000 </r>
       <r>   -3.8166    1.0000 </r>
       <r>   -3.7519    1.0000 </r>
       <r>   -3.7336    1.0000 </r>
       <r>   -3.6785    1.0000 </r>
       <r>   -3.6569    1.0000 </r>
       <r>   -3.6476    1.0000 </r>
       <r>   -3.6172    1.0000 </r>
       <r>   -3.5811    1.0000 </r>
       <r>   -3.5699    1.0000 </r>
       <r>   -3.5227    1.0000 </r>
       <r>   -3.5187    1.0000 </r>
       <r>   -3.5041    1.0000 </r>
       <r>   -3.4951    1.0000 </r>
       <r>   -3.4480    1.0000 </r>
       <r>   -3.4218    1.0000 </r>
       <r>   -3.3838    1.0000 </r>
       <r>   -3.3539    1.0000 </r>
       <r>   -3.3203    1.0000 </r>
       <r>   -3.2697    1.0000 </r>
       <r>   -3.2545    1.0000 </r>
       <r>   -3.2201    1.0000 </r>
       <r>   -2.4023    1.0000 </r>
       <r>   -2.3350    1.0000 </r>
       <r>   -2.3024    1.0000 </r>
       <r>   -2.2350    1.0000 </r>
       <r>   -2.2258    1.0000 </r>
       <r>   -2.1660    1.0000 </r>
       <r>   -2.1517    1.0000 </r>
       <r>   -2.1303    1.0000 </r>
       <r>   -2.0985    1.0000 </r>
       <r>   -2.0756    1.0000 </r>
       <r>   -2.0566    1.0000 </r>
       <r>   -1.9846    1.0000 </r>
       <r>   -1.9537    1.0000 </r>
       <r>   -1.9442    1.0000 </r>
       <r>   -1.9290    1.0000 </r>
       <r>   -1.8672    1.0000 </r>
       <r>   -1.8303    1.0000 </r>
       <r>   -1.7538    1.0000 </r>
       <r>   -1.3714    1.0000 </r>
       <r>   -1.3259    1.0000 </r>
       <r>   -1.3048    1.0000 </r>
       <r>   -1.1791    1.0000 </r>
       <r>   -1.0451    1.0000 </r>
       <r>   -1.0149    1.0000 </r>
       <r>   -0.9737    1.0000 </r>
       <r>   -0.9522    1.0000 </r>
       <r>   -0.9452    1.0000 </r>
       <r>   -0.8549    1.0000 </r>
       <r>   -0.8435    1.0000 </r>
       <r>   -0.8217    1.0000 </r>
       <r>   -0.7783    1.0000 </r>
       <r>   -0.7696    1.0000 </r>
       <r>   -0.7597    1.0000 </r>
       <r>   -0.7450    1.0000 </r>
       <r>   -0.7066    1.0000 </r>
       <r>   -0.6720    1.0000 </r>
       <r>   -0.6645    1.0000 </r>
       <r>   -0.6226    1.0000 </r>
       <r>   -0.6104    1.0000 </r>
       <r>   -0.5853    1.0000 </r>
       <r>   -0.5618    1.0000 </r>
       <r>   -0.5360    1.0000 </r>
       <r>   -0.5124    1.0000 </r>
       <r>   -0.4485    1.0000 </r>
       <r>   -0.4140    1.0000 </r>
       <r>   -0.2764    1.0000 </r>
       <r>   -0.0298    1.0000 </r>
       <r>   -0.0166    1.0000 </r>
       <r>    0.0217    1.0000 </r>
       <r>    0.1194    1.0000 </r>
       <r>    0.1470    1.0000 </r>
       <r>    0.1703    1.0000 </r>
       <r>    0.2203    1.0000 </r>
       <r>    0.2486    1.0000 </r>
       <r>    0.2850    1.0000 </r>
       <r>    0.2987    1.0000 </r>
       <r>    0.3445    1.0000 </r>
       <r>    0.4952    1.0000 </r>
       <r>    1.3911    1.0000 </r>
       <r>    1.4090    1.0000 </r>
       <r>    1.4212    1.0000 </r>
       <r>    1.4948    1.0000 </r>
       <r>    1.5217    1.0000 </r>
       <r>    1.5485    1.0000 </r>
       <r>    1.5938    1.0000 </r>
       <r>    1.5983    1.0000 </r>
       <r>    1.6165    1.0000 </r>
       <r>    1.6330    1.0000 </r>
       <r>    1.6368    1.0000 </r>
       <r>    1.6635    1.0000 </r>
       <r>    1.6819    1.0000 </r>
       <r>    1.7037    1.0000 </r>
       <r>    1.7152    1.0000 </r>
       <r>    1.7316    1.0000 </r>
       <r>    1.7549    1.0000 </r>
       <r>    1.7804    1.0000 </r>
       <r>    1.7884    1.0000 </r>
       <r>    1.8007    1.0000 </r>
       <r>    1.8125    1.0000 </r>
       <r>    1.8366    1.0000 </r>
       <r>    1.8525    1.0000 </r>
       <r>    1.8566    1.0000 </r>
       <r>    1.8715    1.0000 </r>
       <r>    1.8853    1.0000 </r>
       <r>    1.8934    1.0000 </r>
       <r>    1.9194    1.0000 </r>
       <r>    1.9427    1.0000 </r>
       <r>    1.9542    1.0000 </r>
       <r>    1.9698    1.0000 </r>
       <r>    1.9727    1.0000 </r>
       <r>    1.9892    1.0000 </r>
       <r>    2.0059    1.0000 </r>
       <r>    2.0269    1.0000 </r>
       <r>    2.0351    1.0000 </r>
       <r>    2.0505    1.0000 </r>
       <r>    2.0639    1.0000 </r>
       <r>    2.0728    1.0000 </r>
       <r>    2.0961    1.0000 </r>
       <r>    2.1091    1.0000 </r>
       <r>    2.1341    1.0000 </r>
       <r>    2.1420    1.0000 </r>
       <r>    2.1570    1.0000 </r>
       <r>    2.1683    1.0000 </r>
       <r>    2.1909    1.0000 </r>
       <r>    2.2030    1.0000 </r>
       <r>    2.2226    1.0000 </r>
       <r>    2.2233    1.0000 </r>
       <r>    2.2320    1.0000 </r>
       <r>    2.2648    1.0000 </r>
       <r>    2.2704    1.0000 </r>
       <r>    2.2851    1.0000 </r>
       <r>    2.2984    1.0000 </r>
       <r>    2.3325    1.0000 </r>
       <r>    2.3591    1.0000 </r>
       <r>    2.3668    1.0000 </r>
       <r>    2.3828    1.0000 </r>
       <r>    2.4367    1.0000 </r>
       <r>    2.4655    1.0000 </r>
       <r>    2.4802    1.0000 </r>
       <r>    2.5446    1.0000 </r>
       <r>    2.7782    1.0000 </r>
       <r>    2.8112    1.0000 </r>
       <r>    2.8275    1.0000 </r>
       <r>    2.8513    1.0000 </r>
       <r>    2.8610    1.0000 </r>
       <r>    2.9182    1.0000 </r>
       <r>    3.1872    1.0000 </r>
       <r>    3.2072    1.0000 </r>
       <r>    3.2637    1.0000 </r>
       <r>    3.2714    1.0000 </r>
       <r>    3.3086    1.0000 </r>
       <r>    3.3123    1.0000 </r>
       <r>    3.3302    1.0000 </r>
       <r>    3.3365    1.0000 </r>
       <r>    3.3589    1.0000 </r>
       <r>    3.3682    1.0000 </r>
       <r>    3.3796    1.0000 </r>
       <r>    3.3972    1.0000 </r>
       <r>    3.4266    1.0000 </r>
       <r>    3.4479    1.0000 </r>
       <r>    3.4724    1.0000 </r>
       <r>    3.4974    1.0000 </r>
       <r>    3.5138    1.0000 </r>
       <r>    3.5300    1.0000 </r>
       <r>    3.5330    1.0000 </r>
       <r>    3.5424    1.0000 </r>
       <r>    3.5675    1.0000 </r>
       <r>    3.5909    1.0000 </r>
       <r>    3.6087    1.0000 </r>
       <r>    3.6452    1.0000 </r>
       <r>    3.6938    1.0000 </r>
       <r>    3.7090    1.0000 </r>
       <r>    3.7379    1.0000 </r>
       <r>    3.7726    1.0000 </r>
       <r>    3.8054    1.0000 </r>
       <r>    3.8343    1.0000 </r>
       <r>    3.8524    1.0000 </r>
       <r>    3.8768    1.0000 </r>
       <r>    3.8959    1.0000 </r>
       <r>    3.9235    1.0000 </r>
       <r>    3.9500    1.0000 </r>
       <r>    4.0102    1.0000 </r>
       <r>    4.0885    1.0000 </r>
       <r>    4.1643    1.0000 </r>
       <r>    4.2023    1.0000 </r>
       <r>    4.2226    1.0000 </r>
       <r>    4.2602    1.0000 </r>
       <r>    4.2873    1.0000 </r>
       <r>    4.2904    1.0000 </r>
       <r>    4.3357    1.0000 </r>
       <r>    4.3548    1.0000 </r>
       <r>    4.3777    1.0000 </r>
       <r>    4.3958    1.0000 </r>
       <r>    4.4319    1.0000 </r>
       <r>    4.4540    1.0000 </r>
       <r>    4.5128    1.0000 </r>
       <r>    4.5275    1.0000 </r>
       <r>    4.5738    1.0000 </r>
       <r>    4.6132    1.0000 </r>
       <r>    4.6198    1.0000 </r>
       <r>    4.6368    1.0000 </r>
       <r>    4.6639    1.0000 </r>
       <r>    4.7863    1.0000 </r>
       <r>    4.8070    1.0000 </r>
       <r>    4.8547    1.0000 </r>
       <r>    4.8870    1.0000 </r>
       <r>    4.9135    1.0000 </r>
       <r>    4.9321    1.0000 </r>
       <r>    4.9605    1.0000 </r>
       <r>    4.9962    1.0000 </r>
       <r>    5.0141    1.0000 </r>
       <r>    5.0390    1.0000 </r>
       <r>    5.0815    1.0000 </r>
       <r>    5.1039    1.0000 </r>
       <r>    5.1447    1.0000 </r>
       <r>    5.1831    1.0000 </r>
       <r>    5.2830    1.0000 </r>
       <r>    5.3643    1.0000 </r>
       <r>    5.7216    1.0000 </r>
       <r>    5.7720    1.0000 </r>
       <r>    5.8369    1.0000 </r>
       <r>    6.0867    0.0000 </r>
       <r>    6.1484    0.0000 </r>
       <r>    6.2018    0.0000 </r>
       <r>    6.2354    0.0000 </r>
       <r>    6.2729    0.0000 </r>
       <r>    6.3340    0.0000 </r>
       <r>    6.5007    0.0000 </r>
       <r>    6.5187    0.0000 </r>
       <r>    6.5620    0.0000 </r>
       <r>    6.5787    0.0000 </r>
       <r>    6.6621    0.0000 </r>
       <r>    6.7078    0.0000 </r>
       <r>    6.7658    0.0000 </r>
       <r>    6.8097    0.0000 </r>
       <r>    6.8260    0.0000 </r>
       <r>    6.8546    0.0000 </r>
       <r>    6.8591    0.0000 </r>
       <r>    6.8859    0.0000 </r>
       <r>    6.9114    0.0000 </r>
       <r>    6.9187    0.0000 </r>
       <r>    6.9307    0.0000 </r>
       <r>    6.9628    0.0000 </r>
       <r>    6.9674    0.0000 </r>
       <r>    6.9921    0.0000 </r>
       <r>    7.0108    0.0000 </r>
       <r>    7.0356    0.0000 </r>
       <r>    7.0578    0.0000 </r>
       <r>    7.0638    0.0000 </r>
       <r>    7.0854    0.0000 </r>
       <r>    7.0959    0.0000 </r>
       <r>    7.1132    0.0000 </r>
       <r>    7.1284    0.0000 </r>
       <r>    7.1488    0.0000 </r>
       <r>    7.1652    0.0000 </r>
       <r>    7.2017    0.0000 </r>
       <r>    7.2135    0.0000 </r>
       <r>    7.2467    0.0000 </r>
       <r>    7.2694    0.0000 </r>
       <r>    7.3312    0.0000 </r>
       <r>    7.3391    0.0000 </r>
       <r>    7.4404    0.0000 </r>
       <r>    7.4528    0.0000 </r>
       <r>    7.4613    0.0000 </r>
       <r>    7.5028    0.0000 </r>
       <r>    7.5225    0.0000 </r>
       <r>    7.5551    0.0000 </r>
       <r>    7.5812    0.0000 </r>
       <r>    7.6074    0.0000 </r>
       <r>    7.7801    0.0000 </r>
       <r>    7.8397    0.0000 </r>
       <r>    7.8531    0.0000 </r>
       <r>    7.8725    0.0000 </r>
       <r>    7.8961    0.0000 </r>
       <r>    7.9636    0.0000 </r>
       <r>    7.9933    0.0000 </r>
       <r>    8.0154    0.0000 </r>
       <r>    8.0279    0.0000 </r>
       <r>    8.0499    0.0000 </r>
       <r>    8.0842    0.0000 </r>
       <r>    8.1141    0.0000 </r>
       <r>    8.1352    0.0000 </r>
       <r>    8.2058    0.0000 </r>
       <r>    8.2530    0.0000 </r>
       <r>    8.4794    0.0000 </r>
       <r>    8.4973    0.0000 </r>
       <r>    8.5192    0.0000 </r>
      </set>
      <set comment="kpoint 2">
       <r>   -6.1765    1.0000 </r>
       <r>   -6.0773    1.0000 </r>
       <r>   -5.7206    1.0000 </r>
       <r>   -5.6846    1.0000 </r>
       <r>   -5.6449    1.0000 </r>
       <r>   -5.5801    1.0000 </r>
       <r>   -5.5284    1.0000 </r>
       <r>   -5.4935    1.0000 </r>
       <r>   -5.2064    1.0000 </r>
       <r>   -5.1833    1.0000 </r>
       <r>   -5.1389    1.0000 </r>
       <r>   -5.0517    1.0000 </r>
       <r>   -5.0285    1.0000 </r>
       <r>   -4.9992    1.0000 </r>
       <r>   -4.7261    1.0000 </r>
       <r>   -4.7100    1.0000 </r>
       <r>   -4.6694    1.0000 </r>
       <r>   -4.6236    1.0000 </r>
       <r>   -4.6168    1.0000 </r>
       <r>   -4.5407    1.0000 </r>
       <r>   -4.4784    1.0000 </r>
       <r>   -4.4263    1.0000 </r>
       <r>   -4.3718    1.0000 </r>
[...]
       <r>    -3.1447    31.8971    99.2245 </r>
       <r>    -3.0903    48.5895   101.8683 </r>
       <r>    -3.0359    47.3969   104.4473 </r>
       <r>    -2.9815    38.5383   106.5443 </r>
       <r>    -2.9271    40.9901   108.7746 </r>
       <r>    -2.8727    33.2047   110.5814 </r>
       <r>    -2.8182    28.1641   112.1138 </r>
       <r>    -2.7638    36.5124   114.1005 </r>
       <r>    -2.7094    26.0336   115.5171 </r>
       <r>    -2.6550    47.4508   118.0990 </r>
       <r>    -2.6006    39.4405   120.2450 </r>
       <r>    -2.5462    23.8680   121.5437 </r>
       <r>    -2.4918    18.0781   122.5274 </r>
       <r>    -2.4374     4.0909   122.7500 </r>
       <r>    -2.3830     4.5806   122.9992 </r>
       <r>    -2.3285     3.7812   123.2050 </r>
       <r>    -2.2741     8.8828   123.6883 </r>
       <r>    -2.2197    13.5965   124.4281 </r>
       <r>    -2.1653    26.6920   125.8805 </r>
       <r>    -2.1109    35.5924   127.8171 </r>
       <r>    -2.0565    34.2345   129.6799 </r>
       <r>    -2.0021    15.1247   130.5029 </r>
       <r>    -1.9477    23.5447   131.7840 </r>
       <r>    -1.8932    13.1593   132.5000 </r>
       <r>    -1.8388     5.1166   132.7784 </r>
       <r>    -1.7844     4.0720   133.0000 </r>
       <r>    -1.7300     7.3867   133.4019 </r>
       <r>    -1.6756    21.9574   134.5967 </r>
       <r>    -1.6212    21.1166   135.7457 </r>
       <r>    -1.5668    33.7531   137.5822 </r>
       <r>    -1.5124    39.3145   139.7214 </r>
       <r>    -1.4580    25.4711   141.1074 </r>
       <r>    -1.4035    29.7102   142.7239 </r>
       <r>    -1.3491    58.1243   145.8866 </r>
       <r>    -1.2947    46.0622   148.3930 </r>
       <r>    -1.2403    65.7717   151.9717 </r>
       <r>    -1.1859    44.8259   154.4108 </r>
       <r>    -1.1315    62.8443   157.8303 </r>
       <r>    -1.0771    60.2717   161.1098 </r>
       <r>    -1.0227    54.4309   164.0715 </r>
       <r>    -0.9682    62.9399   167.4963 </r>
       <r>    -0.9138    62.2519   170.8835 </r>
       <r>    -0.8594    46.1098   173.3925 </r>
       <r>    -0.8050    78.5813   177.6682 </r>
       <r>    -0.7506    59.8025   180.9222 </r>
       <r>    -0.6962    47.7305   183.5193 </r>
       <r>    -0.6418    48.7923   186.1742 </r>
       <r>    -0.5874    39.6062   188.3293 </r>
       <r>    -0.5329    19.8296   189.4082 </r>
       <r>    -0.4785    21.5173   190.5790 </r>
       <r>    -0.4241    25.6195   191.9730 </r>
       <r>    -0.3697    37.9406   194.0375 </r>
       <r>    -0.3153    38.6343   196.1396 </r>
       <r>    -0.2609    49.8165   198.8503 </r>
       <r>    -0.2065    54.1432   201.7963 </r>
       <r>    -0.1521    39.4761   203.9443 </r>
       <r>    -0.0977    50.1410   206.6726 </r>
       <r>    -0.0432    42.2047   208.9690 </r>
       <r>     0.0112    43.0035   211.3089 </r>
       <r>     0.0656    28.1259   212.8393 </r>
       <r>     0.1200     9.9745   213.3821 </r>
       <r>     0.1744    11.1314   213.9878 </r>
       <r>     0.2288    11.4432   214.6104 </r>
       <r>     0.2832    15.3068   215.4433 </r>
       <r>     0.3376    27.8081   216.9564 </r>
       <r>     0.3921    23.0958   218.2131 </r>
       <r>     0.4465    30.9674   219.8981 </r>
       <r>     0.5009    24.7366   221.2441 </r>
       <r>     0.5553    22.0534   222.4440 </r>
       <r>     0.6097    27.2200   223.9251 </r>
       <r>     0.6641    20.2766   225.0284 </r>
       <r>     0.7185    20.5322   226.1456 </r>
       <r>     0.7729     6.6644   226.5082 </r>
       <r>     0.8273    18.3755   227.5081 </r>
       <r>     0.8818     4.4678   227.7512 </r>
       <r>     0.9362    17.0509   228.6790 </r>
       <r>     0.9906    32.4937   230.4470 </r>
       <r>     1.0450    28.3323   231.9886 </r>
       <r>     1.0994    34.2986   233.8549 </r>
       <r>     1.1538    26.3261   235.2874 </r>
       <r>     1.2082    26.6768   236.7389 </r>
       <r>     1.2626    22.5971   237.9685 </r>
       <r>     1.3171    31.2335   239.6680 </r>
       <r>     1.3715    24.3361   240.9922 </r>
       <r>     1.4259    53.7668   243.9178 </r>
       <r>     1.4803    64.1607   247.4089 </r>
       <r>     1.5347    82.3746   251.8910 </r>
       <r>     1.5891    86.4511   256.5950 </r>
       <r>     1.6435    88.6804   261.4203 </r>
       <r>     1.6979    70.3623   265.2489 </r>
       <r>     1.7524    42.9389   267.5853 </r>
       <r>     1.8068    47.7277   270.1823 </r>
       <r>     1.8612    36.7597   272.1825 </r>
       <r>     1.9156    25.5605   273.5733 </r>
       <r>     1.9700    17.2337   274.5110 </r>
       <r>     2.0244    52.1989   277.3512 </r>
       <r>     2.0788    65.6263   280.9221 </r>
       <r>     2.1332    85.0451   285.5496 </r>
       <r>     2.1876   114.2292   291.7650 </r>
       <r>     2.2421   115.8324   298.0677 </r>
       <r>     2.2965   114.0986   304.2761 </r>
       <r>     2.3509   101.0720   309.7756 </r>
       <r>     2.4053   112.1499   315.8780 </r>
       <r>     2.4597    58.8412   319.0796 </r>
       <r>     2.5141    61.2641   322.4132 </r>
       <r>     2.5685    27.4121   323.9047 </r>
       <r>     2.6229    53.3420   326.8072 </r>
       <r>     2.6774    66.6808   330.4354 </r>
       <r>     2.7318    85.3643   335.0803 </r>
       <r>     2.7862    97.9482   340.4098 </r>
       <r>     2.8406    79.5348   344.7375 </r>
       <r>     2.8950    89.8021   349.6238 </r>
       <r>     2.9494   103.7511   355.2691 </r>
       <r>     3.0038    89.9364   360.1628 </r>
       <r>     3.0582    77.9901   364.4064 </r>
       <r>     3.1127    81.6541   368.8494 </r>
       <r>     3.1671    78.6276   373.1277 </r>
       <r>     3.2215    79.1579   377.4348 </r>
       <r>     3.2759    81.5681   381.8731 </r>
       <r>     3.3303   103.4699   387.5031 </r>
       <r>     3.3847    92.7970   392.5524 </r>
       <r>     3.4391   100.0510   397.9964 </r>
       <r>     3.4935    77.6364   402.2208 </r>
       <r>     3.5479    87.1957   406.9653 </r>
       <r>     3.6024    75.3121   411.0631 </r>
       <r>     3.6568    87.6704   415.8335 </r>
       <r>     3.7112    59.8615   419.0907 </r>
       <r>     3.7656    85.6850   423.7530 </r>
       <r>     3.8200    77.6882   427.9802 </r>
       <r>     3.8744    88.1306   432.7756 </r>
       <r>     3.9288    84.2595   437.3603 </r>
       <r>     3.9832    62.2831   440.7493 </r>
       <r>     4.0377    56.4908   443.8231 </r>
       <r>     4.0921    68.9247   447.5734 </r>
       <r>     4.1465    57.5077   450.7025 </r>
       <r>     4.2009    77.6808   454.9293 </r>
       <r>     4.2553    68.9667   458.6819 </r>
       <r>     4.3097    70.1761   462.5004 </r>
       <r>     4.3641    71.2973   466.3798 </r>
       <r>     4.4185    72.0712   470.3014 </r>
       <r>     4.4729    70.1458   474.1182 </r>
       <r>     4.5274    58.9962   477.3283 </r>
       <r>     4.5818    62.2393   480.7149 </r>
       <r>     4.6362    62.5308   484.1173 </r>
       <r>     4.6906    58.2261   487.2855 </r>
       <r>     4.7450    36.8468   489.2905 </r>
       <r>     4.7994    36.3578   491.2688 </r>
       <r>     4.8538    26.4498   492.7079 </r>
       <r>     4.9082    32.9450   494.5006 </r>
       <r>     4.9627    39.6824   496.6598 </r>
       <r>     5.0171    38.1645   498.7364 </r>
       <r>     5.0715    24.0093   500.0428 </r>
       <r>     5.1259    33.7347   501.8783 </r>
       <r>     5.1803    22.0438   503.0778 </r>
       <r>     5.2347     6.6497   503.4396 </r>
       <r>     5.2891     7.8864   503.8687 </r>
       <r>     5.3435     5.5848   504.1726 </r>
       <r>     5.3980    17.9046   505.1469 </r>
       <r>     5.4524    33.0941   506.9476 </r>
       <r>     5.5068    30.2437   508.5932 </r>
       <r>     5.5612    14.8236   509.3998 </r>
       <r>     5.6156    16.3407   510.2889 </r>
       <r>     5.6700    17.6477   511.2492 </r>
       <r>     5.7244     3.0151   511.4132 </r>
       <r>     5.7788     5.4173   511.7080 </r>
       <r>     5.8332     2.1593   511.8255 </r>
       <r>     5.8877     3.2070   512.0000 </r>
       <r>     5.9421     0.0000   512.0000 </r>
       <r>     5.9965     0.0000   512.0000 </r>
       <r>     6.0509     0.0000   512.0000 </r>
       <r>     6.1053     8.7861   512.4781 </r>
       <r>     6.1597    15.1631   513.3031 </r>
       <r>     6.2141    17.2370   514.2410 </r>
       <r>     6.2685    14.6820   515.0399 </r>
       <r>     6.3230    26.3962   516.4762 </r>
       <r>     6.3774    20.9065   517.6137 </r>
       <r>     6.4318    25.4875   519.0005 </r>
       <r>     6.4862    11.5929   519.6314 </r>
       <r>     6.5406    27.0683   521.1042 </r>
       <r>     6.5950    16.4150   521.9974 </r>
       <r>     6.6494    21.0894   523.1449 </r>
       <r>     6.7038    35.8945   525.0980 </r>
       <r>     6.7582    29.4267   526.6992 </r>
       <r>     6.8127    33.9343   528.5456 </r>
       <r>     6.8671    23.9932   529.8511 </r>
       <r>     6.9215    36.7632   531.8515 </r>
       <r>     6.9759    54.0213   534.7909 </r>
       <r>     7.0303    35.7953   536.7386 </r>
       <r>     7.0847    30.1038   538.3766 </r>
       <r>     7.1391    43.8925   540.7649 </r>
       <r>     7.1935    41.4041   543.0178 </r>
       <r>     7.2480    54.8938   546.0046 </r>
       <r>     7.3024    77.9107   550.2439 </r>
       <r>     7.3568    71.2252   554.1194 </r>
       <r>     7.4112    76.9410   558.3060 </r>
       <r>     7.4656    82.7029   562.8060 </r>
       <r>     7.5200    74.8318   566.8777 </r>
       <r>     7.5744    86.1205   571.5637 </r>
       <r>     7.6288    88.3581   576.3715 </r>
       <r>     7.6833    87.8970   581.1541 </r>
       <r>     7.7377    96.0200   586.3788 </r>
       <r>     7.7921    90.6172   591.3095 </r>
       <r>     7.8465    88.4108   596.1201 </r>
       <r>     7.9009    93.8577   601.2270 </r>
       <r>     7.9553    69.1272   604.9884 </r>
       <r>     8.0097    95.5175   610.1857 </r>
       <r>     8.0641    90.4726   615.1085 </r>
       <r>     8.1185    82.4350   619.5940 </r>
       <r>     8.1730    77.8174   623.8282 </r>
       <r>     8.2274    75.8462   627.9551 </r>
       <r>     8.2818    85.3427   632.5988 </r>
       <r>     8.3362    90.5157   637.5240 </r>
       <r>     8.3906    67.0220   641.1708 </r>
       <r>     8.4450    38.0538   643.2415 </r>
       <r>     8.4994     7.5995   643.6550 </r>
       <r>     8.5538     6.3408   644.0000 </r>
       <r>     8.6083     0.0000   644.0000 </r>
       <r>     8.6627     0.0000   644.0000 </r>
       <r>     8.7171     0.0000   644.0000 </r>
       <r>     8.7715     0.0000   644.0000 </r>
       <r>     8.8259     0.0000   644.0000 </r>
       <r>     8.8803     0.0000   644.0000 </r>
       <r>     8.9347     0.0000   644.0000 </r>
       <r>     8.9891     0.0000   644.0000 </r>
       <r>     9.0436     0.0000   644.0000 </r>
       <r>     9.0980     0.0000   644.0000 </r>
       <r>     9.1524     0.0000   644.0000 </r>
       <r>     9.2068     0.0000   644.0000 </r>
       <r>     9.2612     0.0000   644.0000 </r>
      </set>
     </set>
    </array>
   </total>
  </dos>
 </calculation>
 <structure name="finalpos" >
  <crystal>
   <varray name="basis" >
    <v>       0.00000000      10.93733369      10.93733369 </v>
    <v>      10.93733369       0.00000000      10.93733369 </v>
    <v>      10.93733369      10.93733369       0.00000000 </v>
   </varray>
   <i name="volume">   2616.76295363 </i>
   <varray name="rec_basis" >
    <v>      -0.04571498       0.04571498       0.04571498 </v>
    <v>       0.04571498      -0.04571498       0.04571498 </v>
    <v>       0.04571498       0.04571498      -0.04571498 </v>
   </varray>
  </crystal>
  <varray name="positions" >
   <v>       0.99678213       0.00440009       0.99729415 </v>
   <v>       0.25399940       0.98559690       0.00256957 </v>
   <v>       0.50047257       0.00714902       0.00184273 </v>
   <v>       0.74649132       0.00885625       0.00931679 </v>
   <v>       0.00878058       0.24922248       0.00866522 </v>
   <v>       0.24274320       0.26419508       0.99421481 </v>
   <v>       0.50425674       0.25262218       0.99928670 </v>
   <v>       0.75610772       0.24044814       0.00291559 </v>
   <v>       0.99847330       0.51240952       0.01149658 </v>
   <v>       0.26266753       0.49326281       0.00015102 </v>
   <v>       0.50836424       0.50604937       0.98121773 </v>
   <v>       0.74957068       0.49741488       0.00657125 </v>
   <v>       0.00170248       0.75382543       0.99627067 </v>
   <v>       0.25514061       0.73512522       0.99807493 </v>
   <v>       0.51120981       0.76024028       0.98842500 </v>
   <v>       0.74298853       0.75202324       0.99891694 </v>
   <v>       0.99730950       0.99774455       0.26195519 </v>
   <v>       0.25284080       0.99374271       0.25287318 </v>
   <v>       0.49804441       0.99426020       0.24928182 </v>
   <v>       0.74370769       0.00241071       0.24644439 </v>
   <v>       0.99864014       0.25773917       0.24946590 </v>
   <v>       0.26423923       0.24849120       0.24778195 </v>
   <v>       0.50774514       0.24883299       0.24504199 </v>
   <v>       0.74263290       0.24680580       0.24110571 </v>
   <v>       0.97990836       0.49239959       0.26234825 </v>
   <v>       0.26375033       0.49554804       0.24418854 </v>
   <v>       0.50756510       0.50254881       0.24393704 </v>
   <v>       0.76851394       0.49564216       0.24146922 </v>
   <v>       0.99491510       0.76306627       0.24522084 </v>
   <v>       0.25099058       0.74776244       0.24323373 </v>
   <v>       0.50716210       0.73925718       0.25355792 </v>
   <v>       0.75852844       0.73870946       0.24171303 </v>
   <v>       0.99102107       0.99746257       0.50474725 </v>
   <v>       0.23882692       0.00071694       0.50018009 </v>
   <v>       0.51005094       0.99676414       0.50735165 </v>
   <v>       0.75451639       0.00314691       0.49475532 </v>
   <v>       0.01073653       0.25173143       0.49269674 </v>
   <v>       0.26010404       0.25058835       0.49608286 </v>
   <v>       0.49621248       0.25050433       0.51514331 </v>
   <v>       0.74739500       0.24977031       0.51163434 </v>
   <v>       0.00000406       0.49984438       0.49241659 </v>
   <v>       0.24557679       0.49836070       0.50098371 </v>
   <v>       0.48908679       0.50633651       0.50528241 </v>
   <v>       0.74394073       0.50216447       0.49670261 </v>
   <v>       0.99021160       0.76031114       0.50680384 </v>
   <v>       0.26089368       0.73323885       0.50666362 </v>
   <v>       0.50259512       0.74648901       0.50575970 </v>
   <v>       0.76411602       0.74631390       0.49757273 </v>
   <v>       0.99777326       0.99432253       0.75734854 </v>
   <v>       0.24792344       0.02453442       0.74173012 </v>
   <v>       0.50331434       0.00266545       0.73561525 </v>
   <v>       0.73999214       0.01286461       0.74807562 </v>
   <v>       0.99877907       0.25209077       0.75701596 </v>
   <v>       0.24352482       0.24990408       0.75495711 </v>
   <v>       0.50479174       0.25618213       0.74282843 </v>
   <v>       0.74475298       0.24328978       0.75467235 </v>
   <v>       0.99866151       0.50206009       0.75265281 </v>
   <v>       0.24838836       0.48875024       0.74175409 </v>
   <v>       0.50895502       0.50536065       0.74740008 </v>
   <v>       0.76638767       0.50294183       0.73318768 </v>
   <v>       0.98808897       0.74917170       0.75307782 </v>
   <v>       0.23860066       0.75342885       0.75059953 </v>
   <v>       0.49687653       0.75171510       0.76075059 </v>
   <v>       0.75149963       0.74978993       0.75016503 </v>
   <v>       0.05965670       0.06339033       0.07112988 </v>
   <v>       0.32384605       0.07137730       0.04819936 </v>
   <v>       0.56116825       0.06689180       0.06690676 </v>
   <v>       0.81459682       0.05286971       0.06943093 </v>
   <v>       0.06741866       0.31929671       0.06420907 </v>
   <v>       0.32216045       0.31032064       0.05117265 </v>
   <v>       0.55957004       0.30423889       0.07309930 </v>
   <v>       0.82406233       0.30933228       0.06186492 </v>
   <v>       0.07276999       0.55791037       0.06518854 </v>
   <v>       0.32280720       0.56395443       0.05813222 </v>
   <v>       0.55538448       0.56658591       0.06197232 </v>
   <v>       0.81201525       0.57791662       0.05223978 </v>
   <v>       0.06407361       0.80992221       0.05899071 </v>
   <v>       0.31066676       0.80623657       0.06591861 </v>
   <v>       0.56546840       0.81452281       0.05897637 </v>
   <v>       0.80143119       0.84149441       0.05384239 </v>
   <v>       0.06624157       0.07120947       0.30429080 </v>
   <v>       0.30910990       0.04887481       0.32355746 </v>
   <v>       0.56310107       0.07217443       0.29786257 </v>
   <v>       0.81042652       0.06338303       0.31657559 </v>
   <v>       0.06616690       0.31130429       0.31197301 </v>
   <v>       0.29904553       0.32308314       0.30823372 </v>
   <v>       0.57474391       0.30422203       0.33099572 </v>
   <v>       0.80932847       0.31513350       0.31420222 </v>
   <v>       0.06027716       0.56300525       0.31096143 </v>
   <v>       0.31673165       0.56265553       0.30294159 </v>
   <v>       0.58090196       0.55015264       0.31085329 </v>
   <v>       0.81188737       0.56446692       0.31149096 </v>
   <v>       0.06290669       0.81246023       0.31944325 </v>
   <v>       0.30134052       0.81189343       0.31636726 </v>
   <v>       0.55273734       0.81350388       0.31158155 </v>
   <v>       0.80246262       0.81469228       0.32718578 </v>
   <v>       0.05912311       0.08020630       0.55949724 </v>
   <v>       0.31166922       0.05078494       0.56892740 </v>
   <v>       0.57002452       0.05851112       0.56103543 </v>
   <v>       0.82287281       0.06732304       0.56398728 </v>
   <v>       0.06513831       0.29699935       0.57423933 </v>
   <v>       0.32450097       0.30569837       0.54920523 </v>
   <v>       0.56319687       0.30420271       0.56668497 </v>
   <v>       0.82664592       0.32037234       0.55583723 </v>
   <v>       0.05467486       0.56338433       0.57404322 </v>
   <v>       0.30778324       0.55975455       0.55719731 </v>
   <v>       0.56009709       0.55287882       0.56614688 </v>
   <v>       0.81329243       0.57346188       0.55491219 </v>
   <v>       0.05332913       0.81838255       0.56132371 </v>
   <v>       0.31971641       0.80574027       0.57582244 </v>
   <v>       0.57118779       0.81876786       0.55007014 </v>
   <v>       0.81571874       0.81214780       0.56006446 </v>
   <v>       0.04443068       0.06664428       0.81614265 </v>
   <v>       0.31066844       0.06858945       0.81358774 </v>
   <v>       0.56419079       0.05957384       0.80725141 </v>
   <v>       0.82453183       0.04788202       0.81032571 </v>
   <v>       0.06147725       0.31612471       0.82671383 </v>
   <v>       0.32430950       0.30546669       0.81875585 </v>
   <v>       0.56846701       0.31199014       0.79893800 </v>
   <v>       0.81718770       0.31164599       0.80527650 </v>
   <v>       0.06684874       0.55596320       0.82534024 </v>
   <v>       0.30451560       0.57070665       0.81937761 </v>
   <v>       0.56073172       0.57439752       0.80800964 </v>
   <v>       0.81957546       0.55477328       0.81350967 </v>
   <v>       0.06044457       0.81735984       0.80970519 </v>
   <v>       0.31696796       0.81537919       0.80517366 </v>
   <v>       0.55899672       0.82178894       0.81409172 </v>
   <v>       0.79920504       0.81398760       0.81248278 </v>
  </varray>
 </structure>
</modeling>
