potpaw_PBE@./ARUN.APL1ZEROSTATE         
           1
     0.000000   10.937334   10.937334
    10.937334    0.000000   10.937334
    10.937334   10.937334    0.000000
   Si
 128
Direct configuration=     1
   0.99678213  0.00440009  0.99729415
   0.25399940  0.98559690  0.00256957
   0.50047257  0.00714902  0.00184273
   0.74649132  0.00885625  0.00931679
   0.00878058  0.24922248  0.00866522
   0.24274320  0.26419508  0.99421481
   0.50425674  0.25262218  0.99928670
   0.75610772  0.24044814  0.00291559
   0.99847330  0.51240952  0.01149658
   0.26266753  0.49326281  0.00015102
   0.50836424  0.50604937  0.98121773
   0.74957068  0.49741488  0.00657125
   0.00170248  0.75382543  0.99627067
   0.25514061  0.73512522  0.99807493
   0.51120981  0.76024028  0.98842500
   0.74298853  0.75202324  0.99891694
   0.99730950  0.99774455  0.26195519
   0.25284080  0.99374271  0.25287318
   0.49804441  0.99426020  0.24928182
   0.74370769  0.00241071  0.24644439
   0.99864014  0.25773917  0.24946590
   0.26423923  0.24849120  0.24778195
   0.50774514  0.24883299  0.24504199
   0.74263290  0.24680580  0.24110571
   0.97990836  0.49239959  0.26234825
   0.26375033  0.49554804  0.24418854
   0.50756510  0.50254881  0.24393704
   0.76851394  0.49564216  0.24146922
   0.99491510  0.76306627  0.24522084
   0.25099058  0.74776244  0.24323373
   0.50716210  0.73925718  0.25355792
   0.75852844  0.73870946  0.24171303
   0.99102107  0.99746257  0.50474725
   0.23882692  0.00071694  0.50018009
   0.51005094  0.99676414  0.50735165
   0.75451639  0.00314691  0.49475532
   0.01073653  0.25173143  0.49269674
   0.26010404  0.25058835  0.49608286
   0.49621248  0.25050433  0.51514331
   0.74739500  0.24977031  0.51163434
   0.00000406  0.49984438  0.49241659
   0.24557679  0.49836070  0.50098371
   0.48908679  0.50633651  0.50528241
   0.74394073  0.50216447  0.49670261
   0.99021160  0.76031114  0.50680384
   0.26089368  0.73323885  0.50666362
   0.50259512  0.74648901  0.50575970
   0.76411602  0.74631390  0.49757273
   0.99777326  0.99432253  0.75734854
   0.24792344  0.02453442  0.74173012
   0.50331434  0.00266545  0.73561525
   0.73999214  0.01286461  0.74807562
   0.99877907  0.25209077  0.75701596
   0.24352482  0.24990408  0.75495711
   0.50479174  0.25618213  0.74282843
   0.74475298  0.24328978  0.75467235
   0.99866151  0.50206009  0.75265281
   0.24838836  0.48875024  0.74175409
   0.50895502  0.50536065  0.74740008
   0.76638767  0.50294183  0.73318768
   0.98808897  0.74917170  0.75307782
   0.23860066  0.75342885  0.75059953
   0.49687653  0.75171510  0.76075059
   0.75149963  0.74978993  0.75016503
   0.05965670  0.06339033  0.07112988
   0.32384605  0.07137730  0.04819936
   0.56116825  0.06689180  0.06690676
   0.81459682  0.05286971  0.06943093
   0.06741866  0.31929671  0.06420907
   0.32216045  0.31032064  0.05117265
   0.55957004  0.30423889  0.07309930
   0.82406233  0.30933228  0.06186492
   0.07276999  0.55791037  0.06518854
   0.32280720  0.56395443  0.05813222
   0.55538448  0.56658591  0.06197232
   0.81201525  0.57791662  0.05223978
   0.06407361  0.80992221  0.05899071
   0.31066676  0.80623657  0.06591861
   0.56546840  0.81452281  0.05897637
   0.80143119  0.84149441  0.05384239
   0.06624157  0.07120947  0.30429080
   0.30910990  0.04887481  0.32355746
   0.56310107  0.07217443  0.29786257
   0.81042652  0.06338303  0.31657559
   0.06616690  0.31130429  0.31197301
   0.29904553  0.32308314  0.30823372
   0.57474391  0.30422203  0.33099572
   0.80932847  0.31513350  0.31420222
   0.06027716  0.56300525  0.31096143
   0.31673165  0.56265553  0.30294159
   0.58090196  0.55015264  0.31085329
   0.81188737  0.56446692  0.31149096
   0.06290669  0.81246023  0.31944325
   0.30134052  0.81189343  0.31636726
   0.55273734  0.81350388  0.31158155
   0.80246262  0.81469228  0.32718578
   0.05912311  0.08020630  0.55949724
   0.31166922  0.05078494  0.56892740
   0.57002452  0.05851112  0.56103543
   0.82287281  0.06732304  0.56398728
   0.06513831  0.29699935  0.57423933
   0.32450097  0.30569837  0.54920523
   0.56319687  0.30420271  0.56668497
   0.82664592  0.32037234  0.55583723
   0.05467486  0.56338433  0.57404322
   0.30778324  0.55975455  0.55719731
   0.56009709  0.55287882  0.56614688
   0.81329243  0.57346188  0.55491219
   0.05332913  0.81838255  0.56132371
   0.31971641  0.80574027  0.57582244
   0.57118779  0.81876786  0.55007014
   0.81571874  0.81214780  0.56006446
   0.04443068  0.06664428  0.81614265
   0.31066844  0.06858945  0.81358774
   0.56419079  0.05957384  0.80725141
   0.82453183  0.04788202  0.81032571
   0.06147725  0.31612471  0.82671383
   0.32430950  0.30546669  0.81875585
   0.56846701  0.31199014  0.79893800
   0.81718770  0.31164599  0.80527650
   0.06684874  0.55596320  0.82534024
   0.30451560  0.57070665  0.81937761
   0.56073172  0.57439752  0.80800964
   0.81957546  0.55477328  0.81350967
   0.06044457  0.81735984  0.80970519
   0.31696796  0.81537919  0.80517366
   0.55899672  0.82178894  0.81409172
   0.79920504  0.81398760  0.81248278
