 128 128   0   0
  0.2044346E+02  0.1546773E-08  0.1546773E-08  0.1546773E-08  0.5000000E-15
  1.000000000000000E-004
  CAR 
 potpaw_PBE@./ARUN.APL1ZEROSTATE         
      9.35939636     -7.03984184  301      5.87455824      1.00000000
     -7.040  0.0000E+00  0.0000E+00
     -6.985  0.0000E+00  0.0000E+00
     -6.931  0.0000E+00  0.0000E+00
     -6.876  0.0000E+00  0.0000E+00
     -6.821  0.0000E+00  0.0000E+00
     -6.767  0.0000E+00  0.0000E+00
     -6.712  0.0000E+00  0.0000E+00
     -6.657  0.0000E+00  0.0000E+00
     -6.603  0.0000E+00  0.0000E+00
     -6.548  0.0000E+00  0.0000E+00
     -6.493  0.0000E+00  0.0000E+00
     -6.439  0.0000E+00  0.0000E+00
     -6.384  0.0000E+00  0.0000E+00
     -6.329  0.1984E-05  0.1084E-06
     -6.275  0.4562E+01  0.2494E+00
     -6.220  0.1129E-01  0.2500E+00
     -6.165  0.2709E+00  0.2648E+00
     -6.111  0.1800E+02  0.1249E+01
     -6.056  0.2772E+02  0.2764E+01
     -6.001  0.1551E+02  0.3612E+01
     -5.947  0.2527E+01  0.3750E+01
     -5.892  0.3217E+00  0.3768E+01
     -5.837  0.1339E+02  0.4500E+01
     -5.783  0.4518E+01  0.4747E+01
     -5.728  0.2955E+02  0.6362E+01
     -5.673  0.2346E+02  0.7644E+01
     -5.619  0.2619E+02  0.9076E+01
     -5.564  0.1988E+02  0.1016E+02
     -5.509  0.3304E+02  0.1197E+02
     -5.455  0.1928E+02  0.1302E+02
     -5.400  0.2518E+02  0.1440E+02
     -5.345  0.6421E+01  0.1475E+02
     -5.291  0.3484E+01  0.1494E+02
     -5.236  0.1502E+01  0.1502E+02
     -5.181  0.3826E+02  0.1711E+02
     -5.127  0.2057E+02  0.1824E+02
     -5.072  0.4250E+02  0.2056E+02
     -5.017  0.3927E+02  0.2271E+02
     -4.963  0.5240E+02  0.2557E+02
     -4.908  0.2353E+02  0.2686E+02
     -4.853  0.2646E+02  0.2830E+02
     -4.799  0.2304E+02  0.2956E+02
     -4.744  0.3021E+02  0.3122E+02
     -4.689  0.3229E+02  0.3298E+02
     -4.635  0.3255E+02  0.3476E+02
     -4.580  0.4250E+02  0.3708E+02
     -4.525  0.3932E+02  0.3923E+02
     -4.471  0.2886E+02  0.4081E+02
     -4.416  0.1960E+02  0.4188E+02
     -4.361  0.2052E+02  0.4300E+02
     -4.307  0.1286E+02  0.4371E+02
     -4.252  0.4757E+02  0.4631E+02
     -4.197  0.6008E+02  0.4959E+02
     -4.143  0.5132E+02  0.5240E+02
     -4.088  0.7663E+02  0.5659E+02
     -4.033  0.5317E+02  0.5949E+02
     -3.979  0.4511E+02  0.6196E+02
     -3.924  0.5531E+02  0.6498E+02
     -3.869  0.4123E+02  0.6724E+02
     -3.815  0.5922E+02  0.7047E+02
     -3.760  0.4864E+02  0.7313E+02
     -3.705  0.5441E+02  0.7611E+02
     -3.651  0.3336E+02  0.7793E+02
     -3.596  0.2973E+02  0.7955E+02
     -3.541  0.3430E+02  0.8143E+02
     -3.487  0.4505E+02  0.8389E+02
     -3.432  0.4896E+02  0.8657E+02
     -3.377  0.6395E+02  0.9006E+02
     -3.323  0.5166E+02  0.9289E+02
     -3.268  0.4350E+02  0.9527E+02
     -3.213  0.2268E+02  0.9651E+02
     -3.159  0.3779E+02  0.9857E+02
     -3.104  0.3691E+02  0.1006E+03
     -3.049  0.4695E+02  0.1032E+03
     -2.995  0.4569E+02  0.1057E+03
     -2.940  0.3800E+02  0.1077E+03
     -2.885  0.4569E+02  0.1102E+03
     -2.831  0.2973E+02  0.1119E+03
     -2.776  0.3058E+02  0.1135E+03
     -2.721  0.4240E+02  0.1158E+03
     -2.667  0.2950E+02  0.1175E+03
     -2.612  0.4275E+02  0.1198E+03
     -2.557  0.2928E+02  0.1214E+03
     -2.503  0.1111E+02  0.1220E+03
     -2.448  0.1333E+02  0.1227E+03
     -2.393  0.3841E+00  0.1228E+03
     -2.339  0.3806E+01  0.1230E+03
     -2.284  0.2988E+01  0.1231E+03
     -2.229  0.1492E+02  0.1239E+03
     -2.175  0.2732E+02  0.1254E+03
     -2.120  0.2662E+02  0.1269E+03
     -2.065  0.2966E+02  0.1285E+03
     -2.011  0.2890E+02  0.1301E+03
     -1.956  0.2245E+02  0.1313E+03
     -1.901  0.1337E+02  0.1320E+03
     -1.847  0.9655E+01  0.1326E+03
     -1.792  0.7770E+01  0.1330E+03
     -1.737  0.4623E+01  0.1333E+03
     -1.683  0.5051E+01  0.1335E+03
     -1.628  0.8751E+01  0.1340E+03
     -1.573  0.1593E+02  0.1349E+03
     -1.519  0.3221E+02  0.1366E+03
     -1.464  0.5143E+02  0.1394E+03
     -1.409  0.2712E+02  0.1409E+03
     -1.355  0.4928E+02  0.1436E+03
     -1.300  0.6023E+02  0.1469E+03
     -1.245  0.6122E+02  0.1503E+03
     -1.191  0.6817E+02  0.1540E+03
     -1.136  0.5848E+02  0.1572E+03
     -1.081  0.4872E+02  0.1599E+03
     -1.027  0.8702E+02  0.1646E+03
     -0.972  0.6940E+02  0.1684E+03
     -0.917  0.6793E+02  0.1721E+03
     -0.863  0.7550E+02  0.1762E+03
     -0.808  0.5214E+02  0.1791E+03
     -0.753  0.4252E+02  0.1814E+03
     -0.699  0.4840E+02  0.1841E+03
     -0.644  0.3549E+02  0.1860E+03
     -0.589  0.3715E+02  0.1880E+03
     -0.535  0.3326E+02  0.1899E+03
     -0.480  0.1669E+02  0.1908E+03
     -0.425  0.9330E+01  0.1913E+03
     -0.371  0.3375E+02  0.1931E+03
     -0.316  0.4705E+02  0.1957E+03
     -0.261  0.4255E+02  0.1980E+03
     -0.207  0.6228E+02  0.2014E+03
     -0.152  0.6429E+02  0.2049E+03
     -0.097  0.4020E+02  0.2071E+03
     -0.043  0.3964E+02  0.2093E+03
      0.012  0.4758E+02  0.2119E+03
      0.066  0.2469E+02  0.2133E+03
      0.121  0.8959E+01  0.2137E+03
      0.176  0.8216E+01  0.2142E+03
      0.230  0.1022E+02  0.2147E+03
      0.285  0.1431E+02  0.2155E+03
      0.340  0.3609E+02  0.2175E+03
      0.394  0.2640E+02  0.2189E+03
      0.449  0.2247E+02  0.2202E+03
      0.504  0.1871E+02  0.2212E+03
      0.558  0.1986E+02  0.2223E+03
      0.613  0.1897E+02  0.2233E+03
      0.668  0.1996E+02  0.2244E+03
      0.722  0.2506E+02  0.2258E+03
      0.777  0.1773E+02  0.2268E+03
      0.832  0.1330E+02  0.2275E+03
      0.886  0.7920E+01  0.2279E+03
      0.941  0.1828E+02  0.2289E+03
      0.996  0.2380E+02  0.2302E+03
      1.050  0.3092E+02  0.2319E+03
      1.105  0.2196E+02  0.2331E+03
      1.160  0.2801E+02  0.2346E+03
      1.214  0.1648E+02  0.2355E+03
      1.269  0.3201E+02  0.2373E+03
      1.324  0.2508E+02  0.2387E+03
      1.378  0.2925E+02  0.2403E+03
      1.433  0.4115E+02  0.2425E+03
      1.488  0.7850E+02  0.2468E+03
      1.542  0.8645E+02  0.2515E+03
      1.597  0.9424E+02  0.2567E+03
      1.652  0.7005E+02  0.2605E+03
      1.706  0.6578E+02  0.2641E+03
      1.761  0.6901E+02  0.2679E+03
      1.816  0.5331E+02  0.2708E+03
      1.870  0.2948E+02  0.2724E+03
      1.925  0.1590E+02  0.2733E+03
      1.980  0.2245E+02  0.2745E+03
      2.034  0.3073E+02  0.2762E+03
      2.089  0.6311E+02  0.2796E+03
      2.144  0.9563E+02  0.2848E+03
      2.198  0.1156E+03  0.2912E+03
      2.253  0.1260E+03  0.2981E+03
      2.308  0.1241E+03  0.3048E+03
      2.362  0.1138E+03  0.3111E+03
      2.417  0.1044E+03  0.3168E+03
      2.472  0.7441E+02  0.3208E+03
      2.526  0.4775E+02  0.3234E+03
      2.581  0.1621E+02  0.3243E+03
      2.636  0.3974E+02  0.3265E+03
      2.690  0.4695E+02  0.3291E+03
      2.745  0.9592E+02  0.3343E+03
      2.800  0.8659E+02  0.3390E+03
      2.854  0.9722E+02  0.3444E+03
      2.909  0.9789E+02  0.3497E+03
      2.964  0.1041E+03  0.3554E+03
      3.018  0.1041E+03  0.3611E+03
      3.073  0.1002E+03  0.3666E+03
      3.128  0.8070E+02  0.3710E+03
      3.182  0.5874E+02  0.3742E+03
      3.237  0.9263E+02  0.3793E+03
      3.292  0.7481E+02  0.3833E+03
      3.346  0.1085E+03  0.3893E+03
      3.401  0.1105E+03  0.3953E+03
      3.456  0.7057E+02  0.3992E+03
      3.510  0.1047E+03  0.4049E+03
      3.565  0.7318E+02  0.4089E+03
      3.620  0.8028E+02  0.4133E+03
      3.674  0.7578E+02  0.4174E+03
      3.729  0.7913E+02  0.4218E+03
      3.784  0.8325E+02  0.4263E+03
      3.838  0.8815E+02  0.4311E+03
      3.893  0.8129E+02  0.4356E+03
      3.948  0.6613E+02  0.4392E+03
      4.002  0.6483E+02  0.4427E+03
      4.057  0.5875E+02  0.4459E+03
      4.112  0.7494E+02  0.4500E+03
      4.166  0.7095E+02  0.4539E+03
      4.221  0.8522E+02  0.4586E+03
      4.276  0.6248E+02  0.4620E+03
      4.330  0.7418E+02  0.4660E+03
      4.385  0.7876E+02  0.4703E+03
      4.440  0.7445E+02  0.4744E+03
      4.494  0.6761E+02  0.4781E+03
      4.549  0.6697E+02  0.4818E+03
      4.604  0.6370E+02  0.4853E+03
      4.658  0.4850E+02  0.4879E+03
      4.713  0.5143E+02  0.4907E+03
      4.768  0.2017E+02  0.4918E+03
      4.822  0.9028E+01  0.4923E+03
      4.877  0.3663E+02  0.4943E+03
      4.932  0.4952E+02  0.4970E+03
      4.986  0.2991E+02  0.4987E+03
      5.041  0.3573E+02  0.5006E+03
      5.096  0.4234E+02  0.5029E+03
      5.150  0.1028E+02  0.5035E+03
      5.205  0.5236E+01  0.5038E+03
      5.260  0.7274E+01  0.5042E+03
      5.314  0.9009E+01  0.5047E+03
      5.369  0.2273E+02  0.5059E+03
      5.424  0.2127E+02  0.5071E+03
      5.478  0.2569E+02  0.5085E+03
      5.533  0.2798E+02  0.5100E+03
      5.588  0.1856E+02  0.5110E+03
      5.642  0.4296E+01  0.5113E+03
      5.697  0.4528E+01  0.5115E+03
      5.752  0.4571E+01  0.5117E+03
      5.806  0.2825E+01  0.5119E+03
      5.861  0.1751E+01  0.5120E+03
      5.916  0.0000E+00  0.5120E+03
      5.970  0.0000E+00  0.5120E+03
      6.025  0.0000E+00  0.5120E+03
      6.080  0.0000E+00  0.5120E+03
      6.134  0.5163E+00  0.5120E+03
      6.189  0.1437E+02  0.5128E+03
      6.244  0.2021E+02  0.5139E+03
      6.298  0.1119E+02  0.5145E+03
      6.353  0.1351E+02  0.5153E+03
      6.408  0.2909E+02  0.5169E+03
      6.462  0.2485E+02  0.5182E+03
      6.517  0.3670E+02  0.5202E+03
      6.572  0.1972E+02  0.5213E+03
      6.626  0.1176E+02  0.5219E+03
      6.681  0.9552E+01  0.5225E+03
      6.736  0.2806E+02  0.5240E+03
      6.790  0.3191E+02  0.5257E+03
      6.845  0.3662E+02  0.5277E+03
      6.900  0.3672E+02  0.5298E+03
      6.954  0.3619E+02  0.5317E+03
      7.009  0.3168E+02  0.5335E+03
      7.064  0.5017E+02  0.5362E+03
      7.118  0.3364E+02  0.5380E+03
      7.173  0.3813E+02  0.5401E+03
      7.227  0.2022E+02  0.5412E+03
      7.282  0.4466E+02  0.5437E+03
      7.337  0.7263E+02  0.5476E+03
      7.391  0.7389E+02  0.5517E+03
      7.446  0.8325E+02  0.5562E+03
      7.501  0.9211E+02  0.5613E+03
      7.555  0.9276E+02  0.5663E+03
      7.610  0.9218E+02  0.5714E+03
      7.665  0.9209E+02  0.5764E+03
      7.719  0.6751E+02  0.5801E+03
      7.774  0.9754E+02  0.5854E+03
      7.829  0.9552E+02  0.5907E+03
      7.883  0.9591E+02  0.5959E+03
      7.938  0.1083E+03  0.6018E+03
      7.993  0.8588E+02  0.6065E+03
      8.047  0.8807E+02  0.6113E+03
      8.102  0.7309E+02  0.6153E+03
      8.157  0.8028E+02  0.6197E+03
      8.211  0.8574E+02  0.6244E+03
      8.266  0.9819E+02  0.6298E+03
      8.321  0.8075E+02  0.6342E+03
      8.375  0.7005E+02  0.6380E+03
      8.430  0.6123E+02  0.6414E+03
      8.485  0.3422E+02  0.6432E+03
      8.539  0.4867E+01  0.6435E+03
      8.594  0.4686E+01  0.6438E+03
      8.649  0.4562E+01  0.6440E+03
      8.703  0.0000E+00  0.6440E+03
      8.758  0.0000E+00  0.6440E+03
      8.813  0.0000E+00  0.6440E+03
      8.867  0.0000E+00  0.6440E+03
      8.922  0.0000E+00  0.6440E+03
      8.977  0.0000E+00  0.6440E+03
      9.031  0.0000E+00  0.6440E+03
      9.086  0.0000E+00  0.6440E+03
      9.141  0.0000E+00  0.6440E+03
      9.195  0.0000E+00  0.6440E+03
      9.250  0.0000E+00  0.6440E+03
      9.305  0.0000E+00  0.6440E+03
      9.359  0.0000E+00  0.6440E+03
