 vasp.5.4.4.18Apr17-6-g9f103f2a35 (build Nov 08 2017 09:05:29) complex          
  
 executed on          Intel_17.33 date 2020.07.18  23:08:38
 running on   32 total cores
 distrk:  each k-point on   32 cores,    1 groups
 distr:  one band on NCORES_PER_BAND=  16 cores,    2 groups


--------------------------------------------------------------------------------------------------------


 INCAR:
 POTCAR:   PAW_PBE Si 05Jan2001                   

 ----------------------------------------------------------------------------- 
|                                                                             |
|           W    W    AA    RRRRR   N    N  II  N    N   GGGG   !!!           |
|           W    W   A  A   R    R  NN   N  II  NN   N  G    G  !!!           |
|           W    W  A    A  R    R  N N  N  II  N N  N  G       !!!           |
|           W WW W  AAAAAA  RRRRR   N  N N  II  N  N N  G  GGG   !            |
|           WW  WW  A    A  R   R   N   NN  II  N   NN  G    G                |
|           W    W  A    A  R    R  N    N  II  N    N   GGGG   !!!           |
|                                                                             |
|      For optimal performance we recommend to set                            |
|        NCORE= 4 - approx SQRT( number of cores)                             |
|      NCORE specifies how many cores store one orbital (NPAR=cpu/NCORE).     |
|      This setting can  greatly improve the performance of VASP for DFT.     |
|      The default,   NCORE=1            might be grossly inefficient         |
|      on modern multi-core architectures or massively parallel machines.     |
|      Do your own testing !!!!                                               |
|      Unfortunately you need to use the default for GW and RPA calculations. |
|      (for HF NCORE is supported but not extensively tested yet)             |
|                                                                             |
 ----------------------------------------------------------------------------- 

 POTCAR:   PAW_PBE Si 05Jan2001                   
   VRHFIN =Si: s2p2                                                             
   LEXCH  = PE                                                                  
   EATOM  =   103.0669 eV,    7.5752 Ry                                         
                                                                                
   TITEL  = PAW_PBE Si 05Jan2001                                                
   LULTRA =        F    use ultrasoft PP ?                                      
   IUNSCR =        1    unscreen: 0-lin 1-nonlin 2-no                           
   RPACOR =    1.500    partial core radius                                     
   POMASS =   28.085; ZVAL   =    4.000    mass and valenz                      
   RCORE  =    1.900    outmost cutoff radius                                   
   RWIGS  =    2.480; RWIGS  =    1.312    wigner-seitz radius (au A)           
   ENMAX  =  245.345; ENMIN  =  184.009 eV                                      
   ICORE  =        2    local potential                                         
   LCOR   =        T    correct aug charges                                     
   LPAW   =        T    paw PP                                                  
   EAUG   =  322.069                                                            
   DEXC   =    -.007                                                            
   RMAX   =    2.944    core radius for proj-oper                               
   RAUG   =    1.300    factor for augmentation sphere                          
   RDEP   =    1.993    radius for radial grids                                 
   QCUT   =   -4.246; QGAM   =    8.493    optimization parameters              
                                                                                
   Description                                                                  
     l     E      TYP  RCUT    TYP  RCUT                                        
     0   .000     23  1.900                                                     
     0   .000     23  1.900                                                     
     1   .000     23  1.900                                                     
     1   .000     23  1.900                                                     
     2   .000      7  1.900                                                     
  local pseudopotential read in
  partial core-charges read in
  atomic valenz-charges read in
  non local Contribution for L=           0  read in
    real space projection operators read in
  non local Contribution for L=           0  read in
    real space projection operators read in
  non local Contribution for L=           1  read in
    real space projection operators read in
  non local Contribution for L=           1  read in
    real space projection operators read in
    PAW grid and wavefunctions read in
 
   number of l-projection  operators is LMAX  =           4
   number of lm-projection operators is LMMAX =           8
 

 ----------------------------------------------------------------------------- 
|                                                                             |
|  ADVICE TO THIS USER RUNNING 'VASP/VAMP'   (HEAR YOUR MASTER'S VOICE ...):  |
|                                                                             |
|      You have a (more or less) 'large supercell' and for larger cells       |
|      it might be more efficient to use real space projection operators      |
|      So try LREAL= Auto  in the INCAR   file.                               |
|      Mind: If you want to do a very accurate calculations keep the          |
|      reciprocal projection scheme          (i.e. LREAL=.FALSE.)             |
|                                                                             |
 ----------------------------------------------------------------------------- 

 PAW_PBE Si 05Jan2001                   :
 energy of atom  1       EATOM= -103.0669
 kinetic energy error for atom=    0.0006 (will be added to EATOM!!)
 
 
 POSCAR: kk                                      
  positions in direct lattice
  No initial velocities read in
 exchange correlation table for  LEXCH =        8
   RHO(1)=    0.500       N(1)  =     2000
   RHO(2)=  100.500       N(2)  =     4000
 


--------------------------------------------------------------------------------------------------------


 ion  position               nearest neighbor table
   1  0.001  0.991  0.006-  68 2.27  77 2.33  65 2.34 113 2.56
   2  0.254  0.988  0.996-  78 2.20  65 2.35 114 2.41  66 2.49
   3  0.502  0.008  0.990- 115 2.24  66 2.28  79 2.42  67 2.50
   4  0.750  0.998  0.007-  68 2.30  67 2.31  80 2.41 116 2.58
   5  0.008  0.247  0.997- 117 2.25  69 2.31  65 2.40  72 2.44
   6  0.260  0.239  0.004-  66 2.28 118 2.32  70 2.37  69 2.58
   7  0.496  0.241  0.009- 119 2.21  67 2.27  70 2.34  71 2.50
   8  0.751  0.255  0.990- 120 2.35  72 2.40  71 2.45  68 2.50
   9  0.017  0.490  0.992- 121 2.29  69 2.37  73 2.43  76 2.56
  10  0.255  0.503  0.004-  74 2.29  70 2.30  73 2.32 122 2.38
  11  0.492  0.497  0.004-  71 2.23  74 2.31  75 2.47 123 2.51
  12  0.741  0.512  0.993-  75 2.26 124 2.36  76 2.41  72 2.57
  13  0.009  0.756  0.993- 125 2.24  77 2.31  80 2.43  73 2.59
  14  0.255  0.761  0.001-  78 2.21 126 2.29  77 2.44  74 2.49
  15  0.495  0.754  0.003- 127 2.28  78 2.33  75 2.37  79 2.38
  16  0.748  0.738  0.001-  76 2.27  79 2.29 128 2.34  80 2.67
  17  1.000  0.999  0.252-  93 2.28  81 2.31  84 2.33  65 2.44
  18  0.258  0.002  0.246-  82 2.19  66 2.42  94 2.47  81 2.52
  19  0.496  0.003  0.247-  83 2.19  67 2.25  82 2.30  95 2.32
  20  0.744  0.996  0.259-  84 2.24  96 2.26  83 2.38  68 2.54
  21  0.005  0.245  0.253-  81 2.26  69 2.27  85 2.38  88 2.39
  22  0.260  0.236  0.249-  82 2.31  86 2.32  70 2.46  85 2.50
  23  0.492  0.255  0.244-  71 2.28  87 2.41  86 2.47  83 2.48
  24  0.745  0.256  0.247-  87 2.25  72 2.34  88 2.45  84 2.55
  25  0.010  0.505  0.240-  73 2.18  89 2.33  85 2.41  92 2.46
  26  0.247  0.509  0.241-  74 2.16  89 2.42  90 2.42  86 2.49
  27  0.515  0.497  0.249-  91 2.36  87 2.38  75 2.41  90 2.60
  28  0.748  0.510  0.242-  76 2.26  91 2.33  92 2.50  88 2.52
  29  0.993  0.758  0.249-  77 2.27  96 2.32  89 2.37  93 2.44
  30  0.247  0.756  0.247-  78 2.27  93 2.32  90 2.36  94 2.36
  31  0.496  0.754  0.254-  94 2.21  91 2.28  95 2.37  79 2.51
  32  0.748  0.749  0.248-  80 2.21  95 2.37  96 2.37  92 2.40
  33  0.007  0.998  0.492-  81 2.32  97 2.34 109 2.35 100 2.51
  34  0.246  0.995  0.505- 110 2.30  97 2.34  82 2.44  98 2.48
  35  0.501  0.009  0.492-  98 2.32  83 2.37  99 2.54 111 2.57
  36  0.760  0.002  0.493- 100 2.25 112 2.33  84 2.38  99 2.60
  37  0.002  0.251  0.501-  97 2.34 101 2.34  85 2.35 104 2.45
  38  0.233  0.255  0.498- 101 2.19  86 2.28  98 2.36 102 2.50
  39  0.492  0.260  0.493- 102 2.26 103 2.36  87 2.38  99 2.44
  40  0.751  0.252  0.497- 104 2.29  88 2.31 103 2.38 100 2.40
  41  0.008  0.503  0.500- 105 2.31 108 2.35  89 2.38 101 2.46
  42  0.254  0.500  0.515- 106 2.16 105 2.41 102 2.46  90 2.60
  43  0.503  0.498  0.496-  91 2.36 106 2.37 107 2.38 103 2.49
  44  0.755  0.505  0.504- 108 2.24  92 2.32 104 2.41 107 2.52
  45  0.997  0.754  0.492-  93 2.29 105 2.34 112 2.36 109 2.62
  46  0.259  0.752  0.502- 106 2.23 110 2.29 109 2.44  94 2.45
  47  0.504  0.748  0.494-  95 2.30 110 2.34 107 2.34 111 2.47
  48  0.749  0.749  0.505- 111 2.39 112 2.41 108 2.45  96 2.51
  49  0.003  0.002  0.740- 116 2.32  97 2.34 125 2.37 113 2.44
  50  0.244  0.008  0.745- 114 2.28 113 2.37  98 2.42 126 2.54
  51  0.492  0.003  0.753-  99 2.22 114 2.23 127 2.38 115 2.54
  52  0.748  0.003  0.751- 115 2.24 116 2.27 100 2.39 128 2.45
  53  0.003  0.257  0.746- 101 2.23 120 2.24 113 2.28 117 2.30
  54  0.234  0.253  0.762- 117 2.24 118 2.32 114 2.50 102 2.52
  55  0.491  0.260  0.761- 119 2.31 118 2.39 115 2.46 103 2.47
  56  0.758  0.246  0.745- 120 2.35 104 2.36 116 2.36 119 2.59
  57  0.992  0.502  0.746- 105 2.35 124 2.38 117 2.40 121 2.47
  58  0.247  0.511  0.744- 121 2.34 122 2.39 106 2.52 118 2.57
  59  0.505  0.492  0.750- 123 2.32 107 2.33 119 2.38 122 2.47
  60  0.752  0.493  0.760- 124 2.26 123 2.36 120 2.40 108 2.48
  61  1.000  0.747  0.753- 109 2.30 121 2.35 128 2.39 125 2.46
  62  0.264  0.745  0.753- 126 2.24 122 2.26 110 2.43 125 2.52
  63  0.494  0.764  0.754- 127 2.23 111 2.27 126 2.33 123 2.57
  64  0.750  0.746  0.756- 124 2.18 128 2.32 112 2.42 127 2.51
  65  0.068  0.057  0.059-   1 2.34   2 2.35   5 2.40  17 2.44
  66  0.323  0.058  0.055-   3 2.28   6 2.28  18 2.42   2 2.49
  67  0.567  0.061  0.069-  19 2.25   7 2.27   4 2.31   3 2.50
  68  0.822  0.057  0.059-   1 2.27   4 2.30   8 2.50  20 2.54
  69  0.056  0.304  0.074-  21 2.27   5 2.31   9 2.37   6 2.58
  70  0.312  0.322  0.056-  10 2.30   7 2.34   6 2.37  22 2.46
  71  0.557  0.321  0.065-  11 2.23  23 2.28   8 2.45   7 2.50
  72  0.815  0.309  0.062-  24 2.34   8 2.40   5 2.44  12 2.57
  73  0.072  0.551  0.068-  25 2.18  10 2.32   9 2.43  13 2.59
  74  0.309  0.564  0.070-  26 2.16  10 2.29  11 2.31  14 2.49
  75  0.562  0.567  0.059-  12 2.26  15 2.37  27 2.41  11 2.47
  76  0.814  0.558  0.064-  28 2.26  16 2.27  12 2.41   9 2.56
  77  0.063  0.807  0.070-  29 2.27  13 2.31   1 2.33  14 2.44
  78  0.310  0.814  0.067-   2 2.20  14 2.21  30 2.27  15 2.33
  79  0.568  0.817  0.056-  16 2.29  15 2.38   3 2.42  31 2.51
  80  0.817  0.808  0.073-  32 2.21   4 2.41  13 2.43  16 2.67
  81  0.059  0.067  0.309-  21 2.26  17 2.31  33 2.32  18 2.52
  82  0.314  0.053  0.312-  18 2.19  19 2.30  22 2.31  34 2.44
  83  0.557  0.058  0.305-  19 2.19  35 2.37  20 2.38  23 2.48
  84  0.816  0.054  0.305-  20 2.24  17 2.33  36 2.38  24 2.55
  85  0.063  0.315  0.315-  37 2.35  21 2.38  25 2.41  22 2.50
  86  0.296  0.313  0.318-  38 2.28  22 2.32  23 2.47  26 2.49
  87  0.567  0.310  0.305-  24 2.25  39 2.38  27 2.38  23 2.41
  88  0.816  0.311  0.315-  40 2.31  21 2.39  24 2.45  28 2.52
  89  0.056  0.570  0.313-  25 2.33  29 2.37  41 2.38  26 2.42
  90  0.309  0.570  0.310-  30 2.36  26 2.42  42 2.60  27 2.60
  91  0.563  0.573  0.310-  31 2.28  28 2.33  27 2.36  43 2.36
  92  0.816  0.560  0.321-  44 2.32  32 2.40  25 2.46  28 2.50
  93  0.064  0.818  0.311-  17 2.28  45 2.29  30 2.32  29 2.44
  94  0.322  0.806  0.309-  31 2.21  30 2.36  46 2.45  18 2.47
  95  0.560  0.819  0.312-  47 2.30  19 2.32  32 2.37  31 2.37
  96  0.809  0.817  0.306-  20 2.26  29 2.32  32 2.37  48 2.51
  97  0.062  0.066  0.555-  34 2.34  37 2.34  49 2.34  33 2.34
  98  0.317  0.070  0.554-  35 2.32  38 2.36  50 2.42  34 2.48
  99  0.555  0.069  0.578-  51 2.22  39 2.44  35 2.54  36 2.60
 100  0.809  0.062  0.561-  36 2.25  52 2.39  40 2.40  33 2.51
 101  0.060  0.309  0.570-  38 2.19  53 2.23  37 2.34  41 2.46
 102  0.314  0.306  0.563-  39 2.26  42 2.46  38 2.50  54 2.52
 103  0.563  0.301  0.567-  39 2.36  40 2.38  55 2.47  43 2.49
 104  0.808  0.315  0.559-  40 2.29  56 2.36  44 2.41  37 2.45
 105  0.064  0.569  0.561-  41 2.31  45 2.34  57 2.35  42 2.41
 106  0.316  0.577  0.545-  42 2.16  46 2.23  43 2.37  58 2.52
 107  0.556  0.563  0.566-  59 2.33  47 2.34  43 2.38  44 2.52
 108  0.822  0.555  0.564-  44 2.24  41 2.35  48 2.45  60 2.48
 109  0.065  0.813  0.571-  61 2.30  33 2.35  46 2.44  45 2.62
 110  0.319  0.814  0.561-  46 2.29  34 2.30  47 2.34  62 2.43
 111  0.560  0.806  0.575-  63 2.27  48 2.39  47 2.47  35 2.57
 112  0.810  0.818  0.565-  36 2.33  45 2.36  48 2.41  64 2.42
 113  0.057  0.076  0.805-  53 2.28  50 2.37  49 2.44   1 2.56
 114  0.316  0.056  0.806-  51 2.23  50 2.28   2 2.41  54 2.50
 115  0.571  0.066  0.813-   3 2.24  52 2.24  55 2.46  51 2.54
 116  0.819  0.059  0.803-  52 2.27  49 2.32  56 2.36   4 2.58
 117  0.057  0.312  0.820-  54 2.24   5 2.25  53 2.30  57 2.40
 118  0.303  0.308  0.822-   6 2.32  54 2.32  55 2.39  58 2.57
 119  0.554  0.305  0.834-   7 2.21  55 2.31  59 2.38  56 2.59
 120  0.826  0.305  0.805-  53 2.24   8 2.35  56 2.35  60 2.40
 121  0.062  0.561  0.812-   9 2.29  58 2.34  61 2.35  57 2.47
 122  0.310  0.566  0.816-  62 2.26  10 2.38  58 2.39  59 2.47
 123  0.566  0.561  0.805-  59 2.32  60 2.36  11 2.51  63 2.57
 124  0.804  0.574  0.806-  64 2.18  60 2.26  12 2.36  57 2.38
 125  0.065  0.815  0.816-  13 2.24  49 2.37  61 2.46  62 2.52
 126  0.311  0.807  0.821-  62 2.24  14 2.29  63 2.33  50 2.54
 127  0.551  0.815  0.822-  63 2.23  15 2.28  51 2.38  64 2.51
 128  0.811  0.809  0.816-  64 2.32  16 2.34  61 2.39  52 2.45
 
  LATTYP: Found a face centered cubic cell.
 ALAT       =    21.8746673814
  
  Lattice vectors:
  
 A1 = (   0.0000000000,  10.9373336907,  10.9373336907)
 A2 = (  10.9373336907,   0.0000000000,  10.9373336907)
 A3 = (  10.9373336907,  10.9373336907,   0.0000000000)


Analysis of symmetry for initial positions (statically):
=====================================================================
 Subroutine PRICEL returns:
 Original cell was already a primitive cell.
 

 Routine SETGRP: Setting up the symmetry group for a 
 face centered cubic supercell.


 Subroutine GETGRP returns: Found  1 space group operations
 (whereof  1 operations were pure point group operations)
 out of a pool of 48 trial point group operations.


The static configuration has the point symmetry C_1 .


Analysis of symmetry for dynamics (positions and initial velocities):
=====================================================================
 Subroutine PRICEL returns:
 Original cell was already a primitive cell.
 

 Routine SETGRP: Setting up the symmetry group for a 
 face centered cubic supercell.


 Subroutine GETGRP returns: Found  1 space group operations
 (whereof  1 operations were pure point group operations)
 out of a pool of 48 trial point group operations.


The dynamic configuration has the point symmetry C_1 .


 Subroutine INISYM returns: Found  1 space group operations
 (whereof  1 operations are pure point group operations),
 and found     1 'primitive' translations

 
 
 KPOINTS: KPOINTS File, automatically generated by

Automatic generation of k-mesh.
Space group operators:
 irot       det(A)        alpha          n_x          n_y          n_z        tau_x        tau_y        tau_z
    1     1.000000     0.000001     1.000000     0.000000     0.000000     0.000000     0.000000     0.000000
 
 Subroutine IBZKPT returns following result:
 ===========================================
 
 Found      8 irreducible k-points:
 
 Following reciprocal coordinates:
            Coordinates               Weight
  0.000000  0.000000  0.000000      1.000000
  0.500000  0.000000  0.000000      1.000000
  0.000000  0.500000  0.000000      1.000000
  0.500000  0.500000  0.000000      1.000000
  0.000000  0.000000  0.500000      1.000000
  0.500000  0.000000  0.500000      1.000000
  0.000000  0.500000  0.500000      1.000000
  0.500000  0.500000  0.500000      1.000000
 
 Following cartesian coordinates:
            Coordinates               Weight
  0.000000  0.000000  0.000000      1.000000
 -0.022857  0.022857  0.022857      1.000000
  0.022857 -0.022857  0.022857      1.000000
  0.000000  0.000000  0.045715      1.000000
  0.022857  0.022857 -0.022857      1.000000
  0.000000  0.045715  0.000000      1.000000
  0.045715  0.000000  0.000000      1.000000
  0.022857  0.022857  0.022857      1.000000
 


--------------------------------------------------------------------------------------------------------




 Dimension of arrays:
   k-points           NKPTS =      8   k-points in BZ     NKDIM =      8   number of bands    NBANDS=    322
   number of dos      NEDOS =    301   number of ions     NIONS =    128
   non local maximal  LDIM  =      4   non local SUM 2l+1 LMDIM =      8
   total plane-waves  NPLWV = ******
   max r-space proj   IRMAX =      1   max aug-charges    IRDMAX= 176811
   dimension x,y,z NGX =   120 NGY =  120 NGZ =  120
   dimension x,y,z NGXF=   240 NGYF=  240 NGZF=  240
   support grid    NGXF=   480 NGYF=  480 NGZF=  480
   ions per type =             128
   NGX,Y,Z   is equivalent  to a cutoff of  12.90, 12.90, 12.90 a.u.
   NGXF,Y,Z  is equivalent  to a cutoff of  25.80, 25.80, 25.80 a.u.

 SYSTEM =  potpaw_PBE@./ARUN.APL1ZEROSTATE         
 POSCAR =  kk                                      

 Startparameter for this run:
   NWRITE =      2    write-flag & timer
   PREC   = accura    normal or accurate (medium, high low for compatibility)
   ISTART =      0    job   : 0-new  1-cont  2-samecut
   ICHARG =      2    charge: 1-file 2-atom 10-const
   ISPIN  =      1    spin polarized calculation?
   LNONCOLLINEAR =      F non collinear calculations
   LSORBIT =      F    spin-orbit coupling
   INIWAV =      1    electr: 0-lowe 1-rand  2-diag
   LASPH  =      F    aspherical Exc in radial PAW
   METAGGA=      F    non-selfconsistent MetaGGA calc.

 Electronic Relaxation 1
   ENCUT  =  500.0 eV  36.75 Ry    6.06 a.u.  28.20 28.20 28.20*2*pi/ulx,y,z
   ENINI  =  500.0     initial cutoff
   ENAUG  =  322.1 eV  augmentation charge cutoff
   NELM   =    120;   NELMIN=  4; NELMDL= -5     # of ELM steps 
   EDIFF  = 0.1E-07   stopping-criterion for ELM
   LREAL  =      F    real-space projection
   NLSPLINE    = F    spline interpolate recip. space projectors
   LCOMPAT=      F    compatible to vasp.4.4
   GGA_COMPAT  = T    GGA compatible to vasp.4.4-vasp.4.6
   LMAXPAW     = -100 max onsite density
   LMAXMIX     =    2 max onsite mixed and CHGCAR
   VOSKOWN=      0    Vosko Wilk Nusair interpolation
   ROPT   =    0.00000
 Ionic relaxation
   EDIFFG = 0.1E-06   stopping-criterion for IOM
   NSW    =      0    number of steps for IOM
   NBLOCK =      1;   KBLOCK =      1    inner block; outer block 
   IBRION =     -1    ionic relax: 0-MD 1-quasi-New 2-CG
   NFREE  =      0    steps in history (QN), initial steepest desc. (CG)
   ISIF   =      2    stress and relaxation
   IWAVPR =     10    prediction:  0-non 1-charg 2-wave 3-comb
   ISYM   =      2    0-nonsym 1-usesym 2-fastsym
   LCORR  =      T    Harris-Foulkes like correction to forces

   POTIM  = 0.5000    time-step for ionic-motion
   TEIN   =    0.0    initial temperature
   TEBEG  =    0.0;   TEEND  =   0.0 temperature during run
   SMASS  =  -3.00    Nose mass-parameter (am)
   estimated Nose-frequenzy (Omega)   =  0.10E-29 period in steps =****** mass=  -0.547E-26a.u.
   SCALEE = 1.0000    scale energy and forces
   NPACO  =    256;   APACO  = 16.0  distance and # of slots for P.C.
   PSTRESS=    0.0 pullay stress

  Mass of Ions in am
   POMASS =  28.09
  Ionic Valenz
   ZVAL   =   4.00
  Atomic Wigner-Seitz radii
   RWIGS  =  -1.00
  virtual crystal weights 
   VCA    =   1.00
   NELECT =     512.0000    total number of electrons
   NUPDOWN=      -1.0000    fix difference up-down

 DOS related values:
   EMIN   =  10.00;   EMAX   =-10.00  energy-range for DOS
   EFERMI =   0.00
   ISMEAR =     0;   SIGMA  =   0.01  broadening in eV -4-tet -1-fermi 0-gaus

 Electronic relaxation 2 (details)
   IALGO  =     38    algorithm
   LDIAG  =      T    sub-space diagonalisation (order eigenvalues)
   LSUBROT=      F    optimize rotation matrix (better conditioning)
   TURBO    =      0    0=normal 1=particle mesh
   IRESTART =      0    0=no restart 2=restart with 2 vectors
   NREBOOT  =      0    no. of reboots
   NMIN     =      0    reboot dimension
   EREF     =   0.00    reference energy to select bands
   IMIX   =      4    mixing-type and parameters
     AMIX     =   0.40;   BMIX     =  1.00
     AMIX_MAG =   1.60;   BMIX_MAG =  1.00
     AMIN     =   0.10
     WC   =   100.;   INIMIX=   1;  MIXPRE=   1;  MAXMIX= -45

 Intra band minimization:
   WEIMIN = 0.0000     energy-eigenvalue tresh-hold
   EBREAK =  0.78E-11  absolut break condition
   DEPER  =   0.30     relativ break condition  

   TIME   =   0.40     timestep for ELM

  volume/ion in A,a.u.               =      20.44       137.96
  Fermi-wavevector in a.u.,A,eV,Ry     =   0.950408  1.796010 12.289804  0.903275
  Thomas-Fermi vector in A             =   2.078782
 
 Write flags
   LWAVE        =      F    write WAVECAR
   LDOWNSAMPLE  =      F    k-point downsampling of WAVECAR
   LCHARG       =      F    write CHGCAR
   LVTOT        =      F    write LOCPOT, total local potential
   LVHAR        =      F    write LOCPOT, Hartree potential only
   LELF         =      F    write electronic localiz. function (ELF)
   LORBIT       =      0    0 simple, 1 ext, 2 COOP (PROOUT), +10 PAW based schemes


 Dipole corrections
   LMONO  =      F    monopole corrections only (constant potential shift)
   LDIPOL =      F    correct potential (dipole corrections)
   IDIPOL =      0    1-x, 2-y, 3-z, 4-all directions 
   EPSILON=  1.0000000 bulk dielectric constant

 Exchange correlation treatment:
   GGA     =    --    GGA type
   LEXCH   =     8    internal setting for exchange type
   VOSKOWN=      0    Vosko Wilk Nusair interpolation
   LHFCALC =     F    Hartree Fock is set to
   LHFONE  =     F    Hartree Fock one center treatment
   AEXX    =    0.0000 exact exchange contribution

 Linear response parameters
   LEPSILON=     F    determine dielectric tensor
   LRPA    =     F    only Hartree local field effects (RPA)
   LNABLA  =     F    use nabla operator in PAW spheres
   LVEL    =     F    velocity operator in full k-point grid
   LINTERFAST=   F  fast interpolation
   KINTER  =     0    interpolate to denser k-point grid
   CSHIFT  =0.1000    complex shift for real part using Kramers Kronig
   OMEGAMAX=  -1.0    maximum frequency
   DEG_THRESHOLD= 0.2000000E-02 threshold for treating states as degnerate
   RTIME   =   -0.100 relaxation time in fs
  (WPLASMAI=    0.000 imaginary part of plasma frequency in eV, 0.658/RTIME)
   DFIELD  = 0.0000000 0.0000000 0.0000000 field for delta impulse in time
 
 Orbital magnetization related:
   ORBITALMAG=     F  switch on orbital magnetization
   LCHIMAG   =     F  perturbation theory with respect to B field
   DQ        =  0.001000  dq finite difference perturbation B field
   LLRAUG    =     F  two centre corrections for induced B field



--------------------------------------------------------------------------------------------------------


 Static calculation
 charge density and potential will be updated during run
 non-spin polarized calculation
 Variant of blocked Davidson
 Davidson routine will perform the subspace rotation
 perform sub-space diagonalisation
    after iterative eigenvector-optimisation
 modified Broyden-mixing scheme, WC =      100.0
 initial mixing is a Kerker type mixing with AMIX =  0.4000 and BMIX =      1.0000
 Hartree-type preconditioning will be used
 using additional bands           66
 reciprocal scheme for non local part
 use partial core corrections
 calculate Harris-corrections to forces 
   (improved forces if not selfconsistent)
 use gradient corrections 
 use of overlap-Matrix (Vanderbilt PP)
 Gauss-broadening in eV      SIGMA  =   0.01


--------------------------------------------------------------------------------------------------------


  energy-cutoff  :      500.00
  volume of cell :     2616.76
      direct lattice vectors                 reciprocal lattice vectors
     0.000000000 10.937333691 10.937333691    -0.045714981  0.045714981  0.045714981
    10.937333691  0.000000000 10.937333691     0.045714981 -0.045714981  0.045714981
    10.937333691 10.937333691  0.000000000     0.045714981  0.045714981 -0.045714981

  length of vectors
    15.467725642 15.467725642 15.467725642     0.079180669  0.079180669  0.079180669


 
 k-points in units of 2pi/SCALE and weight: KPOINTS File, automatically generated by
   0.00000000  0.00000000  0.00000000       0.125
  -0.02285749  0.02285749  0.02285749       0.125
   0.02285749 -0.02285749  0.02285749       0.125
   0.00000000  0.00000000  0.04571498       0.125
   0.02285749  0.02285749 -0.02285749       0.125
   0.00000000  0.04571498  0.00000000       0.125
   0.04571498  0.00000000  0.00000000       0.125
   0.02285749  0.02285749  0.02285749       0.125
 
 k-points in reciprocal lattice and weights: KPOINTS File, automatically generated by
   0.00000000  0.00000000  0.00000000       0.125
   0.50000000  0.00000000  0.00000000       0.125
   0.00000000  0.50000000  0.00000000       0.125
   0.50000000  0.50000000  0.00000000       0.125
   0.00000000  0.00000000  0.50000000       0.125
   0.50000000  0.00000000  0.50000000       0.125
   0.00000000  0.50000000  0.50000000       0.125
   0.50000000  0.50000000  0.50000000       0.125
 
 position of ions in fractional coordinates (direct lattice) 
   0.00148858  0.99128018  0.00634185
   0.25440195  0.98805548  0.99645453
   0.50247325  0.00828024  0.98990646
   0.75039846  0.99827667  0.00662571
   0.00799163  0.24704909  0.99731911
   0.25970907  0.23867610  0.00398394
   0.49594798  0.24060845  0.00874921
   0.75101365  0.25464928  0.98990683
   0.01699655  0.49025582  0.99232526
   0.25515494  0.50336546  0.00359903
   0.49172899  0.49690993  0.00419473
   0.74137204  0.51201762  0.99278591
   0.00857173  0.75572098  0.99349153
   0.25548531  0.76064748  0.00079688
   0.49485612  0.75445389  0.00296144
   0.74763898  0.73753700  0.00104283
   0.99985438  0.99904566  0.25230280
   0.25829774  0.00175506  0.24636860
   0.49622339  0.00329016  0.24730912
   0.74422128  0.99567465  0.25909369
   0.00451789  0.24547476  0.25325427
   0.25980481  0.23645356  0.24916316
   0.49215211  0.25485407  0.24443232
   0.74496345  0.25559374  0.24661356
   0.00987293  0.50458557  0.24037557
   0.24721201  0.50883847  0.24117426
   0.51463469  0.49733105  0.24871044
   0.74762499  0.51006656  0.24193896
   0.99305311  0.75809924  0.24865258
   0.24708097  0.75631393  0.24718824
   0.49620872  0.75355979  0.25442908
   0.74761054  0.74940066  0.24781737
   0.00745139  0.99822031  0.49205893
   0.24625827  0.99542188  0.50461898
   0.50087743  0.00893617  0.49181652
   0.76015987  0.00234264  0.49252621
   0.00162041  0.25123958  0.50095479
   0.23260601  0.25510011  0.49825019
   0.49203227  0.26036197  0.49323893
   0.75096936  0.25246557  0.49721806
   0.00773817  0.50346514  0.49999796
   0.25385354  0.49984245  0.51502067
   0.50282451  0.49821389  0.49636158
   0.75531053  0.50505847  0.50439485
   0.99657281  0.75403599  0.49215331
   0.25864754  0.75216824  0.50213782
   0.50411717  0.74819038  0.49361959
   0.74891533  0.74860079  0.50474937
   0.00253883  0.00227624  0.74022310
   0.24419419  0.00818739  0.74540945
   0.49226065  0.00332817  0.75309936
   0.74809912  0.00294463  0.75072215
   0.00347777  0.25681692  0.74639538
   0.23416089  0.25304649  0.76176416
   0.49110205  0.25982060  0.76051518
   0.75843208  0.24600392  0.74498741
   0.99161216  0.50169809  0.74644065
   0.24694249  0.51126293  0.74440833
   0.50527270  0.49239792  0.75040942
   0.75166006  0.49348641  0.76048914
   0.99995214  0.74740525  0.75346460
   0.26430393  0.74464169  0.75314938
   0.49420648  0.76368731  0.75408651
   0.74964205  0.74601388  0.75627780
   0.06842189  0.05671611  0.05937768
   0.32262663  0.05811277  0.05494400
   0.56744180  0.06129972  0.06939529
   0.82175437  0.05684616  0.05852758
   0.05581944  0.30414920  0.07421826
   0.31160981  0.32170067  0.05561310
   0.55722658  0.32056182  0.06460880
   0.81473324  0.30883729  0.06167347
   0.07192043  0.55114787  0.06832657
   0.30897028  0.56411756  0.06982423
   0.56237539  0.56714988  0.05878621
   0.81430974  0.55848835  0.06359366
   0.06344424  0.80709264  0.06973145
   0.31002660  0.81435644  0.06735089
   0.56754444  0.81705638  0.05560017
   0.81659687  0.80762753  0.07343178
   0.05853892  0.06686190  0.30852907
   0.31423706  0.05336402  0.31172644
   0.55707793  0.05832340  0.30511835
   0.81614642  0.05426115  0.30520612
   0.06257477  0.31459543  0.31473049
   0.29649409  0.31282587  0.31787821
   0.56689871  0.30953769  0.30540830
   0.81550820  0.31085543  0.31465145
   0.05612526  0.57017992  0.31255972
   0.30900651  0.56976555  0.30981836
   0.56347014  0.57341485  0.30988164
   0.81555736  0.56041683  0.32112297
   0.06352667  0.81816666  0.31085446
   0.32152953  0.80615803  0.30884240
   0.56039001  0.81935596  0.31225992
   0.80948944  0.81700130  0.30615401
   0.06174373  0.06635715  0.55507750
   0.31720081  0.07031597  0.55432262
   0.55510032  0.06853194  0.57787436
   0.80878505  0.06245405  0.56141084
   0.06028578  0.30911754  0.56992539
   0.31373904  0.30634825  0.56284670
   0.56311729  0.30134897  0.56688691
   0.80778935  0.31537751  0.55865918
   0.06356768  0.56932635  0.56148639
   0.31581136  0.57654901  0.54509460
   0.55627685  0.56316904  0.56629078
   0.82227416  0.55516497  0.56405998
   0.06527282  0.81289643  0.57146650
   0.31926434  0.81412338  0.56091090
   0.55985070  0.80597749  0.57515968
   0.81010230  0.81807388  0.56494397
   0.05677601  0.07627624  0.80454423
   0.31578949  0.05624932  0.80574977
   0.57056008  0.06594996  0.81291124
   0.81902691  0.05917888  0.80256301
   0.05653893  0.31228055  0.81971538
   0.30294148  0.30799540  0.82151365
   0.55417474  0.30522433  0.83395081
   0.82629149  0.30460151  0.80480829
   0.06205945  0.56119560  0.81165378
   0.30970235  0.56632612  0.81571487
   0.56555022  0.56061293  0.80544865
   0.80351830  0.57374756  0.80626517
   0.06483601  0.81501127  0.81604875
   0.31088215  0.80719577  0.82070040
   0.55107384  0.81468268  0.82212887
   0.81063793  0.80859610  0.81614873
 
 position of ions in cartesian coordinates  (Angst):
  10.91132498  0.08564393 10.85824314
  21.70524826 13.68103475 13.58917150
  10.91750095 16.32265482  5.58628129
  10.99095260  8.27982594 19.12584338
  13.61007030 10.99541906  2.78946549
   2.65405386  2.88409842  5.45100495
   2.72730790  5.52004157  8.05596340
  13.61212540 19.04102820 10.99927101
  16.21548397 11.03928946  5.54798845
   5.54483984  2.83007849  8.29619069
   5.48074879  5.42408313 10.81307370
  16.45853843 18.96706426 13.70874102
  19.13172097 10.95990028  8.35932441
   8.32817098  2.80304382 11.11378340
   8.28410416  5.44479678 13.66412047
   8.07809398  8.18858271 16.24386524
  13.68641568 13.69526093 21.86263673
   2.71381119  5.51970410  2.84428418
   2.74088791  8.13226314  5.46334637
  13.72382006 10.97359068 19.02982237
   5.45476574  2.81934010  2.73425303
   5.31135210  5.56675248  5.42774343
   5.46086176  8.05626963  8.17025578
   5.49280878 10.84520856 10.94342780
   8.14788868  2.73705136  5.62680430
   8.20313947  5.34164356  8.26917636
   8.15970470  8.34896033 11.06820696
   8.22493532 10.82319111 13.75579214
  11.01118062 13.58094955 19.15293758
  10.97563810  5.40598738 10.97446486
  11.02471059  8.20997609 13.66913525
  10.90690630 10.88732717 16.37331095
  16.29968141  5.46331106 10.99936696
  16.40644744  8.21259504 13.58067011
   5.47689926 10.85742504  5.57600148
   5.41254570 13.70104564  8.33974432
   8.22700091  5.49683273  2.76561413
   8.23964361  7.99361809  5.33420462
   8.24238442 10.77623980  8.22918677
   8.19954008 13.65184236 10.97490274
  10.97521079  5.55327947  5.59120115
  11.09989657  8.40943377  8.24342457
  10.87800374 10.92843168 10.94869100
  11.04072771 13.77781806 13.78507630
  13.62998824 16.28269432 19.14699258
  13.71876399  8.32096340 11.05562953
  13.58208995 10.91257982 13.69690548
  13.70830892 13.71174915 16.37883343
   8.12096303  8.12383502  0.05266401
   8.24234010 10.82362522  2.76038161
   8.27330030 13.62091806  5.42042028
   8.24310506 16.39310837  8.21441613
  10.97246769  8.20161280  2.84692985
  11.09932276 10.89276462  5.32874976
  11.15975293 13.68935526  8.21309162
  10.83880294 16.44340064 10.98585170
  13.65130991 19.00966350 16.33283249
  13.73369550 10.84273473  8.29274567
  13.59299856 13.73381433 10.91185650
  13.71514906 16.53888044 13.61858241
  16.41551435 19.17770390 19.11143082
  16.38184077 11.12822636 11.03517493
  16.60039873 13.65299703 13.75800408
  16.43106549 16.47074791 16.35848799
   1.26975651  1.39778650  1.36867612
   1.23653965  4.12961600  4.16427382
   1.42945496  6.96529986  6.87675584
   1.26188110  9.62793739  9.60954723
   4.13833117  1.42226571  3.93709704
   4.12680665  4.01643957  6.92672813
   4.21273961  6.80122105  9.60066473
   4.05239978  9.58555261 12.28886572
   6.77539866  1.53392822  6.81470600
   6.93363294  4.14300206  9.54925309
   6.84607189  6.79385175 12.35399477
   6.80391845  9.60192237 15.01475074
   9.59011769  1.45658699  9.52135235
   9.64352726  4.12750355 12.29775246
   9.54453583  6.81554048 15.14384111
   9.63643972  9.73454036 17.76468432
   4.10577630  4.01474512  1.37155053
   3.99311620  6.84637169  4.02057572
   3.97508362  9.43012842  6.73084972
   3.93161346 12.26460688  9.51993795
   6.88314763  4.12671359  4.12523640
   6.89822092  6.71959486  6.66433568
   6.72586953  9.54071282  9.58587735
   6.84137752 12.36093317 12.31941489
   9.65481802  4.03243071  6.85010872
   9.62030273  6.76829412  9.61142330
   9.66090844  9.55213978 12.43449049
   9.64169497 12.43225212 15.04948891
  12.34848080  4.09473134  9.64337413
  12.19513170  6.89458814 12.33389513
  12.37686046  9.54446345 15.09074207
  12.28432442 12.20216465 17.78947199
   6.79683810  6.74637965  1.40108203
   6.83188071  9.53214259  4.23840039
   7.06996141 12.39172216  6.82087413
   6.82341838 14.98628959  9.52903267
   9.61438577  6.89282979  4.04028730
   9.50667515  9.58751073  6.78210156
   9.49618550 12.35923298  9.45495590
   9.55963099 14.94530360 12.28445077
  12.36807620  6.83642489  6.92217316
  12.26779044  9.41601583  9.76004314
  12.35327895 12.27789676 12.24375326
  12.24133681 15.16279906 15.06551142
  15.14123932  6.96423049  9.60483012
  15.03920881  9.62677031 12.39623967
  15.10595808 12.41398732 14.93851864
  15.12652770 15.03933989 17.80790623
   9.63382740  9.42054678  1.45523685
   9.42797159 12.26664908  4.06911256
   9.61239820 15.13148749  6.96172268
   9.42515861 17.73587007  9.60522984
  12.38101719  9.58388570  4.03390167
  12.35381747 12.29854104  6.68202057
  12.45953859 15.18239233  9.39953436
  12.13398515 17.83988263 12.36895412
  15.01531178  9.55609304  6.81674846
  15.11584343 12.30906366  9.58141563
  14.94107134 14.99507213 12.31722215
  15.09365973 17.60673897 15.06361620
  17.83944763  9.63453051  9.62318324
  17.80484361 12.37649589 12.22879126
  17.90235412 15.01917624 14.93773484
  17.77037633 17.79270856 17.71010295
 


--------------------------------------------------------------------------------------------------------


 k-point  1 :   0.0000 0.0000 0.0000  plane waves:   66299
 k-point  2 :   0.5000 0.0000 0.0000  plane waves:   66394
 k-point  3 :   0.0000 0.5000 0.0000  plane waves:   66394
 k-point  4 :   0.5000 0.5000 0.0000  plane waves:   66552
 k-point  5 :   0.0000 0.0000 0.5000  plane waves:   66394
 k-point  6 :   0.5000 0.0000 0.5000  plane waves:   66552
 k-point  7 :   0.0000 0.5000 0.5000  plane waves:   66552
 k-point  8 :   0.5000 0.5000 0.5000  plane waves:   66394

 maximum and minimum number of plane-waves per node :      4207     4110

 maximum number of plane-waves:     66552
 maximum index in each direction: 
   IXMAX=   28   IYMAX=   28   IZMAX=   28
   IXMIN=  -28   IYMIN=  -28   IZMIN=  -28


 parallel 3D FFT for wavefunctions:
    minimum data exchange during FFTs selected (reduces bandwidth)
 parallel 3D FFT for charge:
    minimum data exchange during FFTs selected (reduces bandwidth)


 total amount of memory used by VASP MPI-rank0   221701. kBytes
=======================================================================

   base      :      30000. kBytes
   nonl-proj :      10690. kBytes
   fftplans  :      66746. kBytes
   grid      :      26864. kBytes
   one-center:         24. kBytes
   wavefun   :      87377. kBytes
 
     INWAV:  cpu time    0.0000: real time    0.0002
 Broyden mixing: mesh for mixing (old mesh)
   NGX = 57   NGY = 57   NGZ = 57
  (NGX  =240   NGY  =240   NGZ  =240)
  gives a total of 185193 points

 initial charge density was supplied:
 charge density of overlapping atoms calculated
 number of electron     512.0000000 magnetization 
 keeping initial charge density in first step


--------------------------------------------------------------------------------------------------------


 Maximum index for augmentation-charges         5606 (set IRDMAX)


--------------------------------------------------------------------------------------------------------


 First call to EWALD:  gamma=   0.129
 Maximum number of real-space cells 3x 3x 3
 Maximum number of reciprocal cells 3x 3x 3

    FEWALD:  cpu time    0.0065: real time    0.0065


--------------------------------------- Iteration      1(   1)  ---------------------------------------


    POTLOK:  cpu time    0.4891: real time    0.4977
    SETDIJ:  cpu time    0.5143: real time    0.5144
     EDDAV:  cpu time   70.0076: real time   70.0225
       DOS:  cpu time    0.0030: real time    0.0030
    --------------------------------------------
      LOOP:  cpu time   71.0140: real time   71.0376

 eigenvalue-minimisations  :  5152
 total energy-change (2. order) : 0.1381325E+04  (-0.1908114E+05)
 number of electron     512.0000000 magnetization 
 augmentation part      512.0000000 magnetization 

 Free energy of the ion-electron system (eV)
  ---------------------------------------------------
  alpha Z        PSCENC =       210.77028614
  Ewald energy   TEWEN  =    -14476.11551843
  -Hartree energ DENC   =      -754.81243229
  -exchange      EXHF   =         0.00000000
  -V(xc)+E(xc)   XCENC  =     -1195.42505174
  PAW double counting   =      4221.13331941    -1969.18571412
  entropy T*S    EENTRO =        -0.00186462
  eigenvalues    EBANDS =      2152.48158615
  atomic energy  EATOM  =     13192.48085998
  Solvation  Ediel_sol  =         0.00000000
  ---------------------------------------------------
  free energy    TOTEN  =      1381.32547049 eV

  energy without entropy =     1381.32733512  energy(sigma->0) =     1381.32640280


--------------------------------------------------------------------------------------------------------




--------------------------------------- Iteration      1(   2)  ---------------------------------------


     EDDAV:  cpu time   79.5188: real time   79.5417
       DOS:  cpu time    0.0010: real time    0.0010
    --------------------------------------------
      LOOP:  cpu time   79.5198: real time   79.5427

 eigenvalue-minimisations  :  6088
 total energy-change (2. order) :-0.1918997E+04  (-0.1824124E+04)
 number of electron     512.0000000 magnetization 
 augmentation part      512.0000000 magnetization 

 Free energy of the ion-electron system (eV)
  ---------------------------------------------------
  alpha Z        PSCENC =       210.77028614
  Ewald energy   TEWEN  =    -14476.11551843
  -Hartree energ DENC   =      -754.81243229
  -exchange      EXHF   =         0.00000000
  -V(xc)+E(xc)   XCENC  =     -1195.42505174
  PAW double counting   =      4221.13331941    -1969.18571412
  entropy T*S    EENTRO =        -0.00000000
  eigenvalues    EBANDS =       233.48254821
  atomic energy  EATOM  =     13192.48085998
  Solvation  Ediel_sol  =         0.00000000
  ---------------------------------------------------
  free energy    TOTEN  =      -537.67170282 eV

  energy without entropy =     -537.67170282  energy(sigma->0) =     -537.67170282


--------------------------------------------------------------------------------------------------------




--------------------------------------- Iteration      1(   3)  ---------------------------------------


     EDDAV:  cpu time   81.5074: real time   81.5285
       DOS:  cpu time    0.0017: real time    0.0017
    --------------------------------------------
      LOOP:  cpu time   81.5091: real time   81.5302

 eigenvalue-minimisations  :  6280
 total energy-change (2. order) :-0.1507358E+03  (-0.1477356E+03)
 number of electron     512.0000000 magnetization 
 augmentation part      512.0000000 magnetization 

 Free energy of the ion-electron system (eV)
  ---------------------------------------------------
  alpha Z        PSCENC =       210.77028614
  Ewald energy   TEWEN  =    -14476.11551843
  -Hartree energ DENC   =      -754.81243229
  -exchange      EXHF   =         0.00000000
  -V(xc)+E(xc)   XCENC  =     -1195.42505174
  PAW double counting   =      4221.13331941    -1969.18571412
  entropy T*S    EENTRO =        -0.00000000
  eigenvalues    EBANDS =        82.74679580
  atomic energy  EATOM  =     13192.48085998
  Solvation  Ediel_sol  =         0.00000000
  ---------------------------------------------------
  free energy    TOTEN  =      -688.40745523 eV

  energy without entropy =     -688.40745523  energy(sigma->0) =     -688.40745523


--------------------------------------------------------------------------------------------------------




--------------------------------------- Iteration      1(   4)  ---------------------------------------


     EDDAV:  cpu time   80.5053: real time   80.5331
       DOS:  cpu time    0.0010: real time    0.0010
    --------------------------------------------
      LOOP:  cpu time   80.5063: real time   80.5340

 eigenvalue-minimisations  :  6176
 total energy-change (2. order) :-0.4280281E+01  (-0.4244443E+01)
 number of electron     512.0000000 magnetization 
 augmentation part      512.0000000 magnetization 

 Free energy of the ion-electron system (eV)
  ---------------------------------------------------
  alpha Z        PSCENC =       210.77028614
  Ewald energy   TEWEN  =    -14476.11551843
  -Hartree energ DENC   =      -754.81243229
  -exchange      EXHF   =         0.00000000
  -V(xc)+E(xc)   XCENC  =     -1195.42505174
  PAW double counting   =      4221.13331941    -1969.18571412
  entropy T*S    EENTRO =        -0.00000000
  eigenvalues    EBANDS =        78.46651478
  atomic energy  EATOM  =     13192.48085998
  Solvation  Ediel_sol  =         0.00000000
  ---------------------------------------------------
  free energy    TOTEN  =      -692.68773625 eV

  energy without entropy =     -692.68773625  energy(sigma->0) =     -692.68773625


--------------------------------------------------------------------------------------------------------




--------------------------------------- Iteration      1(   5)  ---------------------------------------


     EDDAV:  cpu time   81.5707: real time   81.5898
       DOS:  cpu time    0.0010: real time    0.0010
    CHARGE:  cpu time    3.0882: real time    3.0886
    MIXING:  cpu time    0.0410: real time    0.0411
    --------------------------------------------
      LOOP:  cpu time   84.7009: real time   84.7205

 eigenvalue-minimisations  :  6280
 total energy-change (2. order) :-0.1525927E+00  (-0.1521549E+00)
 number of electron     511.9999998 magnetization 
 augmentation part      -30.1626008 magnetization 

 Broyden mixing:
  rms(total) = 0.23938E+01    rms(broyden)= 0.23938E+01
  rms(prec ) = 0.28991E+01
  weight for this iteration     100.00

 Free energy of the ion-electron system (eV)
  ---------------------------------------------------
  alpha Z        PSCENC =       210.77028614
  Ewald energy   TEWEN  =    -14476.11551843
  -Hartree energ DENC   =      -754.81243229
  -exchange      EXHF   =         0.00000000
  -V(xc)+E(xc)   XCENC  =     -1195.42505174
  PAW double counting   =      4221.13331941    -1969.18571412
  entropy T*S    EENTRO =        -0.00000000
  eigenvalues    EBANDS =        78.31392205
  atomic energy  EATOM  =     13192.48085998
  Solvation  Ediel_sol  =         0.00000000
  ---------------------------------------------------
  free energy    TOTEN  =      -692.84032898 eV

  energy without entropy =     -692.84032898  energy(sigma->0) =     -692.84032898


--------------------------------------------------------------------------------------------------------




--------------------------------------- Iteration      1(   6)  ---------------------------------------


    POTLOK:  cpu time    0.4940: real time    0.4951
    SETDIJ:  cpu time    0.5049: real time    0.5080
     EDDAV:  cpu time   77.3937: real time   77.4090
       DOS:  cpu time    0.0011: real time    0.0011
    CHARGE:  cpu time    3.0971: real time    3.0975
    MIXING:  cpu time    0.0309: real time    0.0309
    --------------------------------------------
      LOOP:  cpu time   81.5217: real time   81.5417

 eigenvalue-minimisations  :  5888
 total energy-change (2. order) : 0.8325350E+01  (-0.5619478E+00)
 number of electron     511.9999998 magnetization 
 augmentation part      -29.8212270 magnetization 

 Broyden mixing:
  rms(total) = 0.14229E+01    rms(broyden)= 0.14229E+01
  rms(prec ) = 0.17146E+01
  weight for this iteration     100.00

 eigenvalues of (default mixing * dielectric matrix)
  average eigenvalue GAMMA=   2.4343
  2.4343

 Free energy of the ion-electron system (eV)
  ---------------------------------------------------
  alpha Z        PSCENC =       210.77028614
  Ewald energy   TEWEN  =    -14476.11551843
  -Hartree energ DENC   =      -849.85113972
  -exchange      EXHF   =         0.00000000
  -V(xc)+E(xc)   XCENC  =     -1180.76933266
  PAW double counting   =      4464.67357406    -2219.46647448
  entropy T*S    EENTRO =        -0.00000000
  eigenvalues    EBANDS =       173.76276636
  atomic energy  EATOM  =     13192.48085998
  Solvation  Ediel_sol  =         0.00000000
  ---------------------------------------------------
  free energy    TOTEN  =      -684.51497873 eV

  energy without entropy =     -684.51497873  energy(sigma->0) =     -684.51497873


--------------------------------------------------------------------------------------------------------




--------------------------------------- Iteration      1(   7)  ---------------------------------------


    POTLOK:  cpu time    0.4927: real time    0.4941
    SETDIJ:  cpu time    0.5086: real time    0.5086
     EDDAV:  cpu time   76.3184: real time   76.3334
       DOS:  cpu time    0.0010: real time    0.0010
    CHARGE:  cpu time    3.0815: real time    3.0818
    MIXING:  cpu time    0.0433: real time    0.0433
    --------------------------------------------
      LOOP:  cpu time   80.4455: real time   80.4621

 eigenvalue-minimisations  :  5776
 total energy-change (2. order) : 0.3526778E+01  (-0.1090965E+01)
 number of electron     511.9999998 magnetization 
 augmentation part      -29.3715956 magnetization 

 Broyden mixing:
  rms(total) = 0.15185E+00    rms(broyden)= 0.15185E+00
  rms(prec ) = 0.19566E+00
  weight for this iteration     100.00

 eigenvalues of (default mixing * dielectric matrix)
  average eigenvalue GAMMA=   2.1449
  2.1449  2.1449

 Free energy of the ion-electron system (eV)
  ---------------------------------------------------
  alpha Z        PSCENC =       210.77028614
  Ewald energy   TEWEN  =    -14476.11551843
  -Hartree energ DENC   =     -1000.84880720
  -exchange      EXHF   =         0.00000000
  -V(xc)+E(xc)   XCENC  =     -1156.73891461
  PAW double counting   =      4783.78260888    -2547.08972491
  entropy T*S    EENTRO =        -0.00000000
  eigenvalues    EBANDS =       312.77100903
  atomic energy  EATOM  =     13192.48085998
  Solvation  Ediel_sol  =         0.00000000
  ---------------------------------------------------
  free energy    TOTEN  =      -680.98820111 eV

  energy without entropy =     -680.98820111  energy(sigma->0) =     -680.98820111


--------------------------------------------------------------------------------------------------------




--------------------------------------- Iteration      1(   8)  ---------------------------------------


    POTLOK:  cpu time    0.4903: real time    0.4916
    SETDIJ:  cpu time    0.5094: real time    0.5096
     EDDAV:  cpu time   77.8334: real time   77.8603
       DOS:  cpu time    0.0011: real time    0.0011
    CHARGE:  cpu time    3.1039: real time    3.1076
    MIXING:  cpu time    0.0305: real time    0.0305
    --------------------------------------------
      LOOP:  cpu time   81.9686: real time   82.0007

 eigenvalue-minimisations  :  5936
 total energy-change (2. order) :-0.5921526E-01  (-0.9788351E-01)
 number of electron     511.9999998 magnetization 
 augmentation part      -29.4392295 magnetization 

 Broyden mixing:
  rms(total) = 0.58841E-01    rms(broyden)= 0.58841E-01
  rms(prec ) = 0.73369E-01
  weight for this iteration     100.00

 eigenvalues of (default mixing * dielectric matrix)
  average eigenvalue GAMMA=   2.0216
  2.6841  1.6904  1.6904

 Free energy of the ion-electron system (eV)
  ---------------------------------------------------
  alpha Z        PSCENC =       210.77028614
  Ewald energy   TEWEN  =    -14476.11551843
  -Hartree energ DENC   =      -994.43874367
  -exchange      EXHF   =         0.00000000
  -V(xc)+E(xc)   XCENC  =     -1156.85561423
  PAW double counting   =      4735.33053296    -2497.13027208
  entropy T*S    EENTRO =        -0.00000000
  eigenvalues    EBANDS =       304.91105295
  atomic energy  EATOM  =     13192.48085998
  Solvation  Ediel_sol  =         0.00000000
  ---------------------------------------------------
  free energy    TOTEN  =      -681.04741638 eV

  energy without entropy =     -681.04741638  energy(sigma->0) =     -681.04741638


--------------------------------------------------------------------------------------------------------




--------------------------------------- Iteration      1(   9)  ---------------------------------------


    POTLOK:  cpu time    0.4915: real time    0.4928
    SETDIJ:  cpu time    0.5067: real time    0.5069
     EDDAV:  cpu time   78.9816: real time   78.9982
       DOS:  cpu time    0.0011: real time    0.0011
    CHARGE:  cpu time    3.0977: real time    3.0982
    MIXING:  cpu time    0.0315: real time    0.0315
    --------------------------------------------
      LOOP:  cpu time   83.1100: real time   83.1287

 eigenvalue-minimisations  :  6048
 total energy-change (2. order) :-0.2127308E-01  (-0.9892937E-02)
 number of electron     511.9999998 magnetization 
 augmentation part      -29.4437193 magnetization 

 Broyden mixing:
  rms(total) = 0.27684E-01    rms(broyden)= 0.27684E-01
  rms(prec ) = 0.32118E-01
  weight for this iteration     100.00

 eigenvalues of (default mixing * dielectric matrix)
  average eigenvalue GAMMA=   1.8047
  2.5771  0.9351  1.9523  1.7545

 Free energy of the ion-electron system (eV)
  ---------------------------------------------------
  alpha Z        PSCENC =       210.77028614
  Ewald energy   TEWEN  =    -14476.11551843
  -Hartree energ DENC   =     -1000.87652086
  -exchange      EXHF   =         0.00000000
  -V(xc)+E(xc)   XCENC  =     -1155.73876391
  PAW double counting   =      4738.20843449    -2500.09105507
  entropy T*S    EENTRO =        -0.00000000
  eigenvalues    EBANDS =       310.29358819
  atomic energy  EATOM  =     13192.48085998
  Solvation  Ediel_sol  =         0.00000000
  ---------------------------------------------------
  free energy    TOTEN  =      -681.06868945 eV

  energy without entropy =     -681.06868945  energy(sigma->0) =     -681.06868945


--------------------------------------------------------------------------------------------------------




--------------------------------------- Iteration      1(  10)  ---------------------------------------


    POTLOK:  cpu time    0.4898: real time    0.4908
    SETDIJ:  cpu time    0.5087: real time    0.5087
     EDDAV:  cpu time   78.9387: real time   78.9599
       DOS:  cpu time    0.0010: real time    0.0010
    CHARGE:  cpu time    3.1414: real time    3.1417
    MIXING:  cpu time    0.0284: real time    0.0284
    --------------------------------------------
      LOOP:  cpu time   83.1081: real time   83.1306

 eigenvalue-minimisations  :  6040
 total energy-change (2. order) :-0.2553069E-02  (-0.9010311E-03)
 number of electron     511.9999998 magnetization 
 augmentation part      -29.4536604 magnetization 

 Broyden mixing:
  rms(total) = 0.10168E-01    rms(broyden)= 0.10168E-01
  rms(prec ) = 0.12445E-01
  weight for this iteration     100.00

 eigenvalues of (default mixing * dielectric matrix)
  average eigenvalue GAMMA=   1.8590
  2.6726  2.6726  1.5134  1.5134  0.9228

 Free energy of the ion-electron system (eV)
  ---------------------------------------------------
  alpha Z        PSCENC =       210.77028614
  Ewald energy   TEWEN  =    -14476.11551843
  -Hartree energ DENC   =      -999.63871644
  -exchange      EXHF   =         0.00000000
  -V(xc)+E(xc)   XCENC  =     -1155.92042344
  PAW double counting   =      4730.73451631    -2492.42945925
  entropy T*S    EENTRO =        -0.00000000
  eigenvalues    EBANDS =       309.04721260
  atomic energy  EATOM  =     13192.48085998
  Solvation  Ediel_sol  =         0.00000000
  ---------------------------------------------------
  free energy    TOTEN  =      -681.07124252 eV

  energy without entropy =     -681.07124252  energy(sigma->0) =     -681.07124252


--------------------------------------------------------------------------------------------------------




--------------------------------------- Iteration      1(  11)  ---------------------------------------


    POTLOK:  cpu time    0.4921: real time    0.4950
    SETDIJ:  cpu time    0.5082: real time    0.5082
     EDDAV:  cpu time   76.5609: real time   76.6203
       DOS:  cpu time    0.0010: real time    0.0010
    CHARGE:  cpu time    3.1372: real time    3.1408
    MIXING:  cpu time    0.0362: real time    0.0362
    --------------------------------------------
      LOOP:  cpu time   80.7356: real time   80.8015

 eigenvalue-minimisations  :  5800
 total energy-change (2. order) :-0.1305134E-02  (-0.2022992E-03)
 number of electron     511.9999998 magnetization 
 augmentation part      -29.4555896 magnetization 

 Broyden mixing:
  rms(total) = 0.35125E-02    rms(broyden)= 0.35125E-02
  rms(prec ) = 0.49851E-02
  weight for this iteration     100.00

 eigenvalues of (default mixing * dielectric matrix)
  average eigenvalue GAMMA=   1.7840
  2.8406  2.0978  2.0978  1.4906  1.3072  0.8696

 Free energy of the ion-electron system (eV)
  ---------------------------------------------------
  alpha Z        PSCENC =       210.77028614
  Ewald energy   TEWEN  =    -14476.11551843
  -Hartree energ DENC   =      -999.70320616
  -exchange      EXHF   =         0.00000000
  -V(xc)+E(xc)   XCENC  =     -1155.91281206
  PAW double counting   =      4727.24402079    -2488.86161644
  entropy T*S    EENTRO =        -0.00000000
  eigenvalues    EBANDS =       309.02543851
  atomic energy  EATOM  =     13192.48085998
  Solvation  Ediel_sol  =         0.00000000
  ---------------------------------------------------
  free energy    TOTEN  =      -681.07254766 eV

  energy without entropy =     -681.07254766  energy(sigma->0) =     -681.07254766


--------------------------------------------------------------------------------------------------------




--------------------------------------- Iteration      1(  12)  ---------------------------------------


    POTLOK:  cpu time    0.4895: real time    0.4929
    SETDIJ:  cpu time    0.5086: real time    0.5092
     EDDAV:  cpu time   80.2986: real time   80.3653
       DOS:  cpu time    0.0013: real time    0.0013
    CHARGE:  cpu time    3.1446: real time    3.1484
    MIXING:  cpu time    0.0337: real time    0.0337
    --------------------------------------------
      LOOP:  cpu time   84.4762: real time   84.5509

 eigenvalue-minimisations  :  6168
 total energy-change (2. order) :-0.7509662E-04  (-0.4173502E-04)
 number of electron     511.9999998 magnetization 
 augmentation part      -29.4537728 magnetization 

 Broyden mixing:
  rms(total) = 0.17733E-02    rms(broyden)= 0.17733E-02
  rms(prec ) = 0.21346E-02
  weight for this iteration     100.00

 eigenvalues of (default mixing * dielectric matrix)
  average eigenvalue GAMMA=   1.8233
  3.1409  2.6816  1.7638  1.7638  0.8933  1.2597  1.2597

 Free energy of the ion-electron system (eV)
  ---------------------------------------------------
  alpha Z        PSCENC =       210.77028614
  Ewald energy   TEWEN  =    -14476.11551843
  -Hartree energ DENC   =     -1000.27109924
  -exchange      EXHF   =         0.00000000
  -V(xc)+E(xc)   XCENC  =     -1155.85117500
  PAW double counting   =      4728.39088047    -2490.04902842
  entropy T*S    EENTRO =        -0.00000000
  eigenvalues    EBANDS =       309.57217175
  atomic energy  EATOM  =     13192.48085998
  Solvation  Ediel_sol  =         0.00000000
  ---------------------------------------------------
  free energy    TOTEN  =      -681.07262275 eV

  energy without entropy =     -681.07262275  energy(sigma->0) =     -681.07262275


--------------------------------------------------------------------------------------------------------




--------------------------------------- Iteration      1(  13)  ---------------------------------------


    POTLOK:  cpu time    0.4930: real time    0.4937
    SETDIJ:  cpu time    0.5100: real time    0.5108
     EDDAV:  cpu time   76.5297: real time   76.5841
       DOS:  cpu time    0.0010: real time    0.0010
    CHARGE:  cpu time    3.1510: real time    3.1539
    MIXING:  cpu time    0.0364: real time    0.0364
    --------------------------------------------
      LOOP:  cpu time   80.7212: real time   80.7799

 eigenvalue-minimisations  :  5800
 total energy-change (2. order) :-0.2518407E-04  (-0.1017461E-04)
 number of electron     511.9999998 magnetization 
 augmentation part      -29.4538331 magnetization 

 Broyden mixing:
  rms(total) = 0.56133E-03    rms(broyden)= 0.56130E-03
  rms(prec ) = 0.73403E-03
  weight for this iteration     100.00

 eigenvalues of (default mixing * dielectric matrix)
  average eigenvalue GAMMA=   1.7799
  3.1321  2.5056  1.9253  1.9253  1.4064  1.4064  0.9690  0.9690

 Free energy of the ion-electron system (eV)
  ---------------------------------------------------
  alpha Z        PSCENC =       210.77028614
  Ewald energy   TEWEN  =    -14476.11551843
  -Hartree energ DENC   =     -1000.25501971
  -exchange      EXHF   =         0.00000000
  -V(xc)+E(xc)   XCENC  =     -1155.86196562
  PAW double counting   =      4727.83680539    -2489.48361487
  entropy T*S    EENTRO =        -0.00000000
  eigenvalues    EBANDS =       309.55551916
  atomic energy  EATOM  =     13192.48085998
  Solvation  Ediel_sol  =         0.00000000
  ---------------------------------------------------
  free energy    TOTEN  =      -681.07264794 eV

  energy without entropy =     -681.07264794  energy(sigma->0) =     -681.07264794


--------------------------------------------------------------------------------------------------------




--------------------------------------- Iteration      1(  14)  ---------------------------------------


    POTLOK:  cpu time    0.4880: real time    0.4918
    SETDIJ:  cpu time    0.5114: real time    0.5121
     EDDAV:  cpu time   80.4442: real time   80.5039
       DOS:  cpu time    0.0011: real time    0.0011
    CHARGE:  cpu time    3.1453: real time    3.1466
    MIXING:  cpu time    0.0407: real time    0.0407
    --------------------------------------------
      LOOP:  cpu time   84.6308: real time   84.6962

 eigenvalue-minimisations  :  6192
 total energy-change (2. order) :-0.6435634E-05  (-0.1097509E-05)
 number of electron     511.9999998 magnetization 
 augmentation part      -29.4536040 magnetization 

 Broyden mixing:
  rms(total) = 0.17023E-03    rms(broyden)= 0.17016E-03
  rms(prec ) = 0.24228E-03
  weight for this iteration     100.00

 eigenvalues of (default mixing * dielectric matrix)
  average eigenvalue GAMMA=   1.7701
  3.2260  2.6120  2.1268  1.6597  1.6597  0.9312  1.0213  1.3890  1.3054

 Free energy of the ion-electron system (eV)
  ---------------------------------------------------
  alpha Z        PSCENC =       210.77028614
  Ewald energy   TEWEN  =    -14476.11551843
  -Hartree energ DENC   =     -1000.31703422
  -exchange      EXHF   =         0.00000000
  -V(xc)+E(xc)   XCENC  =     -1155.85434931
  PAW double counting   =      4728.01868070    -2489.66995678
  entropy T*S    EENTRO =        -0.00000000
  eigenvalues    EBANDS =       309.61437754
  atomic energy  EATOM  =     13192.48085998
  Solvation  Ediel_sol  =         0.00000000
  ---------------------------------------------------
  free energy    TOTEN  =      -681.07265437 eV

  energy without entropy =     -681.07265437  energy(sigma->0) =     -681.07265437


--------------------------------------------------------------------------------------------------------




--------------------------------------- Iteration      1(  15)  ---------------------------------------


    POTLOK:  cpu time    0.4904: real time    0.4913
    SETDIJ:  cpu time    0.5093: real time    0.5093
     EDDAV:  cpu time   80.4547: real time   80.5107
       DOS:  cpu time    0.0010: real time    0.0010
    CHARGE:  cpu time    3.1407: real time    3.1455
    MIXING:  cpu time    0.0318: real time    0.0318
    --------------------------------------------
      LOOP:  cpu time   84.6280: real time   84.6897

 eigenvalue-minimisations  :  6200
 total energy-change (2. order) :-0.1962720E-05  (-0.1468616E-06)
 number of electron     511.9999998 magnetization 
 augmentation part      -29.4535445 magnetization 

 Broyden mixing:
  rms(total) = 0.69329E-04    rms(broyden)= 0.69154E-04
  rms(prec ) = 0.97356E-04
  weight for this iteration     100.00

 eigenvalues of (default mixing * dielectric matrix)
  average eigenvalue GAMMA=   1.7257
  3.2573  2.5913  2.0854  1.7206  1.7206  1.4554  1.4554  0.9382  0.9382  1.0950

 Free energy of the ion-electron system (eV)
  ---------------------------------------------------
  alpha Z        PSCENC =       210.77028614
  Ewald energy   TEWEN  =    -14476.11551843
  -Hartree energ DENC   =     -1000.33123492
  -exchange      EXHF   =         0.00000000
  -V(xc)+E(xc)   XCENC  =     -1155.85395379
  PAW double counting   =      4728.05068584    -2489.70300071
  entropy T*S    EENTRO =        -0.00000000
  eigenvalues    EBANDS =       309.62921954
  atomic energy  EATOM  =     13192.48085998
  Solvation  Ediel_sol  =         0.00000000
  ---------------------------------------------------
  free energy    TOTEN  =      -681.07265634 eV

  energy without entropy =     -681.07265634  energy(sigma->0) =     -681.07265634


--------------------------------------------------------------------------------------------------------




--------------------------------------- Iteration      1(  16)  ---------------------------------------


    POTLOK:  cpu time    0.4886: real time    0.4921
    SETDIJ:  cpu time    0.5119: real time    0.5121
     EDDAV:  cpu time   78.4855: real time   78.5390
       DOS:  cpu time    0.0011: real time    0.0011
    CHARGE:  cpu time    3.0892: real time    3.0898
    MIXING:  cpu time    0.0336: real time    0.0337
    --------------------------------------------
      LOOP:  cpu time   82.6099: real time   82.6678

 eigenvalue-minimisations  :  5984
 total energy-change (2. order) : 0.1522931E-06  (-0.3086821E-07)
 number of electron     511.9999998 magnetization 
 augmentation part      -29.4535388 magnetization 

 Broyden mixing:
  rms(total) = 0.27235E-04    rms(broyden)= 0.26786E-04
  rms(prec ) = 0.36069E-04
  weight for this iteration     100.00

 eigenvalues of (default mixing * dielectric matrix)
  average eigenvalue GAMMA=   1.6860
  3.2819  2.6169  2.0405  2.0405  1.3737  1.3737  1.4568  1.4568  0.9055  1.0000
  1.0000

 Free energy of the ion-electron system (eV)
  ---------------------------------------------------
  alpha Z        PSCENC =       210.77028614
  Ewald energy   TEWEN  =    -14476.11551843
  -Hartree energ DENC   =     -1000.33244807
  -exchange      EXHF   =         0.00000000
  -V(xc)+E(xc)   XCENC  =     -1155.85370052
  PAW double counting   =      4728.05340794    -2489.70554681
  entropy T*S    EENTRO =        -0.00000000
  eigenvalues    EBANDS =       309.63000357
  atomic energy  EATOM  =     13192.48085998
  Solvation  Ediel_sol  =         0.00000000
  ---------------------------------------------------
  free energy    TOTEN  =      -681.07265618 eV

  energy without entropy =     -681.07265618  energy(sigma->0) =     -681.07265618


--------------------------------------------------------------------------------------------------------




--------------------------------------- Iteration      1(  17)  ---------------------------------------


    POTLOK:  cpu time    0.4926: real time    0.4936
    SETDIJ:  cpu time    0.5059: real time    0.5059
     EDDAV:  cpu time   70.3986: real time   70.4521
       DOS:  cpu time    0.0010: real time    0.0010
    --------------------------------------------
      LOOP:  cpu time   71.3981: real time   71.4526

 eigenvalue-minimisations  :  5192
 total energy-change (2. order) :-0.7687049E-08  (-0.4660637E-08)
 number of electron     511.9999998 magnetization 
 augmentation part      -29.4535388 magnetization 

 Free energy of the ion-electron system (eV)
  ---------------------------------------------------
  alpha Z        PSCENC =       210.77028614
  Ewald energy   TEWEN  =    -14476.11551843
  -Hartree energ DENC   =     -1000.33238861
  -exchange      EXHF   =         0.00000000
  -V(xc)+E(xc)   XCENC  =     -1155.85370622
  PAW double counting   =      4728.05594987    -2489.70804506
  entropy T*S    EENTRO =        -0.00000000
  eigenvalues    EBANDS =       309.62990613
  atomic energy  EATOM  =     13192.48085998
  Solvation  Ediel_sol  =         0.00000000
  ---------------------------------------------------
  free energy    TOTEN  =      -681.07265619 eV

  energy without entropy =     -681.07265619  energy(sigma->0) =     -681.07265619


--------------------------------------------------------------------------------------------------------




 average (electrostatic) potential at core
  the test charge radii are     0.9892
  (the norm of the test charge is              1.0000)
       1 -83.4799       2 -83.5175       3 -83.4599       4 -83.5184       5 -83.6080
       6 -83.4694       7 -83.4316       8 -83.5106       9 -83.6752      10 -83.5415
      11 -83.4043      12 -83.3750      13 -83.5759      14 -83.6028      15 -83.4546
      16 -83.3771      17 -83.5812      18 -83.5626      19 -83.5339      20 -83.4219
      21 -83.5803      22 -83.5015      23 -83.5594      24 -83.5104      25 -83.5408
      26 -83.4421      27 -83.4727      28 -83.4537      29 -83.5434      30 -83.5539
      31 -83.4805      32 -83.4030      33 -83.4731      34 -83.5327      35 -83.4176
      36 -83.4306      37 -83.6184      38 -83.5400      39 -83.5333      40 -83.4907
      41 -83.5628      42 -83.5049      43 -83.3848      44 -83.5161      45 -83.5299
      46 -83.4954      47 -83.5353      48 -83.4280      49 -83.5420      50 -83.4821
      51 -83.5353      52 -83.5413      53 -83.5557      54 -83.5988      55 -83.5424
      56 -83.5809      57 -83.6211      58 -83.5227      59 -83.5082      60 -83.4787
      61 -83.5626      62 -83.5551      63 -83.4808      64 -83.5193      65 -83.5539
      66 -83.5324      67 -83.5727      68 -83.3561      69 -83.5735      70 -83.5799
      71 -83.4503      72 -83.4804      73 -83.5649      74 -83.4398      75 -83.3826
      76 -83.4079      77 -83.4708      78 -83.4143      79 -83.4863      80 -83.4497
      81 -83.6326      82 -83.5264      83 -83.5368      84 -83.5346      85 -83.6064
      86 -83.5733      87 -83.5615      88 -83.5188      89 -83.5115      90 -83.4934
      91 -83.3820      92 -83.4950      93 -83.5820      94 -83.5413      95 -83.6067
      96 -83.3806      97 -83.4756      98 -83.4271      99 -83.4802     100 -83.4628
     101 -83.5866     102 -83.6722     103 -83.5623     104 -83.5133     105 -83.5060
     106 -83.4341     107 -83.5546     108 -83.4213     109 -83.5653     110 -83.5423
     111 -83.4610     112 -83.4217     113 -83.5825     114 -83.4944     115 -83.4610
     116 -83.5206     117 -83.6511     118 -83.4913     119 -83.5689     120 -83.5489
     121 -83.5130     122 -83.4904     123 -83.5009     124 -83.4135     125 -83.5882
     126 -83.5358     127 -83.5437     128 -83.5036
 
 
 
 E-fermi :   5.8746     XC(G=0):  -9.3320     alpha+bet :-11.7321


 k-point     1 :       0.0000    0.0000    0.0000
  band No.  band energies     occupation 
      1      -6.2944      2.00000
      2      -5.7384      2.00000
      3      -5.6792      2.00000
      4      -5.5399      2.00000
      5      -5.5313      2.00000
      6      -5.4958      2.00000
      7      -5.4532      2.00000
      8      -5.4300      2.00000
      9      -5.3675      2.00000
     10      -5.2956      2.00000
     11      -5.2159      2.00000
     12      -5.1931      2.00000
     13      -5.1598      2.00000
     14      -5.1316      2.00000
     15      -5.0868      2.00000
     16      -4.5115      2.00000
     17      -4.4875      2.00000
     18      -4.4142      2.00000
     19      -4.3460      2.00000
     20      -4.3226      2.00000
     21      -4.2991      2.00000
     22      -4.2710      2.00000
     23      -4.2561      2.00000
     24      -4.2117      2.00000
     25      -4.1656      2.00000
     26      -4.1476      2.00000
     27      -4.1044      2.00000
     28      -4.0388      2.00000
     29      -4.0095      2.00000
     30      -3.9901      2.00000
     31      -3.9221      2.00000
     32      -3.8640      2.00000
     33      -3.8306      2.00000
     34      -3.7827      2.00000
     35      -3.7647      2.00000
     36      -3.7022      2.00000
     37      -3.6914      2.00000
     38      -3.6613      2.00000
     39      -3.6386      2.00000
     40      -3.6278      2.00000
     41      -3.6132      2.00000
     42      -3.5899      2.00000
     43      -3.5762      2.00000
     44      -3.5557      2.00000
     45      -3.5128      2.00000
     46      -3.5102      2.00000
     47      -3.4893      2.00000
     48      -3.4514      2.00000
     49      -3.4190      2.00000
     50      -3.3947      2.00000
     51      -3.3795      2.00000
     52      -3.3338      2.00000
     53      -3.3102      2.00000
     54      -3.3063      2.00000
     55      -3.1956      2.00000
     56      -2.3455      2.00000
     57      -2.2838      2.00000
     58      -2.2580      2.00000
     59      -2.2339      2.00000
     60      -2.2107      2.00000
     61      -2.1809      2.00000
     62      -2.1503      2.00000
     63      -2.1180      2.00000
     64      -2.0579      2.00000
     65      -2.0385      2.00000
     66      -2.0078      2.00000
     67      -1.9751      2.00000
     68      -1.9579      2.00000
     69      -1.9495      2.00000
     70      -1.8956      2.00000
     71      -1.8428      2.00000
     72      -1.8084      2.00000
     73      -1.7635      2.00000
     74      -1.3268      2.00000
     75      -1.3033      2.00000
     76      -1.2659      2.00000
     77      -1.2257      2.00000
     78      -1.0528      2.00000
     79      -0.9948      2.00000
     80      -0.9563      2.00000
     81      -0.9399      2.00000
     82      -0.9096      2.00000
     83      -0.8542      2.00000
     84      -0.8316      2.00000
     85      -0.8188      2.00000
     86      -0.7795      2.00000
     87      -0.7704      2.00000
     88      -0.7547      2.00000
     89      -0.7370      2.00000
     90      -0.6966      2.00000
     91      -0.6913      2.00000
     92      -0.6574      2.00000
     93      -0.6422      2.00000
     94      -0.6070      2.00000
     95      -0.5744      2.00000
     96      -0.5504      2.00000
     97      -0.5348      2.00000
     98      -0.4953      2.00000
     99      -0.4780      2.00000
    100      -0.4159      2.00000
    101      -0.3787      2.00000
    102       0.0136      2.00000
    103       0.0417      2.00000
    104       0.0906      2.00000
    105       0.1093      2.00000
    106       0.1393      2.00000
    107       0.1709      2.00000
    108       0.1992      2.00000
    109       0.2150      2.00000
    110       0.2721      2.00000
    111       0.3014      2.00000
    112       0.3183      2.00000
    113       0.3402      2.00000
    114       1.4591      2.00000
    115       1.4798      2.00000
    116       1.5179      2.00000
    117       1.5246      2.00000
    118       1.5555      2.00000
    119       1.5887      2.00000
    120       1.6163      2.00000
    121       1.6279      2.00000
    122       1.6576      2.00000
    123       1.6720      2.00000
    124       1.6822      2.00000
    125       1.7083      2.00000
    126       1.7169      2.00000
    127       1.7512      2.00000
    128       1.7634      2.00000
    129       1.7782      2.00000
    130       1.7878      2.00000
    131       1.8038      2.00000
    132       1.8227      2.00000
    133       1.8254      2.00000
    134       1.8470      2.00000
    135       1.8638      2.00000
    136       1.8657      2.00000
    137       1.8890      2.00000
    138       1.8952      2.00000
    139       1.9105      2.00000
    140       1.9356      2.00000
    141       1.9443      2.00000
    142       1.9527      2.00000
    143       1.9620      2.00000
    144       1.9691      2.00000
    145       1.9927      2.00000
    146       2.0071      2.00000
    147       2.0140      2.00000
    148       2.0167      2.00000
    149       2.0410      2.00000
    150       2.0604      2.00000
    151       2.0671      2.00000
    152       2.0872      2.00000
    153       2.0980      2.00000
    154       2.0990      2.00000
    155       2.1195      2.00000
    156       2.1455      2.00000
    157       2.1480      2.00000
    158       2.1574      2.00000
    159       2.1803      2.00000
    160       2.1892      2.00000
    161       2.2005      2.00000
    162       2.2090      2.00000
    163       2.2296      2.00000
    164       2.2382      2.00000
    165       2.2488      2.00000
    166       2.2680      2.00000
    167       2.2756      2.00000
    168       2.3081      2.00000
    169       2.3317      2.00000
    170       2.3422      2.00000
    171       2.3768      2.00000
    172       2.3966      2.00000
    173       2.4119      2.00000
    174       2.4559      2.00000
    175       2.4816      2.00000
    176       2.7729      2.00000
    177       2.7912      2.00000
    178       2.8071      2.00000
    179       2.8286      2.00000
    180       2.8413      2.00000
    181       2.8847      2.00000
    182       3.1924      2.00000
    183       3.2273      2.00000
    184       3.2535      2.00000
    185       3.2675      2.00000
    186       3.2873      2.00000
    187       3.3241      2.00000
    188       3.3564      2.00000
    189       3.3717      2.00000
    190       3.3868      2.00000
    191       3.4054      2.00000
    192       3.4144      2.00000
    193       3.4537      2.00000
    194       3.4567      2.00000
    195       3.4658      2.00000
    196       3.4730      2.00000
    197       3.4870      2.00000
    198       3.5020      2.00000
    199       3.5255      2.00000
    200       3.5454      2.00000
    201       3.5563      2.00000
    202       3.5887      2.00000
    203       3.5917      2.00000
    204       3.6070      2.00000
    205       3.6489      2.00000
    206       3.6595      2.00000
    207       3.7003      2.00000
    208       3.7192      2.00000
    209       3.7388      2.00000
    210       3.7646      2.00000
    211       3.7833      2.00000
    212       3.8026      2.00000
    213       3.8213      2.00000
    214       3.8591      2.00000
    215       3.9019      2.00000
    216       3.9462      2.00000
    217       3.9675      2.00000
    218       4.1333      2.00000
    219       4.1810      2.00000
    220       4.2108      2.00000
    221       4.2116      2.00000
    222       4.2571      2.00000
    223       4.2838      2.00000
    224       4.3016      2.00000
    225       4.3171      2.00000
    226       4.3551      2.00000
    227       4.3897      2.00000
    228       4.4160      2.00000
    229       4.4252      2.00000
    230       4.4376      2.00000
    231       4.4650      2.00000
    232       4.4977      2.00000
    233       4.5239      2.00000
    234       4.5412      2.00000
    235       4.5680      2.00000
    236       4.6001      2.00000
    237       4.6747      2.00000
    238       4.7047      2.00000
    239       4.7228      2.00000
    240       4.7698      2.00000
    241       4.8269      2.00000
    242       4.8645      2.00000
    243       4.9016      2.00000
    244       4.9265      2.00000
    245       4.9585      2.00000
    246       5.0149      2.00000
    247       5.0421      2.00000
    248       5.0556      2.00000
    249       5.0647      2.00000
    250       5.0886      2.00000
    251       5.1632      2.00000
    252       5.2142      2.00000
    253       5.2650      2.00000
    254       5.6587      2.00000
    255       5.7285      2.00000
    256       5.8041      2.00000
    257       6.1945      0.00000
    258       6.2435      0.00000
    259       6.2496      0.00000
    260       6.2788      0.00000
    261       6.3064      0.00000
    262       6.3450      0.00000
    263       6.5551      0.00000
    264       6.5771      0.00000
    265       6.6203      0.00000
    266       6.6790      0.00000
    267       6.6936      0.00000
    268       6.7098      0.00000
    269       6.8249      0.00000
    270       6.8500      0.00000
    271       6.8804      0.00000
    272       6.8927      0.00000
    273       6.9101      0.00000
    274       6.9295      0.00000
    275       6.9524      0.00000
    276       6.9655      0.00000
    277       6.9702      0.00000
[...]
   0.131E+02 -.121E+02 -.450E+01   -.115E+02 0.109E+02 0.413E+01   -.322E+01 0.115E+01 0.913E+00   -.156E-04 0.164E-04 0.132E-04
   0.759E+01 -.946E-01 0.603E-01   -.691E+01 -.615E+00 -.371E+00   -.144E+01 0.618E+00 0.151E+01   0.360E-05 -.339E-05 -.252E-04
   -.372E+00 -.111E+02 0.127E+01   0.584E+00 0.997E+01 -.784E+00   -.602E+00 0.244E+01 -.104E+00   0.125E-04 0.186E-04 -.147E-04
   -.521E+01 -.375E+01 -.237E+01   0.439E+01 0.363E+01 0.282E+01   0.177E+01 -.176E-01 -.133E+01   0.241E-04 0.238E-04 -.103E-04
   0.170E+02 0.876E+01 -.151E+01   -.156E+02 -.830E+01 0.857E+00   -.321E+01 -.246E+01 0.132E+01   -.269E-04 0.705E-05 0.334E-04
   0.457E+01 -.216E+01 -.596E+00   -.354E+01 0.181E+01 0.178E+00   -.197E+01 0.176E+01 0.738E+00   0.926E-06 0.579E-05 0.726E-05
   -.916E+01 -.567E+01 0.405E+01   0.840E+01 0.453E+01 -.418E+01   0.235E+01 0.229E+01 0.531E+00   0.233E-04 0.730E-05 0.244E-04
   -.104E+02 -.787E+01 -.103E+02   0.103E+02 0.769E+01 0.940E+01   0.214E+01 0.137E+01 0.274E+01   0.207E-04 -.211E-05 0.190E-04
   -.102E+02 0.613E+01 -.439E+01   0.102E+02 -.616E+01 0.380E+01   0.207E+01 0.919E-01 0.162E+01   0.412E-05 0.484E-05 0.407E-04
   -.138E+01 0.447E+01 -.107E+01   0.125E+01 -.390E+01 0.124E+01   -.618E+00 -.206E+00 0.460E+00   -.171E-04 0.348E-05 0.503E-05
   -.581E+01 -.297E+01 -.110E+02   0.537E+01 0.277E+01 0.986E+01   -.268E-01 -.510E-01 0.293E+01   -.207E-04 -.837E-05 0.207E-04
   -.158E+01 0.803E+00 0.773E+01   0.113E+01 -.577E+00 -.682E+01   0.133E+01 -.942E+00 -.165E+01   0.107E-04 0.971E-05 -.163E-04
   -.867E+00 0.776E+01 -.161E+01   0.116E+01 -.707E+01 0.147E+01   -.420E+00 -.204E+01 0.494E+00   -.226E-04 -.629E-05 -.132E-04
   -.436E+01 -.385E+01 0.343E+01   0.379E+01 0.387E+01 -.291E+01   0.277E+00 0.468E+00 0.108E+00   -.431E-04 -.179E-04 0.113E-04
   0.400E+01 -.134E+02 0.730E+01   -.382E+01 0.130E+02 -.709E+01   -.626E+00 0.175E+01 -.446E+00   -.850E-05 0.117E-04 -.493E-05
   0.337E+01 -.574E+01 0.432E+01   -.350E+01 0.592E+01 -.422E+01   -.550E+00 0.384E+00 -.858E+00   -.469E-05 -.851E-05 -.127E-04
   0.737E+01 0.654E-01 0.424E+01   -.682E+01 -.261E+00 -.423E+01   -.167E+01 -.883E+00 0.487E+00   -.264E-04 -.929E-05 0.133E-04
   0.849E+00 -.382E+01 0.430E+01   0.555E-01 0.387E+01 -.391E+01   -.154E+01 -.453E+00 -.973E+00   0.273E-07 -.196E-04 0.324E-05
   -.593E+01 0.590E+01 0.923E+01   0.549E+01 -.517E+01 -.803E+01   0.255E+01 -.184E+01 -.178E+01   0.298E-04 -.106E-04 -.268E-04
   0.289E+01 -.507E+01 -.206E+01   -.292E+01 0.495E+01 0.186E+01   -.834E+00 0.546E-01 0.186E+00   0.862E-05 -.802E-05 -.670E-05
   -.318E+01 -.584E+01 0.991E+01   0.355E+01 0.484E+01 -.933E+01   0.289E-01 0.181E+01 -.189E+01   -.293E-04 -.495E-05 0.249E-04
   0.144E-01 0.315E+01 0.236E+01   -.359E+00 -.301E+01 -.276E+01   0.170E+00 0.632E-02 0.283E+00   0.103E-04 -.137E-04 0.145E-04
   0.326E+01 -.334E+01 -.816E+00   -.338E+01 0.381E+01 0.132E+01   0.194E-01 -.829E+00 -.178E+01   -.524E-05 -.610E-05 0.198E-05
   0.108E+02 0.239E+01 -.985E+01   -.981E+01 -.250E+01 0.943E+01   -.353E+01 -.155E+01 0.200E+01   -.250E-04 -.306E-04 0.112E-04
   -.281E+01 -.358E+01 -.214E+01   0.198E+01 0.259E+01 0.177E+01   0.103E+01 0.212E+01 0.177E+01   0.564E-05 0.187E-04 0.400E-04
   -.487E+01 0.105E+02 -.145E+01   0.407E+01 -.941E+01 0.227E+01   0.150E+01 -.319E+01 -.381E+00   -.252E-04 -.672E-05 -.125E-04
   -.184E+01 0.275E+01 0.147E+01   0.151E+01 -.228E+01 -.554E+00   0.193E+01 -.147E+01 -.174E+01   -.489E-05 -.200E-05 -.126E-04
   -.318E+01 -.136E+01 0.219E+01   0.291E+01 0.758E+00 -.170E+01   0.151E+01 0.830E-01 0.246E+00   -.783E-05 -.773E-05 -.141E-04
   -.190E+01 0.597E+01 -.317E+00   0.215E+01 -.580E+01 -.449E-01   0.189E+00 0.670E+00 0.127E+01   -.238E-04 0.116E-04 -.113E-04
   0.509E+00 -.474E+01 -.721E+01   -.571E+00 0.450E+01 0.699E+01   -.226E+00 0.795E+00 0.465E+00   0.760E-05 0.187E-04 0.326E-04
   -.994E-01 -.944E+01 0.237E+01   -.225E+00 0.856E+01 -.252E+01   0.128E+01 0.369E+01 0.184E+00   0.106E-04 0.820E-05 0.222E-04
   0.565E+01 -.522E+01 0.780E+00   -.570E+01 0.457E+01 -.137E+01   -.104E+01 0.989E+00 0.115E+01   0.126E-05 -.311E-04 -.377E-05
   -.647E+01 -.767E+00 -.108E+01   0.624E+01 0.370E+00 0.917E+00   0.207E+01 0.102E+01 0.741E+00   -.395E-05 0.826E-05 0.191E-04
   0.480E+01 0.228E+01 0.473E+01   -.428E+01 -.213E+01 -.446E+01   -.214E+01 -.112E+01 -.171E+00   -.634E-05 0.323E-05 -.252E-05
   -.695E+01 -.701E+01 0.286E+01   0.600E+01 0.632E+01 -.219E+01   0.118E+01 0.154E+01 -.987E+00   0.306E-05 0.968E-05 -.358E-05
   0.179E+01 0.483E+01 -.466E+01   -.166E+01 -.416E+01 0.489E+01   -.715E+00 -.233E+01 0.104E+01   0.254E-04 -.497E-04 -.179E-06
   -.490E+01 0.825E+00 0.363E+01   0.460E+01 -.143E+01 -.327E+01   -.862E-01 0.616E+00 -.921E+00   -.957E-05 -.162E-05 0.212E-04
   0.664E+00 -.403E+01 0.118E+02   -.873E+00 0.386E+01 -.107E+02   -.353E+00 0.133E+01 -.246E+01   -.125E-04 0.132E-04 -.186E-04
   -.662E+01 0.586E+01 -.710E+01   0.569E+01 -.575E+01 0.658E+01   0.316E+01 -.638E+00 0.151E+00   0.305E-04 0.279E-05 0.438E-05
   0.687E+01 0.122E+02 -.461E+01   -.562E+01 -.107E+02 0.476E+01   -.993E+00 -.372E+01 -.615E+00   0.149E-04 -.447E-04 -.294E-05
   -.521E+01 -.649E+01 0.607E+01   0.435E+01 0.570E+01 -.526E+01   0.236E+01 0.175E+01 -.104E+01   0.664E-05 0.218E-04 0.370E-05
   -.813E+01 0.386E+01 -.360E+01   0.746E+01 -.297E+01 0.380E+01   0.973E+00 -.215E+01 0.477E+00   -.103E-04 0.188E-04 -.258E-05
   0.147E+00 0.101E+02 -.955E+01   0.812E-01 -.914E+01 0.867E+01   0.277E+00 -.135E+01 0.233E+01   -.163E-04 0.181E-04 -.103E-05
   0.806E+01 -.146E+01 -.147E+02   -.742E+01 0.121E+01 0.132E+02   -.226E+01 -.267E+00 0.385E+01   -.106E-04 -.137E-04 -.165E-04
   -.289E+01 0.633E+01 0.720E+01   0.313E+01 -.569E+01 -.694E+01   0.110E+01 -.157E+01 -.827E+00   -.255E-04 0.129E-05 -.191E-04
   0.146E+01 0.383E+01 0.302E+01   -.156E+01 -.315E+01 -.209E+01   -.551E+00 -.140E+01 -.840E+00   0.192E-04 -.139E-04 0.442E-05
   0.794E+01 0.210E+00 0.549E+01   -.757E+01 -.739E+00 -.456E+01   -.146E+01 0.136E+01 -.119E+01   -.636E-05 0.705E-05 -.123E-04
   -.341E+01 0.241E+01 -.437E+01   0.244E+01 -.234E+01 0.371E+01   0.251E+01 0.237E+00 0.704E+00   0.410E-04 -.220E-04 -.160E-04
   0.346E+01 -.455E+01 -.595E+00   -.279E+01 0.433E+01 0.356E+00   -.149E+01 0.224E+01 -.487E+00   0.274E-05 0.354E-04 0.116E-04
   0.702E+01 0.392E+01 -.480E+00   -.624E+01 -.368E+01 0.807E-01   -.233E+01 -.843E+00 0.122E+01   -.863E-05 -.398E-05 0.410E-06
   -.173E+01 0.740E+01 -.217E+01   0.731E+00 -.712E+01 0.221E+01   0.198E+01 -.831E+00 0.169E+01   0.451E-05 -.162E-04 0.174E-04
   0.545E+01 -.424E+01 -.131E+02   -.523E+01 0.353E+01 0.117E+02   -.406E+00 0.141E+01 0.316E+01   0.950E-05 -.192E-04 0.192E-04
   -.306E+01 -.853E+00 -.997E+01   0.274E+01 0.144E+01 0.893E+01   0.644E+00 -.535E+00 0.171E+01   -.274E-05 0.180E-04 0.305E-04
 -----------------------------------------------------------------------------------------------
   -.643E+00 0.423E+00 -.691E-01   0.719E-13 0.135E-12 0.924E-13   0.643E+00 -.423E+00 0.691E-01   -.494E-05 -.154E-04 0.590E-05
 
 
 POSITION                                       TOTAL-FORCE (eV/Angst)
 -----------------------------------------------------------------------------------
     10.91132      0.08564     10.85824        -0.655816     -0.680934      1.256208
     21.70525     13.68103     13.58917         1.310372     -0.840076      1.797057
     10.91750     16.32265      5.58628         0.228581      2.169365     -0.178519
     10.99095      8.27983     19.12584        -1.463430     -0.205959      0.426591
     13.61007     10.99542      2.78947         0.738578      0.195538     -1.744133
      2.65405      2.88410      5.45100         1.438938     -1.305959     -0.348908
      2.72731      5.52004      8.05596         1.944260      0.704915      0.606768
     13.61213     19.04103     10.99927         0.094313      1.078361     -0.745655
     16.21548     11.03929      5.54799         1.572898      0.085949     -1.100747
      5.54484      2.83008      8.29619        -0.370252     -0.842065     -0.097141
      5.48075      5.42408     10.81307         0.315784     -0.486863      2.093170
     16.45854     18.96706     13.70874        -1.042879      1.735852      0.091965
     19.13172     10.95990      8.35932         0.318005      0.987120     -2.109694
      8.32817      2.80304     11.11378        -0.880534     -0.509484     -2.527755
      8.28410      5.44480     13.66412         0.212470      0.694739     -0.210992
      8.07809      8.18858     16.24387         1.160332      0.788514      1.875360
     13.68642     13.69526     21.86264        -0.535318     -0.936375      0.631507
      2.71381      5.51970      2.84428        -1.626450     -1.569334     -1.833379
      2.74089      8.13226      5.46335        -0.610800     -0.041075     -1.243921
     13.72382     10.97359     19.02982        -1.068918     -1.842747      0.411405
      5.45477      2.81934      2.73425         1.491394     -0.413685     -0.144562
      5.31135      5.56675      5.42774         0.803484     -1.609978      0.087573
      5.46086      8.05627      8.17026         0.549062      1.006278     -0.920424
      5.49281     10.84521     10.94343        -1.075217      1.794489      0.205525
      8.14789      2.73705      5.62680         1.636649      0.893088     -2.228451
      8.20314      5.34164      8.26918         1.623961      1.788187     -1.936265
      8.15970      8.34896     11.06821         0.525207     -1.491983     -0.607004
      8.22494     10.82319     13.75579         0.491834      2.142710     -0.611071
     11.01118     13.58095     19.15294         0.377062      1.049985     -0.170687
     10.97564      5.40599     10.97446         0.089504      0.912910     -0.465549
     11.02471      8.20998     13.66914        -1.102217     -0.070881      1.845537
     10.90691     10.88733     16.37331         0.865698      1.345115     -0.731869
     16.29968      5.46331     10.99937         1.093931     -0.239793     -0.817841
     16.40645      8.21260     13.58067         0.279833     -0.097700      1.458524
      5.47690     10.85743      5.57600        -0.063109      1.382858     -0.392966
      5.41255     13.70105      8.33974         0.460835     -1.244949     -1.430354
      8.22700      5.49683      2.76561         0.310092     -0.704606     -0.539436
      8.23964      7.99362      5.33420        -0.507614      2.310621      1.479923
      8.24238     10.77624      8.22919        -0.845725      1.572384     -0.010773
      8.19954     13.65184     10.97490        -0.259152     -0.097348     -1.059034
     10.97521      5.55328      5.59120        -0.807262     -0.152941     -0.738012
     11.09990      8.40943      8.24342        -2.240877     -2.503299     -1.478813
     10.87800     10.92843     10.94869        -0.179923      0.550440     -0.163640
     11.04073     13.77782     13.78508        -0.623362     -1.042752     -1.808444
     13.62999     16.28269     19.14699         1.339272      1.399887      0.293922
     13.71876      8.32096     11.05563         0.290806     -1.816985     -0.077427
     13.58209     10.91258     13.69691         1.338523      1.034590      0.041392
     13.70831     13.71175     16.37883        -0.376670     -0.074373      0.264445
      8.12096      8.12384      0.05266         0.333521      0.637459      0.208603
      8.24234     10.82363      2.76038        -1.211694      0.015664     -0.595861
      8.27330     13.62092      5.42042         0.368936      2.116541      0.507452
      8.24311     16.39311      8.21442        -1.737507      0.232022     -0.212718
     10.97247      8.20161      2.84693         0.215955      0.843759     -0.419054
     11.09932     10.89276      5.32875        -2.390107      0.745989      0.947694
     11.15975     13.68936      8.21309        -1.648410     -0.379667     -0.574350
     10.83880     16.44340     10.98585         0.593207     -0.663930     -0.864452
     13.65131     19.00966     16.33283         0.713354      0.659671      0.359110
     13.73370     10.84273      8.29275        -0.963042      0.507553     -0.258810
     13.59300     13.73381     10.91186         0.842970     -0.385593     -0.670679
     13.71515     16.53888     13.61858        -1.279818     -1.257443     -0.102096
     16.41551     19.17770     19.11143         0.953024      0.424423     -0.035562
     16.38184     11.12823     11.03517         0.152734     -2.029409     -0.646792
     16.60040     13.65300     13.75800        -1.497802      0.313360     -1.784029
     16.43107     16.47075     16.35849         1.163938     -2.217931      1.028610
      1.26976      1.39779      1.36868         0.602900      0.101658     -0.103226
      1.23654      4.12962      4.16427         0.142196     -0.095624     -1.289477
      1.42945      6.96530      6.87676        -1.355377     -1.159644     -0.531004
      1.26188      9.62794      9.60955         1.993326     -0.385897     -0.420618
      4.13833      1.42227      3.93710        -1.153630      0.273422      1.915147
      4.12681      4.01644      6.92673        -0.377317      1.231501     -1.188725
      4.21274      6.80122      9.60066        -2.090139      0.076337     -0.562250
      4.05240      9.58555     12.28887         0.070174     -0.976438      0.789192
      6.77540      1.53393      6.81471        -0.802766     -2.457534      1.584072
      6.93363      4.14300      9.54925        -0.511752     -1.279773      1.989167
      6.84607      6.79385     12.35399         0.355440     -0.426645     -1.150310
      6.80392      9.60192     15.01475        -1.632262     -0.008553      0.543322
      9.59012      1.45659      9.52135        -0.758239     -0.091392      1.196149
      9.64353      4.12750     12.29775        -0.390272      1.266075      0.383798
      9.54454      6.81554     15.14384         0.951466     -0.136960     -0.883297
      9.63644      9.73454     17.76468        -1.831880     -1.999711      0.664632
      4.10578      4.01475      1.37155        -0.935978      1.401194      0.319921
      3.99312      6.84637      4.02058         1.591401      1.152621      0.402854
      3.97508      9.43013      6.73085         2.029765      1.194182      1.833021
      3.93161     12.26461      9.51994         2.021934      0.058605      1.032688
      6.88315      4.12671      4.12524        -0.748540      0.359680      0.625967
      6.89822      6.71959      6.66434        -0.464565     -0.256457      1.809090
      6.72587      9.54071      9.58588         0.873582     -0.716026     -0.741075
      6.84138     12.36093     12.31941        -0.126649     -1.352494      0.354396
      9.65482      4.03243      6.85011        -0.288151      0.480918      0.628666
      9.62030      6.76829      9.61142        -0.436530      1.375900     -0.233194
      9.66091      9.55214     12.43449        -0.689111      0.561203     -0.759153
      9.64169     12.43225     15.04949        -1.115338     -1.079274      0.491652
     12.34848      4.09473      9.64337        -0.634276     -0.401041     -0.585395
     12.19513      6.89459     12.33390         2.097332     -1.118117     -0.574735
     12.37686      9.54446     15.09074        -0.868955     -0.062247     -0.011225
     12.28432     12.20216     17.78947         0.406985      0.810306     -1.303154
      6.79684      6.74638      1.40108        -0.175090      0.143154     -0.110371
      6.83188      9.53214      4.23840        -0.105067     -0.354213     -1.273593
      7.06996     12.39172      6.82087        -2.569100     -1.661279      1.579896
      6.82342     14.98629      9.52903         0.204348      1.137074      1.398952
      9.61439      6.89283      4.04029         0.708379     -2.050512      0.437613
      9.50668      9.58751      6.78210         1.605298     -0.993633     -0.819593
      9.49619     12.35923      9.45496         1.241333     -0.514090      0.735822
      9.55963     14.94530     12.28445         0.446160      0.836485      0.906632
     12.36808      6.83642      6.92217        -0.288344      0.548501      0.249986
     12.26779      9.41602      9.76004         0.959523      2.819999      0.042835
     12.35328     12.27790     12.24375        -1.093496      0.342065      0.559435
     12.24134     15.16280     15.06551         1.842686      0.619184      0.577358
     15.14124      6.96423      9.60483        -1.614244     -0.962954      0.105833
     15.03921      9.62677     12.39624         0.233047      0.852095     -0.323003
     15.10596     12.41399     14.93852        -0.589616     -1.661897      1.272370
     15.12653     15.03934     17.80791        -0.386392      0.011945     -0.558444
      9.63383      9.42055      1.45524        -0.561752      1.160882     -1.307210
      9.42797     12.26665      4.06911         2.231246     -0.524776     -0.366302
      9.61240     15.13149      6.96172         0.255390     -2.304026     -0.455914
      9.42516     17.73587      9.60523         1.503462      0.957026     -0.223127
     12.38102      9.58389      4.03390         0.299981     -1.259690      0.677366
     12.35382     12.29854      6.68202         0.505697     -0.435021      1.444500
     12.45954     15.18239      9.39953        -1.626378     -0.510936      2.329232
     12.13399     17.83988     12.36895         1.344180     -0.932931     -0.575397
     15.01531      9.55609      6.81675        -0.647383     -0.713438      0.090830
     15.11584     12.30906      9.58142        -1.093904      0.829145     -0.267010
     14.94107     14.99507     12.31722         1.531274      0.305939      0.047354
     15.09366     17.60674     15.06362        -0.822040      2.016224     -0.725671
     17.83945      9.63453      9.62318        -1.552420     -0.600044      0.821866
     17.80484     12.37650     12.22879         0.980988     -0.558829      1.737597
     17.90235     15.01918     14.93773        -0.190894      0.703562      1.815596
     17.77038     17.79271     17.71010         0.322946      0.050993      0.667197
 -----------------------------------------------------------------------------------
    total drift:                               -0.000005      0.000005     -0.000005


--------------------------------------------------------------------------------------------------------



  FREE ENERGIE OF THE ION-ELECTRON SYSTEM (eV)
  ---------------------------------------------------
  free  energy   TOTEN  =      -681.07265619 eV

  energy  without entropy=     -681.07265619  energy(sigma->0) =     -681.07265619
 


--------------------------------------------------------------------------------------------------------


    POTLOK:  cpu time    0.9977: real time    0.9979


--------------------------------------------------------------------------------------------------------


     LOOP+:  cpu time 1493.7985: real time 1494.5372
    4ORBIT:  cpu time    0.0000: real time    0.0000

 total amount of memory used by VASP MPI-rank0   221701. kBytes
=======================================================================

   base      :      30000. kBytes
   nonl-proj :      10690. kBytes
   fftplans  :      66746. kBytes
   grid      :      26864. kBytes
   one-center:         24. kBytes
   wavefun   :      87377. kBytes
 
  
  
 General timing and accounting informations for this job:
 ========================================================
  
                  Total CPU time used (sec):     1517.745
                            User time (sec):     1516.762
                          System time (sec):        0.984
                         Elapsed time (sec):     1519.457
  
                   Maximum memory used (kb):      337772.
                   Average memory used (kb):           0.
  
                          Minor page faults:       227135
                          Major page faults:            0
                 Voluntary context switches:         1306
