<?xml version="1.0" encoding="ISO-8859-1"?>
<modeling>
 <generator>
  <i name="program" type="string">vasp </i>
  <i name="version" type="string">5.4.4.18Apr17-6-g9f103f2a35  </i>
  <i name="subversion" type="string">(build Nov 08 2017 09:05:29) complex            parallel </i>
  <i name="platform" type="string">Intel_17.33 </i>
  <i name="date" type="string">2020 07 18 </i>
  <i name="time" type="string">23:08:38 </i>
 </generator>
 <incar>
  <i type="string" name="SYSTEM">potpaw_PBE@./ARUN.APL1ZEROSTATE</i>
  <i type="string" name="PREC">accurate</i>
  <i type="string" name="ALGO">Normal</i>
  <i type="int" name="NSIM">     4</i>
  <i type="logical" name="ADDGRID"> T  </i>
  <i type="int" name="NELM">   120</i>
  <i type="int" name="NELMIN">     4</i>
  <i name="EDIFF">      0.00000001</i>
  <i type="int" name="NSW">     0</i>
  <i type="int" name="ISYM">     2</i>
  <i name="ENMAX">    500.00000000</i>
  <i type="logical" name="LREAL"> F  </i>
  <i type="logical" name="LPLANE"> T  </i>
  <i type="int" name="ISMEAR">     0</i>
  <i name="SIGMA">      0.01000000</i>
  <i type="logical" name="LWAVE"> F  </i>
  <i type="logical" name="LCHARG"> F  </i>
  <i type="logical" name="LELF"> F  </i>
  <i type="logical" name="LAECHG"> F  </i>
  <v type="int" name="KPOINT_BSE">    -1     0     0     0</v>
  <i type="int" name="NELM">   120</i>
 </incar>
 <structure name="primitive_cell" >
  <crystal>
   <varray name="basis" >
    <v>       0.00000000      10.93733369      10.93733369 </v>
    <v>      10.93733369       0.00000000      10.93733369 </v>
    <v>      10.93733369      10.93733369       0.00000000 </v>
   </varray>
   <i name="volume">   2616.76295363 </i>
   <varray name="rec_basis" >
    <v>      -0.04571498       0.04571498       0.04571498 </v>
    <v>       0.04571498      -0.04571498       0.04571498 </v>
    <v>       0.04571498       0.04571498      -0.04571498 </v>
   </varray>
  </crystal>
  <varray name="positions" >
   <v>       0.00148858      -0.00871982       0.00634185 </v>
   <v>      -0.17824563       0.05684616       0.05852758 </v>
   <v>       0.06344424      -0.19290736       0.06973145 </v>
   <v>       0.06842189       0.05671611       0.05937768 </v>
   <v>       0.05677601       0.07627624      -0.19545577 </v>
   <v>      -0.00694689      -0.24190076       0.24865258 </v>
   <v>       0.00857173      -0.24427902      -0.00650847 </v>
   <v>       0.25548531      -0.23935252       0.00079688 </v>
   <v>       0.25440195      -0.01194452      -0.00354547 </v>
   <v>      -0.24960154      -0.00172333       0.00662571 </v>
   <v>      -0.00014562      -0.00095434       0.25230280 </v>
   <v>       0.24419419       0.00818739      -0.25459055 </v>
   <v>       0.00799163       0.24704909      -0.00268089 </v>
   <v>      -0.25577872      -0.00432535       0.25909369 </v>
   <v>      -0.24898635       0.25464928      -0.01009317 </v>
   <v>       0.00253883       0.00227624      -0.25977690 </v>
   <v>       0.00347777       0.25681692      -0.25360462 </v>
   <v>      -0.18385358       0.05426115       0.30520612 </v>
   <v>      -0.19051056      -0.18299870       0.30615401 </v>
   <v>       0.06483601      -0.18498873      -0.18395125 </v>
   <v>      -0.18340313      -0.19237247       0.07343178 </v>
   <v>       0.06352667      -0.18183334       0.31085446 </v>
   <v>       0.31002660      -0.18564356       0.06735089 </v>
   <v>       0.31088215      -0.19280423      -0.17929960 </v>
   <v>      -0.18526676       0.30883729       0.06167347 </v>
   <v>      -0.17370851       0.30460151      -0.19519171 </v>
   <v>       0.31578949       0.05624932      -0.19425023 </v>
   <v>       0.05653893       0.31228055      -0.18028462 </v>
   <v>      -0.18097309       0.05917888      -0.19743699 </v>
   <v>       0.24708097      -0.24368607       0.24718824 </v>
   <v>       0.23416089       0.25304649      -0.23823584 </v>
   <v>      -0.25238946      -0.25059934       0.24781737 </v>
   <v>       0.26430393      -0.25535831      -0.24685062 </v>
   <v>      -0.24156792       0.24600392      -0.25501259 </v>
   <v>      -0.25503655       0.25559374       0.24661356 </v>
   <v>       0.05612526      -0.42982008       0.31255972 </v>
   <v>       0.30897028      -0.43588244       0.06982423 </v>
   <v>      -0.43255820       0.06129972       0.06939529 </v>
   <v>       0.05853892       0.06686190       0.30852907 </v>
   <v>       0.05581944       0.30414920       0.07421826 </v>
   <v>       0.07192043      -0.44885213       0.06832657 </v>
   <v>      -0.44292207       0.05832340       0.30511835 </v>
   <v>       0.06028578       0.30911754      -0.43007461 </v>
   <v>       0.32262663       0.05811277       0.05494400 </v>
   <v>      -0.44277342       0.32056182       0.06460880 </v>
   <v>       0.06174373       0.06635715      -0.44492250 </v>
   <v>       0.31720081       0.07031597      -0.44567738 </v>
   <v>       0.24721201      -0.49116153       0.24117426 </v>
   <v>       0.00987293      -0.49541443       0.24037557 </v>
   <v>      -0.00342719      -0.24596401       0.49215331 </v>
   <v>       0.49420648      -0.23631269      -0.24591349 </v>
   <v>       0.25515494      -0.49663454       0.00359903 </v>
   <v>      -0.23984013       0.00234264       0.49252621 </v>
   <v>       0.49485612      -0.24554611       0.00296144 </v>
   <v>       0.49226065       0.00332817      -0.24690064 </v>
   <v>      -0.25108467      -0.25139921      -0.49525063 </v>
   <v>      -0.00004786      -0.25259475      -0.24653540 </v>
   <v>      -0.24833994       0.49348641      -0.23951086 </v>
   <v>       0.24625827      -0.00457812      -0.49538102 </v>
   <v>      -0.25190088       0.00294463      -0.24927785 </v>
   <v>       0.49622339       0.00329016       0.24730912 </v>
   <v>       0.00451789       0.24547476       0.25325427 </v>
   <v>       0.25829774       0.00175506       0.24636860 </v>
   <v>       0.25970907       0.23867610       0.00398394 </v>
   <v>       0.23260601       0.25510011       0.49825019 </v>
   <v>       0.49594798       0.24060845       0.00874921 </v>
   <v>       0.00162041       0.25123958      -0.49904521 </v>
   <v>       0.49215211       0.25485407       0.24443232 </v>
   <v>      -0.00838784      -0.49830191      -0.25355935 </v>
   <v>      -0.25236102      -0.26246300       0.00104283 </v>
   <v>      -0.25862796      -0.48798238      -0.00721409 </v>
   <v>       0.30900651      -0.43023445       0.30981836 </v>
   <v>      -0.44892616      -0.18531732      -0.17787113 </v>
   <v>       0.30970235      -0.43367388      -0.18428513 </v>
   <v>      -0.18444264      -0.43958317       0.32112297 </v>
   <v>      -0.43960999      -0.18064404       0.31225992 </v>
   <v>      -0.43310129       0.30953769       0.30540830 </v>
   <v>       0.30294148       0.30799540      -0.17848635 </v>
   <v>      -0.18989770      -0.18192612      -0.43505603 </v>
   <v>       0.32152953      -0.19384197       0.30884240 </v>
   <v>      -0.44582526       0.30522433      -0.16604919 </v>
   <v>       0.31926434      -0.18587662      -0.43908910 </v>
   <v>      -0.18936207      -0.19140390      -0.18385127 </v>
   <v>      -0.18449180       0.31085543       0.31465145 </v>
   <v>       0.31373904       0.30634825      -0.43715330 </v>
   <v>      -0.19221065       0.31537751      -0.44134082 </v>
   <v>      -0.19648170      -0.42625244      -0.19373483 </v>
   <v>       0.00773817      -0.49653486       0.49999796 </v>
   <v>       0.00745139      -0.00177969       0.49205893 </v>
   <v>       0.49172899       0.49690993       0.00419473 </v>
   <v>      -0.49912257       0.00893617       0.49181652 </v>
   <v>      -0.49752675       0.00828024      -0.01009354 </v>
   <v>       0.01699655       0.49025582      -0.00767474 </v>
   <v>       0.06527282      -0.18710357      -0.42853350 </v>
   <v>       0.06356768      -0.43067365      -0.43851361 </v>
   <v>      -0.42943992       0.06594996      -0.18708876 </v>
   <v>      -0.43762461      -0.43285012       0.05878621 </v>
   <v>      -0.43245556      -0.18294362       0.05560017 </v>
   <v>      -0.44014930      -0.19402251      -0.42484032 </v>
   <v>      -0.17772584      -0.44483503      -0.43594002 </v>
   <v>      -0.44489968       0.06853194      -0.42212564 </v>
   <v>      -0.19121495       0.06245405      -0.43858916 </v>
   <v>      -0.18569026      -0.44151165       0.06359366 </v>
   <v>       0.06205945      -0.43880440      -0.18834622 </v>
   <v>      -0.43444978      -0.43938707      -0.19455135 </v>
   <v>      -0.24468947      -0.49494153      -0.49560515 </v>
   <v>      -0.25237501      -0.48993344       0.24193896 </v>
   <v>       0.24694249      -0.48873707      -0.25559167 </v>
   <v>      -0.49588283      -0.25180962       0.49361959 </v>
   <v>       0.25864754      -0.24783176      -0.49786218 </v>
   <v>       0.49620872      -0.24644021       0.25442908 </v>
   <v>      -0.48536531       0.49733105       0.24871044 </v>
   <v>      -0.24903064       0.25246557       0.49721806 </v>
   <v>      -0.49472730       0.49239792      -0.24959058 </v>
   <v>       0.49203227       0.26036197       0.49323893 </v>
   <v>       0.49110205       0.25982060      -0.23948482 </v>
   <v>       0.25385354       0.49984245      -0.48497933 </v>
   <v>       0.31160981       0.32170067       0.05561310 </v>
   <v>       0.29649409       0.31282587       0.31787821 </v>
   <v>       0.06257477       0.31459543       0.31473049 </v>
   <v>       0.31423706       0.05336402       0.31172644 </v>
   <v>       0.25980481       0.23645356       0.24916316 </v>
   <v>      -0.25035795      -0.25398612      -0.24372220 </v>
   <v>       0.31581136      -0.42345099      -0.45490540 </v>
   <v>      -0.43652986      -0.42658515       0.30988164 </v>
   <v>      -0.44372315      -0.43683096      -0.43370922 </v>
   <v>      -0.43688271       0.30134897      -0.43311309 </v>
   <v>      -0.49717549       0.49821389       0.49636158 </v>
  </varray>
 </structure>
 <varray name="primitive_index" >
  <v type="int" >        1 </v>
  <v type="int" >       68 </v>
  <v type="int" >       77 </v>
  <v type="int" >       65 </v>
  <v type="int" >      113 </v>
  <v type="int" >       29 </v>
  <v type="int" >       13 </v>
  <v type="int" >       14 </v>
  <v type="int" >        2 </v>
  <v type="int" >        4 </v>
  <v type="int" >       17 </v>
  <v type="int" >       50 </v>
  <v type="int" >        5 </v>
  <v type="int" >       20 </v>
  <v type="int" >        8 </v>
  <v type="int" >       49 </v>
  <v type="int" >       53 </v>
  <v type="int" >       84 </v>
  <v type="int" >       96 </v>
  <v type="int" >      125 </v>
  <v type="int" >       80 </v>
  <v type="int" >       93 </v>
  <v type="int" >       78 </v>
  <v type="int" >      126 </v>
  <v type="int" >       72 </v>
  <v type="int" >      120 </v>
  <v type="int" >      114 </v>
  <v type="int" >      117 </v>
  <v type="int" >      116 </v>
  <v type="int" >       30 </v>
  <v type="int" >       54 </v>
  <v type="int" >       32 </v>
  <v type="int" >       62 </v>
  <v type="int" >       56 </v>
  <v type="int" >       24 </v>
  <v type="int" >       89 </v>
  <v type="int" >       74 </v>
  <v type="int" >       67 </v>
  <v type="int" >       81 </v>
  <v type="int" >       69 </v>
  <v type="int" >       73 </v>
  <v type="int" >       83 </v>
  <v type="int" >      101 </v>
  <v type="int" >       66 </v>
  <v type="int" >       71 </v>
  <v type="int" >       97 </v>
  <v type="int" >       98 </v>
  <v type="int" >       26 </v>
  <v type="int" >       25 </v>
  <v type="int" >       45 </v>
  <v type="int" >       63 </v>
  <v type="int" >       10 </v>
  <v type="int" >       36 </v>
  <v type="int" >       15 </v>
  <v type="int" >       51 </v>
  <v type="int" >       48 </v>
  <v type="int" >       61 </v>
  <v type="int" >       60 </v>
  <v type="int" >       34 </v>
  <v type="int" >       52 </v>
  <v type="int" >       19 </v>
  <v type="int" >       21 </v>
  <v type="int" >       18 </v>
  <v type="int" >        6 </v>
  <v type="int" >       38 </v>
  <v type="int" >        7 </v>
  <v type="int" >       37 </v>
  <v type="int" >       23 </v>
  <v type="int" >       57 </v>
  <v type="int" >       16 </v>
  <v type="int" >       12 </v>
  <v type="int" >       90 </v>
  <v type="int" >      127 </v>
  <v type="int" >      122 </v>
  <v type="int" >       92 </v>
  <v type="int" >       95 </v>
  <v type="int" >       87 </v>
  <v type="int" >      118 </v>
  <v type="int" >      112 </v>
  <v type="int" >       94 </v>
  <v type="int" >      119 </v>
  <v type="int" >      110 </v>
  <v type="int" >      128 </v>
  <v type="int" >       88 </v>
  <v type="int" >      102 </v>
  <v type="int" >      104 </v>
  <v type="int" >      124 </v>
  <v type="int" >       41 </v>
  <v type="int" >       33 </v>
  <v type="int" >       11 </v>
  <v type="int" >       35 </v>
  <v type="int" >        3 </v>
  <v type="int" >        9 </v>
  <v type="int" >      109 </v>
  <v type="int" >      105 </v>
  <v type="int" >      115 </v>
  <v type="int" >       75 </v>
  <v type="int" >       79 </v>
  <v type="int" >      111 </v>
  <v type="int" >      108 </v>
  <v type="int" >       99 </v>
  <v type="int" >      100 </v>
  <v type="int" >       76 </v>
  <v type="int" >      121 </v>
  <v type="int" >      123 </v>
  <v type="int" >       44 </v>
  <v type="int" >       28 </v>
  <v type="int" >       58 </v>
  <v type="int" >       47 </v>
  <v type="int" >       46 </v>
  <v type="int" >       31 </v>
  <v type="int" >       27 </v>
  <v type="int" >       40 </v>
  <v type="int" >       59 </v>
  <v type="int" >       39 </v>
  <v type="int" >       55 </v>
  <v type="int" >       42 </v>
  <v type="int" >       70 </v>
  <v type="int" >       86 </v>
  <v type="int" >       85 </v>
  <v type="int" >       82 </v>
  <v type="int" >       22 </v>
  <v type="int" >       64 </v>
  <v type="int" >      106 </v>
  <v type="int" >       91 </v>
  <v type="int" >      107 </v>
  <v type="int" >      103 </v>
  <v type="int" >       43 </v>
 </varray>
 <kpoints>
  <generation param="Gamma">
   <v type="int" name="divisions">       2        2        2 </v>
   <v name="usershift">      0.00000000       0.00000000       0.00000000 </v>
   <v name="genvec1">      0.50000000       0.00000000       0.00000000 </v>
   <v name="genvec2">      0.00000000       0.50000000       0.00000000 </v>
   <v name="genvec3">      0.00000000       0.00000000       0.50000000 </v>
   <v name="shift">      0.00000000       0.00000000       0.00000000 </v>
  </generation>
  <varray name="kpointlist" >
   <v>       0.00000000       0.00000000       0.00000000 </v>
   <v>       0.50000000       0.00000000       0.00000000 </v>
   <v>       0.00000000       0.50000000       0.00000000 </v>
   <v>       0.50000000       0.50000000       0.00000000 </v>
   <v>       0.00000000       0.00000000       0.50000000 </v>
   <v>       0.50000000       0.00000000       0.50000000 </v>
   <v>       0.00000000       0.50000000       0.50000000 </v>
   <v>       0.50000000       0.50000000       0.50000000 </v>
  </varray>
  <varray name="weights" >
   <v>       0.12500000 </v>
   <v>       0.12500000 </v>
   <v>       0.12500000 </v>
   <v>       0.12500000 </v>
   <v>       0.12500000 </v>
   <v>       0.12500000 </v>
   <v>       0.12500000 </v>
   <v>       0.12500000 </v>
  </varray>
 </kpoints>
 <parameters>
  <separator name="general" >
   <i type="string" name="SYSTEM">potpaw_PBE@./ARUN.APL1ZEROSTATE</i>
   <i type="logical" name="LCOMPAT"> F  </i>
  </separator>
  <separator name="electronic" >
   <i type="string" name="PREC">accura</i>
   <i name="ENMAX">    500.00000000</i>
   <i name="ENAUG">    322.06900000</i>
   <i name="EDIFF">      0.00000001</i>
   <i type="int" name="IALGO">    38</i>
   <i type="int" name="IWAVPR">    10</i>
   <i type="int" name="NBANDS">   322</i>
   <i name="NELECT">    512.00000000</i>
   <i type="int" name="TURBO">     0</i>
   <i type="int" name="IRESTART">     0</i>
   <i type="int" name="NREBOOT">     0</i>
   <i type="int" name="NMIN">     0</i>
   <i name="EREF">      0.00000000</i>
   <separator name="electronic smearing" >
    <i type="int" name="ISMEAR">     0</i>
    <i name="SIGMA">      0.01000000</i>
    <i name="KSPACING">      0.50000000</i>
    <i type="logical" name="KGAMMA"> T  </i>
   </separator>
   <separator name="electronic projectors" >
    <i type="logical" name="LREAL"> F  </i>
    <v name="ROPT">      0.00000000</v>
    <i type="int" name="LMAXPAW">  -100</i>
    <i type="int" name="LMAXMIX">     2</i>
    <i type="logical" name="NLSPLINE"> F  </i>
   </separator>
   <separator name="electronic startup" >
    <i type="int" name="ISTART">     0</i>
    <i type="int" name="ICHARG">     2</i>
    <i type="int" name="INIWAV">     1</i>
   </separator>
   <separator name="electronic spin" >
    <i type="int" name="ISPIN">     1</i>
    <i type="logical" name="LNONCOLLINEAR"> F  </i>
    <v name="MAGMOM">      1.00000000      1.00000000      1.00000000      1.00000000      1.00000000      1.00000000      1.00000000      1.00000000      1.00000000      1.00000000      1.00000000      1.00000000      1.00000000      1.00000000      1.00000000      1.00000000      1.00000000      1.00000000      1.00000000      1.00000000
      1.00000000      1.00000000      1.00000000      1.00000000      1.00000000      1.00000000      1.00000000      1.00000000      1.00000000      1.00000000      1.00000000      1.00000000      1.00000000      1.00000000      1.00000000      1.00000000      1.00000000      1.00000000      1.00000000      1.00000000
      1.00000000      1.00000000      1.00000000      1.00000000      1.00000000      1.00000000      1.00000000      1.00000000      1.00000000      1.00000000      1.00000000      1.00000000      1.00000000      1.00000000      1.00000000      1.00000000      1.00000000      1.00000000      1.00000000      1.00000000
      1.00000000      1.00000000      1.00000000      1.00000000      1.00000000      1.00000000      1.00000000      1.00000000      1.00000000      1.00000000      1.00000000      1.00000000      1.00000000      1.00000000      1.00000000      1.00000000      1.00000000      1.00000000      1.00000000      1.00000000
      1.00000000      1.00000000      1.00000000      1.00000000      1.00000000      1.00000000      1.00000000      1.00000000      1.00000000      1.00000000      1.00000000      1.00000000      1.00000000      1.00000000      1.00000000      1.00000000      1.00000000      1.00000000      1.00000000      1.00000000
      1.00000000      1.00000000      1.00000000      1.00000000      1.00000000      1.00000000      1.00000000      1.00000000      1.00000000      1.00000000      1.00000000      1.00000000      1.00000000      1.00000000      1.00000000      1.00000000      1.00000000      1.00000000      1.00000000      1.00000000
      1.00000000      1.00000000      1.00000000      1.00000000      1.00000000      1.00000000      1.00000000      1.00000000</v>
    <i name="NUPDOWN">     -1.00000000</i>
    <i type="logical" name="LSORBIT"> F  </i>
    <v name="SAXIS">      0.00000000      0.00000000      1.00000000</v>
    <i type="logical" name="LSPIRAL"> F  </i>
    <v name="QSPIRAL">      0.00000000      0.00000000      0.00000000</v>
    <i type="logical" name="LZEROZ"> F  </i>
   </separator>
   <separator name="electronic exchange-correlation" >
    <i type="logical" name="LASPH"> F  </i>
    <i type="logical" name="LMETAGGA"> F  </i>
   </separator>
   <separator name="electronic convergence" >
    <i type="int" name="NELM">   120</i>
    <i type="int" name="NELMDL">    -5</i>
    <i type="int" name="NELMIN">     4</i>
    <i name="ENINI">    500.00000000</i>
    <separator name="electronic convergence detail" >
     <i type="logical" name="LDIAG"> T  </i>
     <i type="logical" name="LSUBROT"> F  </i>
     <i name="WEIMIN">      0.00000000</i>
     <i name="EBREAK">      0.00000000</i>
     <i name="DEPER">      0.30000000</i>
     <i type="int" name="NRMM">     4</i>
     <i name="TIME">      0.40000000</i>
    </separator>
   </separator>
   <separator name="electronic mixer" >
    <i name="AMIX">      0.40000000</i>
    <i name="BMIX">      1.00000000</i>
    <i name="AMIN">      0.10000000</i>
    <i name="AMIX_MAG">      1.60000000</i>
    <i name="BMIX_MAG">      1.00000000</i>
    <separator name="electronic mixer details" >
     <i type="int" name="IMIX">     4</i>
     <i type="logical" name="MIXFIRST"> F  </i>
     <i type="int" name="MAXMIX">   -45</i>
     <i name="WC">    100.00000000</i>
     <i type="int" name="INIMIX">     1</i>
     <i type="int" name="MIXPRE">     1</i>
     <i type="int" name="MREMOVE">     5</i>
    </separator>
   </separator>
   <separator name="electronic dipolcorrection" >
    <i type="logical" name="LDIPOL"> F  </i>
    <i type="logical" name="LMONO"> F  </i>
    <i type="int" name="IDIPOL">     0</i>
    <i name="EPSILON">      1.00000000</i>
    <v name="DIPOL">   -100.00000000   -100.00000000   -100.00000000</v>
    <i name="EFIELD">      0.00000000</i>
   </separator>
  </separator>
  <separator name="grids" >
   <i type="int" name="NGX">   120</i>
   <i type="int" name="NGY">   120</i>
   <i type="int" name="NGZ">   120</i>
   <i type="int" name="NGXF">   240</i>
   <i type="int" name="NGYF">   240</i>
   <i type="int" name="NGZF">   240</i>
   <i type="logical" name="ADDGRID"> T  </i>
  </separator>
  <separator name="ionic" >
   <i type="int" name="NSW">     0</i>
   <i type="int" name="IBRION">    -1</i>
   <i type="int" name="MDALGO">     0</i>
   <i type="int" name="ISIF">     2</i>
   <i name="PSTRESS">      0.00000000</i>
   <i name="EDIFFG">      0.00000010</i>
   <i type="int" name="NFREE">     0</i>
   <i name="POTIM">      0.50000000</i>
   <i name="SMASS">     -3.00000000</i>
   <i name="SCALEE">      1.00000000</i>
  </separator>
  <separator name="ionic md" >
   <i name="TEBEG">      0.00010000</i>
   <i name="TEEND">      0.00010000</i>
   <i type="int" name="NBLOCK">     1</i>
   <i type="int" name="KBLOCK">     1</i>
   <i type="int" name="NPACO">   256</i>
   <i name="APACO">     16.00000000</i>
  </separator>
  <separator name="symmetry" >
   <i type="int" name="ISYM">     2</i>
   <i name="SYMPREC">      0.00001000</i>
  </separator>
  <separator name="dos" >
   <i type="int" name="LORBIT">     0</i>
   <v name="RWIGS">     -1.00000000</v>
   <i type="int" name="NEDOS">   301</i>
   <i name="EMIN">     10.00000000</i>
   <i name="EMAX">    -10.00000000</i>
   <i name="EFERMI">      0.00000000</i>
  </separator>
  <separator name="writing" >
   <i type="int" name="NWRITE">     2</i>
   <i type="logical" name="LWAVE"> F  </i>
   <i type="logical" name="LDOWNSAMPLE"> F  </i>
   <i type="logical" name="LCHARG"> F  </i>
   <i type="logical" name="LPARD"> F  </i>
   <i type="logical" name="LVTOT"> F  </i>
   <i type="logical" name="LVHAR"> F  </i>
   <i type="logical" name="LELF"> F  </i>
   <i type="logical" name="LOPTICS"> F  </i>
   <v name="STM">      0.00000000      0.00000000      0.00000000      0.00000000      0.00000000      0.00000000      0.00000000</v>
  </separator>
  <separator name="performance" >
   <i type="int" name="NPAR">     2</i>
   <i type="int" name="NSIM">     4</i>
   <i type="int" name="NBLK">    -1</i>
   <i type="logical" name="LPLANE"> T  </i>
   <i type="logical" name="LSCALAPACK"> T  </i>
   <i type="logical" name="LSCAAWARE"> F  </i>
   <i type="logical" name="LSCALU"> F  </i>
   <i type="logical" name="LASYNC"> F  </i>
   <i type="logical" name="LORBITALREAL"> F  </i>
  </separator>
  <separator name="miscellaneous" >
   <i type="int" name="IDIOT">     3</i>
   <i type="int" name="ISPECIAL">     0</i>
   <i type="logical" name="LMUSIC"> F  </i>
   <v name="POMASS">     28.08500000</v>
   <v name="DARWINR">      0.00000000</v>
   <v name="DARWINV">      1.00000000</v>
   <i type="logical" name="LCORR"> T  </i>
  </separator>
  <i type="logical" name="GGA_COMPAT"> T  </i>
  <i type="logical" name="LBERRY"> F  </i>
  <i type="int" name="ICORELEVEL">     0</i>
  <i type="logical" name="LDAU"> F  </i>
  <i type="int" name="I_CONSTRAINED_M">     0</i>
  <separator name="electronic exchange-correlation" >
   <i type="string" name="GGA">--</i>
   <i type="int" name="VOSKOWN">     0</i>
   <i type="logical" name="LHFCALC"> F  </i>
   <i type="string" name="PRECFOCK"></i>
   <i type="logical" name="LSYMGRAD"> F  </i>
   <i type="logical" name="LHFONE"> F  </i>
   <i type="logical" name="LRHFCALC"> F  </i>
   <i type="logical" name="LTHOMAS"> F  </i>
   <i type="logical" name="LMODELHF"> F  </i>
   <i name="ENCUT4O">     -1.00000000</i>
   <i type="int" name="EXXOEP">     0</i>
   <i type="int" name="FOURORBIT">     0</i>
   <i name="AEXX">      0.00000000</i>
   <i name="HFALPHA">      0.00000000</i>
   <i name="MCALPHA">      0.00000000</i>
   <i name="ALDAX">      1.00000000</i>
   <i name="AGGAX">      1.00000000</i>
   <i name="ALDAC">      1.00000000</i>
   <i name="AGGAC">      1.00000000</i>
   <i type="int" name="NKREDX">     1</i>
   <i type="int" name="NKREDY">     1</i>
   <i type="int" name="NKREDZ">     1</i>
   <i type="logical" name="SHIFTRED"> F  </i>
   <i type="logical" name="ODDONLY"> F  </i>
   <i type="logical" name="EVENONLY"> F  </i>
   <i type="int" name="LMAXFOCK">     0</i>
   <i type="int" name="NMAXFOCKAE">     0</i>
   <i type="logical" name="LFOCKAEDFT"> F  </i>
   <i name="HFSCREEN">      0.00000000</i>
   <i name="HFSCREENC">      0.00000000</i>
   <i type="int" name="NBANDSGWLOW">     0</i>
  </separator>
  <separator name="vdW DFT" >
   <i type="logical" name="LUSE_VDW"> F  </i>
   <i name="Zab_VDW">     -0.84910000</i>
   <i name="PARAM1">      0.12340000</i>
   <i name="PARAM2">      1.00000000</i>
   <i name="PARAM3">      0.00000000</i>
  </separator>
  <separator name="model GW" >
   <i type="int" name="MODEL_GW">     0</i>
   <i name="MODEL_EPS0">     12.26607635</i>
   <i name="MODEL_ALPHA">      1.00000000</i>
  </separator>
  <separator name="linear response parameters" >
   <i type="logical" name="LEPSILON"> F  </i>
   <i type="logical" name="LRPA"> F  </i>
   <i type="logical" name="LNABLA"> F  </i>
   <i type="logical" name="LVEL"> F  </i>
   <i type="int" name="KINTER">     0</i>
   <i name="CSHIFT">      0.10000000</i>
   <i name="OMEGAMAX">     -1.00000000</i>
   <i name="DEG_THRESHOLD">      0.00200000</i>
   <i name="RTIME">     -0.10000000</i>
   <i name="WPLASMAI">      0.00000000</i>
   <v name="DFIELD">      0.00000000      0.00000000      0.00000000</v>
   <v name="WPLASMA">      0.00000000      0.00000000      0.00000000      0.00000000      0.00000000      0.00000000      0.00000000      0.00000000      0.00000000</v>
  </separator>
  <separator name="orbital magnetization" >
   <i type="logical" name="NUCIND"> F  </i>
   <v name="MAGPOS">      0.00000000      0.00000000      0.00000000</v>
   <i type="logical" name="LNICSALL"> T  </i>
   <i type="logical" name="ORBITALMAG"> F  </i>
   <i type="logical" name="LMAGBLOCH"> F  </i>
   <i type="logical" name="LCHIMAG"> F  </i>
   <i type="logical" name="LGAUGE"> T  </i>
   <i type="int" name="MAGATOM">     0</i>
   <v name="MAGDIPOL">      0.00000000      0.00000000      0.00000000</v>
   <v name="AVECCONST">      0.00000000      0.00000000      0.00000000</v>
  </separator>
  <separator name="response functions" >
   <i type="logical" name="LADDER"> F  </i>
   <i type="logical" name="LRPAFORCE"> F  </i>
   <i type="logical" name="LFXC"> F  </i>
   <i type="logical" name="LHARTREE"> T  </i>
   <i type="int" name="IBSE">     0</i>
   <v type="int" name="KPOINT">    -1     0     0     0</v>
   <i type="logical" name="LTCTE"> F  </i>
   <i type="logical" name="LTETE"> F  </i>
   <i type="logical" name="LTRIPLET"> F  </i>
   <i type="logical" name="LFXCEPS"> F  </i>
   <i type="logical" name="LFXHEG"> F  </i>
   <i type="int" name="NATURALO">     2</i>
   <i type="logical" name="L2ORDER"> F  </i>
   <i type="logical" name="LMP2LT"> F  </i>
   <i type="logical" name="LUSEW"> F  </i>
   <i name="ENCUTGW">     -2.00000000</i>
   <i name="ENCUTGWSOFT">     -2.00000000</i>
   <i name="ENCUTLF">     -1.00000000</i>
   <i type="int" name="LMAXMP2">    -1</i>
   <i name="SCISSOR">      0.00000000</i>
   <i type="int" name="NOMEGA">     0</i>
   <i type="int" name="NOMEGAR">     0</i>
   <i type="int" name="NBANDSGW">    -1</i>
   <i type="int" name="NBANDSO">    -1</i>
   <i type="int" name="NBANDSV">    -1</i>
   <i type="int" name="NELM">   120</i>
   <i type="int" name="NELMHF">     1</i>
   <i type="int" name="DIM">     3</i>
   <i type="int" name="ANTIRES">     0</i>
   <i name="OMEGAMAX">    -30.00000000</i>
   <i name="OMEGAMIN">    -30.00000000</i>
   <i name="OMEGATL">   -200.00000000</i>
   <i type="int" name="OMEGAGRID">   140</i>
   <i name="CSHIFT">     -0.10000000</i>
   <i type="logical" name="SELFENERGY"> F  </i>
   <i type="logical" name="LSPECTRAL"> F  </i>
   <i type="logical" name="LSPECTRALGW"> F  </i>
   <i type="logical" name="LSINGLES"> F  </i>
   <i type="logical" name="LFERMIGW"> F  </i>
   <i type="logical" name="ODDONLYGW"> F  </i>
   <i type="logical" name="EVENONLYGW"> F  </i>
   <i type="int" name="NKREDLFX">     1</i>
   <i type="int" name="NKREDLFY">     1</i>
   <i type="int" name="NKREDLFZ">     1</i>
   <i type="int" name="MAXMEM">  2800</i>
   <i type="int" name="TELESCOPE">     0</i>
   <i type="int" name="TAUPAR">     1</i>
   <i type="int" name="OMEGAPAR">    -1</i>
   <i name="LAMBDA">      1.00000000</i>
  </separator>
  <separator name="External order field" >
   <i name="OFIELD_KAPPA">      0.00000000</i>
   <v name="OFIELD_K">      0.00000000      0.00000000      0.00000000</v>
   <i name="OFIELD_Q6_NEAR">      0.00000000</i>
   <i name="OFIELD_Q6_FAR">      0.00000000</i>
   <i name="OFIELD_A">      0.00000000</i>
  </separator>
 </parameters>
 <atominfo>
  <atoms>     128 </atoms>
  <types>       1 </types>
  <array name="atoms" >
   <dimension dim="1">ion</dimension>
   <field type="string">element</field>
   <field type="int">atomtype</field>
   <set>
    <rc><c>Si</c><c>   1</c></rc>
    <rc><c>Si</c><c>   1</c></rc>
    <rc><c>Si</c><c>   1</c></rc>
    <rc><c>Si</c><c>   1</c></rc>
    <rc><c>Si</c><c>   1</c></rc>
    <rc><c>Si</c><c>   1</c></rc>
    <rc><c>Si</c><c>   1</c></rc>
    <rc><c>Si</c><c>   1</c></rc>
    <rc><c>Si</c><c>   1</c></rc>
    <rc><c>Si</c><c>   1</c></rc>
    <rc><c>Si</c><c>   1</c></rc>
    <rc><c>Si</c><c>   1</c></rc>
    <rc><c>Si</c><c>   1</c></rc>
    <rc><c>Si</c><c>   1</c></rc>
    <rc><c>Si</c><c>   1</c></rc>
    <rc><c>Si</c><c>   1</c></rc>
    <rc><c>Si</c><c>   1</c></rc>
    <rc><c>Si</c><c>   1</c></rc>
    <rc><c>Si</c><c>   1</c></rc>
    <rc><c>Si</c><c>   1</c></rc>
    <rc><c>Si</c><c>   1</c></rc>
    <rc><c>Si</c><c>   1</c></rc>
    <rc><c>Si</c><c>   1</c></rc>
    <rc><c>Si</c><c>   1</c></rc>
    <rc><c>Si</c><c>   1</c></rc>
    <rc><c>Si</c><c>   1</c></rc>
    <rc><c>Si</c><c>   1</c></rc>
    <rc><c>Si</c><c>   1</c></rc>
    <rc><c>Si</c><c>   1</c></rc>
    <rc><c>Si</c><c>   1</c></rc>
    <rc><c>Si</c><c>   1</c></rc>
    <rc><c>Si</c><c>   1</c></rc>
    <rc><c>Si</c><c>   1</c></rc>
    <rc><c>Si</c><c>   1</c></rc>
    <rc><c>Si</c><c>   1</c></rc>
    <rc><c>Si</c><c>   1</c></rc>
    <rc><c>Si</c><c>   1</c></rc>
    <rc><c>Si</c><c>   1</c></rc>
    <rc><c>Si</c><c>   1</c></rc>
    <rc><c>Si</c><c>   1</c></rc>
    <rc><c>Si</c><c>   1</c></rc>
    <rc><c>Si</c><c>   1</c></rc>
    <rc><c>Si</c><c>   1</c></rc>
    <rc><c>Si</c><c>   1</c></rc>
    <rc><c>Si</c><c>   1</c></rc>
    <rc><c>Si</c><c>   1</c></rc>
    <rc><c>Si</c><c>   1</c></rc>
    <rc><c>Si</c><c>   1</c></rc>
    <rc><c>Si</c><c>   1</c></rc>
    <rc><c>Si</c><c>   1</c></rc>
    <rc><c>Si</c><c>   1</c></rc>
    <rc><c>Si</c><c>   1</c></rc>
    <rc><c>Si</c><c>   1</c></rc>
    <rc><c>Si</c><c>   1</c></rc>
    <rc><c>Si</c><c>   1</c></rc>
    <rc><c>Si</c><c>   1</c></rc>
    <rc><c>Si</c><c>   1</c></rc>
    <rc><c>Si</c><c>   1</c></rc>
    <rc><c>Si</c><c>   1</c></rc>
    <rc><c>Si</c><c>   1</c></rc>
    <rc><c>Si</c><c>   1</c></rc>
    <rc><c>Si</c><c>   1</c></rc>
    <rc><c>Si</c><c>   1</c></rc>
    <rc><c>Si</c><c>   1</c></rc>
    <rc><c>Si</c><c>   1</c></rc>
    <rc><c>Si</c><c>   1</c></rc>
    <rc><c>Si</c><c>   1</c></rc>
    <rc><c>Si</c><c>   1</c></rc>
    <rc><c>Si</c><c>   1</c></rc>
    <rc><c>Si</c><c>   1</c></rc>
    <rc><c>Si</c><c>   1</c></rc>
    <rc><c>Si</c><c>   1</c></rc>
    <rc><c>Si</c><c>   1</c></rc>
    <rc><c>Si</c><c>   1</c></rc>
    <rc><c>Si</c><c>   1</c></rc>
    <rc><c>Si</c><c>   1</c></rc>
    <rc><c>Si</c><c>   1</c></rc>
    <rc><c>Si</c><c>   1</c></rc>
    <rc><c>Si</c><c>   1</c></rc>
    <rc><c>Si</c><c>   1</c></rc>
    <rc><c>Si</c><c>   1</c></rc>
    <rc><c>Si</c><c>   1</c></rc>
    <rc><c>Si</c><c>   1</c></rc>
    <rc><c>Si</c><c>   1</c></rc>
    <rc><c>Si</c><c>   1</c></rc>
    <rc><c>Si</c><c>   1</c></rc>
    <rc><c>Si</c><c>   1</c></rc>
    <rc><c>Si</c><c>   1</c></rc>
    <rc><c>Si</c><c>   1</c></rc>
    <rc><c>Si</c><c>   1</c></rc>
    <rc><c>Si</c><c>   1</c></rc>
    <rc><c>Si</c><c>   1</c></rc>
    <rc><c>Si</c><c>   1</c></rc>
    <rc><c>Si</c><c>   1</c></rc>
    <rc><c>Si</c><c>   1</c></rc>
    <rc><c>Si</c><c>   1</c></rc>
    <rc><c>Si</c><c>   1</c></rc>
    <rc><c>Si</c><c>   1</c></rc>
    <rc><c>Si</c><c>   1</c></rc>
    <rc><c>Si</c><c>   1</c></rc>
    <rc><c>Si</c><c>   1</c></rc>
    <rc><c>Si</c><c>   1</c></rc>
    <rc><c>Si</c><c>   1</c></rc>
    <rc><c>Si</c><c>   1</c></rc>
    <rc><c>Si</c><c>   1</c></rc>
    <rc><c>Si</c><c>   1</c></rc>
    <rc><c>Si</c><c>   1</c></rc>
    <rc><c>Si</c><c>   1</c></rc>
    <rc><c>Si</c><c>   1</c></rc>
    <rc><c>Si</c><c>   1</c></rc>
    <rc><c>Si</c><c>   1</c></rc>
    <rc><c>Si</c><c>   1</c></rc>
    <rc><c>Si</c><c>   1</c></rc>
    <rc><c>Si</c><c>   1</c></rc>
    <rc><c>Si</c><c>   1</c></rc>
    <rc><c>Si</c><c>   1</c></rc>
    <rc><c>Si</c><c>   1</c></rc>
    <rc><c>Si</c><c>   1</c></rc>
    <rc><c>Si</c><c>   1</c></rc>
    <rc><c>Si</c><c>   1</c></rc>
    <rc><c>Si</c><c>   1</c></rc>
    <rc><c>Si</c><c>   1</c></rc>
    <rc><c>Si</c><c>   1</c></rc>
    <rc><c>Si</c><c>   1</c></rc>
    <rc><c>Si</c><c>   1</c></rc>
    <rc><c>Si</c><c>   1</c></rc>
    <rc><c>Si</c><c>   1</c></rc>
    <rc><c>Si</c><c>   1</c></rc>
   </set>
  </array>
  <array name="atomtypes" >
   <dimension dim="1">type</dimension>
   <field type="int">atomspertype</field>
   <field type="string">element</field>
   <field>mass</field>
   <field>valence</field>
   <field type="string">pseudopotential</field>
   <set>
    <rc><c> 128</c><c>Si</c><c>     28.08500000</c><c>      4.00000000</c><c> PAW_PBE Si 05Jan2001                   </c></rc>
   </set>
  </array>
 </atominfo>
 <structure name="initialpos" >
  <crystal>
   <varray name="basis" >
    <v>       0.00000000      10.93733369      10.93733369 </v>
    <v>      10.93733369       0.00000000      10.93733369 </v>
    <v>      10.93733369      10.93733369       0.00000000 </v>
   </varray>
   <i name="volume">   2616.76295363 </i>
   <varray name="rec_basis" >
    <v>      -0.04571498       0.04571498       0.04571498 </v>
    <v>       0.04571498      -0.04571498       0.04571498 </v>
    <v>       0.04571498       0.04571498      -0.04571498 </v>
   </varray>
  </crystal>
  <varray name="positions" >
   <v>       0.00148858       0.99128018       0.00634185 </v>
   <v>       0.25440195       0.98805548       0.99645453 </v>
   <v>       0.50247325       0.00828024       0.98990646 </v>
   <v>       0.75039846       0.99827667       0.00662571 </v>
   <v>       0.00799163       0.24704909       0.99731911 </v>
   <v>       0.25970907       0.23867610       0.00398394 </v>
   <v>       0.49594798       0.24060845       0.00874921 </v>
   <v>       0.75101365       0.25464928       0.98990683 </v>
   <v>       0.01699655       0.49025582       0.99232526 </v>
   <v>       0.25515494       0.50336546       0.00359903 </v>
   <v>       0.49172899       0.49690993       0.00419473 </v>
   <v>       0.74137204       0.51201762       0.99278591 </v>
   <v>       0.00857173       0.75572098       0.99349153 </v>
   <v>       0.25548531       0.76064748       0.00079688 </v>
   <v>       0.49485612       0.75445389       0.00296144 </v>
   <v>       0.74763898       0.73753700       0.00104283 </v>
   <v>       0.99985438       0.99904566       0.25230280 </v>
   <v>       0.25829774       0.00175506       0.24636860 </v>
   <v>       0.49622339       0.00329016       0.24730912 </v>
   <v>       0.74422128       0.99567465       0.25909369 </v>
   <v>       0.00451789       0.24547476       0.25325427 </v>
   <v>       0.25980481       0.23645356       0.24916316 </v>
   <v>       0.49215211       0.25485407       0.24443232 </v>
   <v>       0.74496345       0.25559374       0.24661356 </v>
   <v>       0.00987293       0.50458557       0.24037557 </v>
   <v>       0.24721201       0.50883847       0.24117426 </v>
   <v>       0.51463469       0.49733105       0.24871044 </v>
   <v>       0.74762499       0.51006656       0.24193896 </v>
   <v>       0.99305311       0.75809924       0.24865258 </v>
   <v>       0.24708097       0.75631393       0.24718824 </v>
   <v>       0.49620872       0.75355979       0.25442908 </v>
   <v>       0.74761054       0.74940066       0.24781737 </v>
   <v>       0.00745139       0.99822031       0.49205893 </v>
   <v>       0.24625827       0.99542188       0.50461898 </v>
   <v>       0.50087743       0.00893617       0.49181652 </v>
   <v>       0.76015987       0.00234264       0.49252621 </v>
   <v>       0.00162041       0.25123958       0.50095479 </v>
   <v>       0.23260601       0.25510011       0.49825019 </v>
   <v>       0.49203227       0.26036197       0.49323893 </v>
   <v>       0.75096936       0.25246557       0.49721806 </v>
   <v>       0.00773817       0.50346514       0.49999796 </v>
   <v>       0.25385354       0.49984245       0.51502067 </v>
   <v>       0.50282451       0.49821389       0.49636158 </v>
   <v>       0.75531053       0.50505847       0.50439485 </v>
   <v>       0.99657281       0.75403599       0.49215331 </v>
   <v>       0.25864754       0.75216824       0.50213782 </v>
   <v>       0.50411717       0.74819038       0.49361959 </v>
   <v>       0.74891533       0.74860079       0.50474937 </v>
   <v>       0.00253883       0.00227624       0.74022310 </v>
   <v>       0.24419419       0.00818739       0.74540945 </v>
   <v>       0.49226065       0.00332817       0.75309936 </v>
   <v>       0.74809912       0.00294463       0.75072215 </v>
   <v>       0.00347777       0.25681692       0.74639538 </v>
   <v>       0.23416089       0.25304649       0.76176416 </v>
   <v>       0.49110205       0.25982060       0.76051518 </v>
   <v>       0.75843208       0.24600392       0.74498741 </v>
   <v>       0.99161216       0.50169809       0.74644065 </v>
   <v>       0.24694249       0.51126293       0.74440833 </v>
   <v>       0.50527270       0.49239792       0.75040942 </v>
   <v>       0.75166006       0.49348641       0.76048914 </v>
   <v>       0.99995214       0.74740525       0.75346460 </v>
   <v>       0.26430393       0.74464169       0.75314938 </v>
   <v>       0.49420648       0.76368731       0.75408651 </v>
   <v>       0.74964205       0.74601388       0.75627780 </v>
   <v>       0.06842189       0.05671611       0.05937768 </v>
   <v>       0.32262663       0.05811277       0.05494400 </v>
   <v>       0.56744180       0.06129972       0.06939529 </v>
   <v>       0.82175437       0.05684616       0.05852758 </v>
   <v>       0.05581944       0.30414920       0.07421826 </v>
   <v>       0.31160981       0.32170067       0.05561310 </v>
   <v>       0.55722658       0.32056182       0.06460880 </v>
   <v>       0.81473324       0.30883729       0.06167347 </v>
   <v>       0.07192043       0.55114787       0.06832657 </v>
   <v>       0.30897028       0.56411756       0.06982423 </v>
   <v>       0.56237539       0.56714988       0.05878621 </v>
   <v>       0.81430974       0.55848835       0.06359366 </v>
   <v>       0.06344424       0.80709264       0.06973145 </v>
   <v>       0.31002660       0.81435644       0.06735089 </v>
   <v>       0.56754444       0.81705638       0.05560017 </v>
   <v>       0.81659687       0.80762753       0.07343178 </v>
   <v>       0.05853892       0.06686190       0.30852907 </v>
   <v>       0.31423706       0.05336402       0.31172644 </v>
   <v>       0.55707793       0.05832340       0.30511835 </v>
   <v>       0.81614642       0.05426115       0.30520612 </v>
   <v>       0.06257477       0.31459543       0.31473049 </v>
   <v>       0.29649409       0.31282587       0.31787821 </v>
   <v>       0.56689871       0.30953769       0.30540830 </v>
   <v>       0.81550820       0.31085543       0.31465145 </v>
   <v>       0.05612526       0.57017992       0.31255972 </v>
   <v>       0.30900651       0.56976555       0.30981836 </v>
   <v>       0.56347014       0.57341485       0.30988164 </v>
   <v>       0.81555736       0.56041683       0.32112297 </v>
   <v>       0.06352667       0.81816666       0.31085446 </v>
   <v>       0.32152953       0.80615803       0.30884240 </v>
   <v>       0.56039001       0.81935596       0.31225992 </v>
   <v>       0.80948944       0.81700130       0.30615401 </v>
   <v>       0.06174373       0.06635715       0.55507750 </v>
   <v>       0.31720081       0.07031597       0.55432262 </v>
   <v>       0.55510032       0.06853194       0.57787436 </v>
   <v>       0.80878505       0.06245405       0.56141084 </v>
   <v>       0.06028578       0.30911754       0.56992539 </v>
   <v>       0.31373904       0.30634825       0.56284670 </v>
   <v>       0.56311729       0.30134897       0.56688691 </v>
   <v>       0.80778935       0.31537751       0.55865918 </v>
   <v>       0.06356768       0.56932635       0.56148639 </v>
   <v>       0.31581136       0.57654901       0.54509460 </v>
   <v>       0.55627685       0.56316904       0.56629078 </v>
   <v>       0.82227416       0.55516497       0.56405998 </v>
   <v>       0.06527282       0.81289643       0.57146650 </v>
   <v>       0.31926434       0.81412338       0.56091090 </v>
   <v>       0.55985070       0.80597749       0.57515968 </v>
   <v>       0.81010230       0.81807388       0.56494397 </v>
   <v>       0.05677601       0.07627624       0.80454423 </v>
   <v>       0.31578949       0.05624932       0.80574977 </v>
   <v>       0.57056008       0.06594996       0.81291124 </v>
   <v>       0.81902691       0.05917888       0.80256301 </v>
   <v>       0.05653893       0.31228055       0.81971538 </v>
   <v>       0.30294148       0.30799540       0.82151365 </v>
   <v>       0.55417474       0.30522433       0.83395081 </v>
   <v>       0.82629149       0.30460151       0.80480829 </v>
   <v>       0.06205945       0.56119560       0.81165378 </v>
   <v>       0.30970235       0.56632612       0.81571487 </v>
   <v>       0.56555022       0.56061293       0.80544865 </v>
   <v>       0.80351830       0.57374756       0.80626517 </v>
   <v>       0.06483601       0.81501127       0.81604875 </v>
   <v>       0.31088215       0.80719577       0.82070040 </v>
   <v>       0.55107384       0.81468268       0.82212887 </v>
   <v>       0.81063793       0.80859610       0.81614873 </v>
  </varray>
 </structure>
 <calculation>
  <scstep>
   <time name="dav">   70.01   70.02</time>
   <time name="total">   71.01   71.04</time>
   <energy>
    <i name="alphaZ">    210.77028614 </i>
    <i name="ewald"> -14476.11551843 </i>
    <i name="hartreedc">   -754.81243229 </i>
    <i name="XCdc">  -1195.42505174 </i>
    <i name="pawpsdc">   4221.13331941 </i>
    <i name="pawaedc">  -1969.18571412 </i>
    <i name="eentropy">     -0.00186462 </i>
    <i name="bandstr">   2152.48158615 </i>
    <i name="atom">  13192.48085998 </i>
    <i name="e_fr_energy">   1381.32547049 </i>
    <i name="e_wo_entrp">   1381.32733512 </i>
    <i name="e_0_energy">   1381.32640280 </i>
   </energy>
  </scstep>
  <scstep>
   <time name="dav">   79.52   79.54</time>
   <time name="total">   79.52   79.54</time>
   <energy>
    <i name="e_fr_energy">   -537.67170282 </i>
    <i name="e_wo_entrp">   -537.67170282 </i>
    <i name="e_0_energy">   -537.67170282 </i>
   </energy>
  </scstep>
  <scstep>
   <time name="dav">   81.51   81.53</time>
   <time name="total">   81.51   81.53</time>
   <energy>
    <i name="e_fr_energy">   -688.40745523 </i>
    <i name="e_wo_entrp">   -688.40745523 </i>
    <i name="e_0_energy">   -688.40745523 </i>
   </energy>
  </scstep>
  <scstep>
   <time name="dav">   80.51   80.53</time>
   <time name="total">   80.51   80.53</time>
   <energy>
    <i name="e_fr_energy">   -692.68773625 </i>
    <i name="e_wo_entrp">   -692.68773625 </i>
    <i name="e_0_energy">   -692.68773625 </i>
   </energy>
  </scstep>
  <scstep>
   <time name="dav">   81.57   81.59</time>
   <time name="total">   84.70   84.72</time>
   <energy>
    <i name="e_fr_energy">   -692.84032898 </i>
    <i name="e_wo_entrp">   -692.84032898 </i>
    <i name="e_0_energy">   -692.84032898 </i>
   </energy>
  </scstep>
  <scstep>
   <time name="dav">   77.39   77.41</time>
   <time name="total">   81.52   81.54</time>
   <energy>
    <i name="e_fr_energy">   -684.51497873 </i>
    <i name="e_wo_entrp">   -684.51497873 </i>
    <i name="e_0_energy">   -684.51497873 </i>
   </energy>
  </scstep>
  <scstep>
   <time name="dav">   76.32   76.33</time>
   <time name="total">   80.45   80.46</time>
   <energy>
    <i name="e_fr_energy">   -680.98820111 </i>
    <i name="e_wo_entrp">   -680.98820111 </i>
    <i name="e_0_energy">   -680.98820111 </i>
   </energy>
  </scstep>
  <scstep>
   <time name="dav">   77.83   77.86</time>
   <time name="total">   81.97   82.00</time>
   <energy>
    <i name="e_fr_energy">   -681.04741638 </i>
    <i name="e_wo_entrp">   -681.04741638 </i>
    <i name="e_0_energy">   -681.04741638 </i>
   </energy>
  </scstep>
  <scstep>
   <time name="dav">   78.98   79.00</time>
   <time name="total">   83.11   83.13</time>
   <energy>
    <i name="e_fr_energy">   -681.06868945 </i>
    <i name="e_wo_entrp">   -681.06868945 </i>
    <i name="e_0_energy">   -681.06868945 </i>
   </energy>
  </scstep>
  <scstep>
   <time name="dav">   78.94   78.96</time>
   <time name="total">   83.11   83.13</time>
   <energy>
    <i name="e_fr_energy">   -681.07124252 </i>
    <i name="e_wo_entrp">   -681.07124252 </i>
    <i name="e_0_energy">   -681.07124252 </i>
   </energy>
  </scstep>
  <scstep>
   <time name="dav">   76.56   76.62</time>
   <time name="total">   80.74   80.80</time>
   <energy>
    <i name="e_fr_energy">   -681.07254766 </i>
    <i name="e_wo_entrp">   -681.07254766 </i>
    <i name="e_0_energy">   -681.07254766 </i>
   </energy>
  </scstep>
  <scstep>
   <time name="dav">   80.30   80.37</time>
   <time name="total">   84.48   84.55</time>
   <energy>
    <i name="e_fr_energy">   -681.07262275 </i>
    <i name="e_wo_entrp">   -681.07262275 </i>
    <i name="e_0_energy">   -681.07262275 </i>
   </energy>
  </scstep>
  <scstep>
   <time name="dav">   76.53   76.58</time>
   <time name="total">   80.72   80.78</time>
   <energy>
    <i name="e_fr_energy">   -681.07264794 </i>
    <i name="e_wo_entrp">   -681.07264794 </i>
    <i name="e_0_energy">   -681.07264794 </i>
   </energy>
  </scstep>
  <scstep>
   <time name="dav">   80.44   80.50</time>
   <time name="total">   84.63   84.70</time>
   <energy>
    <i name="e_fr_energy">   -681.07265437 </i>
    <i name="e_wo_entrp">   -681.07265437 </i>
    <i name="e_0_energy">   -681.07265437 </i>
   </energy>
  </scstep>
  <scstep>
   <time name="dav">   80.45   80.51</time>
   <time name="total">   84.63   84.69</time>
   <energy>
    <i name="e_fr_energy">   -681.07265634 </i>
    <i name="e_wo_entrp">   -681.07265634 </i>
    <i name="e_0_energy">   -681.07265634 </i>
   </energy>
  </scstep>
  <scstep>
   <time name="dav">   78.49   78.54</time>
   <time name="total">   82.61   82.67</time>
   <energy>
    <i name="e_fr_energy">   -681.07265618 </i>
    <i name="e_wo_entrp">   -681.07265618 </i>
    <i name="e_0_energy">   -681.07265618 </i>
   </energy>
  </scstep>
  <scstep>
   <time name="dav">   70.40   70.45</time>
   <time name="total">   71.40   71.45</time>
   <energy>
    <i name="alphaZ">    210.77028614 </i>
    <i name="ewald"> -14476.11551843 </i>
    <i name="hartreedc">  -1000.33238861 </i>
    <i name="XCdc">  -1155.85370622 </i>
    <i name="pawpsdc">   4728.05594987 </i>
    <i name="pawaedc">  -2489.70804506 </i>
    <i name="eentropy">     -0.00000000 </i>
    <i name="bandstr">    309.62990613 </i>
    <i name="atom">  13192.48085998 </i>
    <i name="e_fr_energy">   -681.07265619 </i>
    <i name="e_wo_entrp">   -681.07265619 </i>
    <i name="e_0_energy">   -681.07265619 </i>
   </energy>
  </scstep>
  <structure>
   <crystal>
    <varray name="basis" >
     <v>       0.00000000      10.93733369      10.93733369 </v>
     <v>      10.93733369       0.00000000      10.93733369 </v>
     <v>      10.93733369      10.93733369       0.00000000 </v>
    </varray>
    <i name="volume">   2616.76295363 </i>
    <varray name="rec_basis" >
     <v>      -0.04571498       0.04571498       0.04571498 </v>
     <v>       0.04571498      -0.04571498       0.04571498 </v>
     <v>       0.04571498       0.04571498      -0.04571498 </v>
    </varray>
   </crystal>
   <varray name="positions" >
    <v>       0.00148858       0.99128018       0.00634185 </v>
    <v>       0.25440195       0.98805548       0.99645453 </v>
    <v>       0.50247325       0.00828024       0.98990646 </v>
    <v>       0.75039846       0.99827667       0.00662571 </v>
    <v>       0.00799163       0.24704909       0.99731911 </v>
    <v>       0.25970907       0.23867610       0.00398394 </v>
    <v>       0.49594798       0.24060845       0.00874921 </v>
    <v>       0.75101365       0.25464928       0.98990683 </v>
    <v>       0.01699655       0.49025582       0.99232526 </v>
    <v>       0.25515494       0.50336546       0.00359903 </v>
    <v>       0.49172899       0.49690993       0.00419473 </v>
    <v>       0.74137204       0.51201762       0.99278591 </v>
    <v>       0.00857173       0.75572098       0.99349153 </v>
    <v>       0.25548531       0.76064748       0.00079688 </v>
    <v>       0.49485612       0.75445389       0.00296144 </v>
    <v>       0.74763898       0.73753700       0.00104283 </v>
    <v>       0.99985438       0.99904566       0.25230280 </v>
    <v>       0.25829774       0.00175506       0.24636860 </v>
    <v>       0.49622339       0.00329016       0.24730912 </v>
    <v>       0.74422128       0.99567465       0.25909369 </v>
    <v>       0.00451789       0.24547476       0.25325427 </v>
    <v>       0.25980481       0.23645356       0.24916316 </v>
    <v>       0.49215211       0.25485407       0.24443232 </v>
    <v>       0.74496345       0.25559374       0.24661356 </v>
    <v>       0.00987293       0.50458557       0.24037557 </v>
    <v>       0.24721201       0.50883847       0.24117426 </v>
    <v>       0.51463469       0.49733105       0.24871044 </v>
    <v>       0.74762499       0.51006656       0.24193896 </v>
    <v>       0.99305311       0.75809924       0.24865258 </v>
    <v>       0.24708097       0.75631393       0.24718824 </v>
    <v>       0.49620872       0.75355979       0.25442908 </v>
    <v>       0.74761054       0.74940066       0.24781737 </v>
    <v>       0.00745139       0.99822031       0.49205893 </v>
    <v>       0.24625827       0.99542188       0.50461898 </v>
    <v>       0.50087743       0.00893617       0.49181652 </v>
    <v>       0.76015987       0.00234264       0.49252621 </v>
    <v>       0.00162041       0.25123958       0.50095479 </v>
    <v>       0.23260601       0.25510011       0.49825019 </v>
    <v>       0.49203227       0.26036197       0.49323893 </v>
    <v>       0.75096936       0.25246557       0.49721806 </v>
    <v>       0.00773817       0.50346514       0.49999796 </v>
    <v>       0.25385354       0.49984245       0.51502067 </v>
    <v>       0.50282451       0.49821389       0.49636158 </v>
    <v>       0.75531053       0.50505847       0.50439485 </v>
    <v>       0.99657281       0.75403599       0.49215331 </v>
    <v>       0.25864754       0.75216824       0.50213782 </v>
    <v>       0.50411717       0.74819038       0.49361959 </v>
    <v>       0.74891533       0.74860079       0.50474937 </v>
    <v>       0.00253883       0.00227624       0.74022310 </v>
    <v>       0.24419419       0.00818739       0.74540945 </v>
    <v>       0.49226065       0.00332817       0.75309936 </v>
    <v>       0.74809912       0.00294463       0.75072215 </v>
    <v>       0.00347777       0.25681692       0.74639538 </v>
    <v>       0.23416089       0.25304649       0.76176416 </v>
    <v>       0.49110205       0.25982060       0.76051518 </v>
    <v>       0.75843208       0.24600392       0.74498741 </v>
    <v>       0.99161216       0.50169809       0.74644065 </v>
    <v>       0.24694249       0.51126293       0.74440833 </v>
    <v>       0.50527270       0.49239792       0.75040942 </v>
    <v>       0.75166006       0.49348641       0.76048914 </v>
    <v>       0.99995214       0.74740525       0.75346460 </v>
    <v>       0.26430393       0.74464169       0.75314938 </v>
    <v>       0.49420648       0.76368731       0.75408651 </v>
    <v>       0.74964205       0.74601388       0.75627780 </v>
    <v>       0.06842189       0.05671611       0.05937768 </v>
    <v>       0.32262663       0.05811277       0.05494400 </v>
    <v>       0.56744180       0.06129972       0.06939529 </v>
    <v>       0.82175437       0.05684616       0.05852758 </v>
    <v>       0.05581944       0.30414920       0.07421826 </v>
    <v>       0.31160981       0.32170067       0.05561310 </v>
    <v>       0.55722658       0.32056182       0.06460880 </v>
    <v>       0.81473324       0.30883729       0.06167347 </v>
    <v>       0.07192043       0.55114787       0.06832657 </v>
    <v>       0.30897028       0.56411756       0.06982423 </v>
    <v>       0.56237539       0.56714988       0.05878621 </v>
    <v>       0.81430974       0.55848835       0.06359366 </v>
    <v>       0.06344424       0.80709264       0.06973145 </v>
    <v>       0.31002660       0.81435644       0.06735089 </v>
    <v>       0.56754444       0.81705638       0.05560017 </v>
    <v>       0.81659687       0.80762753       0.07343178 </v>
    <v>       0.05853892       0.06686190       0.30852907 </v>
    <v>       0.31423706       0.05336402       0.31172644 </v>
    <v>       0.55707793       0.05832340       0.30511835 </v>
    <v>       0.81614642       0.05426115       0.30520612 </v>
    <v>       0.06257477       0.31459543       0.31473049 </v>
    <v>       0.29649409       0.31282587       0.31787821 </v>
    <v>       0.56689871       0.30953769       0.30540830 </v>
    <v>       0.81550820       0.31085543       0.31465145 </v>
    <v>       0.05612526       0.57017992       0.31255972 </v>
    <v>       0.30900651       0.56976555       0.30981836 </v>
    <v>       0.56347014       0.57341485       0.30988164 </v>
    <v>       0.81555736       0.56041683       0.32112297 </v>
    <v>       0.06352667       0.81816666       0.31085446 </v>
    <v>       0.32152953       0.80615803       0.30884240 </v>
    <v>       0.56039001       0.81935596       0.31225992 </v>
    <v>       0.80948944       0.81700130       0.30615401 </v>
    <v>       0.06174373       0.06635715       0.55507750 </v>
    <v>       0.31720081       0.07031597       0.55432262 </v>
    <v>       0.55510032       0.06853194       0.57787436 </v>
    <v>       0.80878505       0.06245405       0.56141084 </v>
    <v>       0.06028578       0.30911754       0.56992539 </v>
    <v>       0.31373904       0.30634825       0.56284670 </v>
    <v>       0.56311729       0.30134897       0.56688691 </v>
    <v>       0.80778935       0.31537751       0.55865918 </v>
    <v>       0.06356768       0.56932635       0.56148639 </v>
    <v>       0.31581136       0.57654901       0.54509460 </v>
    <v>       0.55627685       0.56316904       0.56629078 </v>
    <v>       0.82227416       0.55516497       0.56405998 </v>
    <v>       0.06527282       0.81289643       0.57146650 </v>
    <v>       0.31926434       0.81412338       0.56091090 </v>
    <v>       0.55985070       0.80597749       0.57515968 </v>
    <v>       0.81010230       0.81807388       0.56494397 </v>
    <v>       0.05677601       0.07627624       0.80454423 </v>
    <v>       0.31578949       0.05624932       0.80574977 </v>
    <v>       0.57056008       0.06594996       0.81291124 </v>
    <v>       0.81902691       0.05917888       0.80256301 </v>
    <v>       0.05653893       0.31228055       0.81971538 </v>
    <v>       0.30294148       0.30799540       0.82151365 </v>
    <v>       0.55417474       0.30522433       0.83395081 </v>
    <v>       0.82629149       0.30460151       0.80480829 </v>
    <v>       0.06205945       0.56119560       0.81165378 </v>
    <v>       0.30970235       0.56632612       0.81571487 </v>
    <v>       0.56555022       0.56061293       0.80544865 </v>
    <v>       0.80351830       0.57374756       0.80626517 </v>
    <v>       0.06483601       0.81501127       0.81604875 </v>
    <v>       0.31088215       0.80719577       0.82070040 </v>
    <v>       0.55107384       0.81468268       0.82212887 </v>
    <v>       0.81063793       0.80859610       0.81614873 </v>
   </varray>
  </structure>
  <varray name="forces" >
   <v>      -0.65581608      -0.68093436       1.25620793 </v>
   <v>       1.31037223      -0.84007627       1.79705727 </v>
   <v>       0.22858067       2.16936459      -0.17851873 </v>
   <v>      -1.46342983      -0.20595877       0.42659132 </v>
   <v>       0.73857774       0.19553830      -1.74413347 </v>
   <v>       1.43893846      -1.30595855      -0.34890820 </v>
   <v>       1.94426011       0.70491484       0.60676848 </v>
   <v>       0.09431259       1.07836125      -0.74565495 </v>
   <v>       1.57289793       0.08594886      -1.10074737 </v>
   <v>      -0.37025170      -0.84206549      -0.09714052 </v>
   <v>       0.31578416      -0.48686336       2.09317028 </v>
   <v>      -1.04287879       1.73585188       0.09196494 </v>
   <v>       0.31800507       0.98712048      -2.10969356 </v>
   <v>      -0.88053368      -0.50948416      -2.52775466 </v>
   <v>       0.21247027       0.69473852      -0.21099213 </v>
   <v>       1.16033189       0.78851435       1.87536001 </v>
   <v>      -0.53531838      -0.93637457       0.63150703 </v>
   <v>      -1.62644994      -1.56933381      -1.83337940 </v>
   <v>      -0.61080046      -0.04107470      -1.24392125 </v>
   <v>      -1.06891821      -1.84274681       0.41140455 </v>
   <v>       1.49139413      -0.41368497      -0.14456247 </v>
   <v>       0.80348369      -1.60997770       0.08757340 </v>
   <v>       0.54906173       1.00627778      -0.92042403 </v>
   <v>      -1.07521656       1.79448918       0.20552544 </v>
   <v>       1.63664919       0.89308802      -2.22845063 </v>
   <v>       1.62396102       1.78818685      -1.93626464 </v>
   <v>       0.52520718      -1.49198299      -0.60700420 </v>
   <v>       0.49183408       2.14271017      -0.61107136 </v>
   <v>       0.37706227       1.04998453      -0.17068657 </v>
   <v>       0.08950427       0.91291019      -0.46554922 </v>
   <v>      -1.10221746      -0.07088100       1.84553666 </v>
   <v>       0.86569847       1.34511514      -0.73186916 </v>
   <v>       1.09393142      -0.23979344      -0.81784126 </v>
   <v>       0.27983296      -0.09769987       1.45852358 </v>
   <v>      -0.06310882       1.38285812      -0.39296580 </v>
   <v>       0.46083533      -1.24494893      -1.43035438 </v>
   <v>       0.31009170      -0.70460608      -0.53943607 </v>
   <v>      -0.50761392       2.31062130       1.47992296 </v>
   <v>      -0.84572483       1.57238366      -0.01077349 </v>
   <v>      -0.25915190      -0.09734779      -1.05903446 </v>
   <v>      -0.80726218      -0.15294086      -0.73801211 </v>
   <v>      -2.24087689      -2.50329855      -1.47881256 </v>
   <v>      -0.17992341       0.55043962      -0.16363979 </v>
   <v>      -0.62336236      -1.04275207      -1.80844425 </v>
   <v>       1.33927240       1.39988719       0.29392184 </v>
   <v>       0.29080560      -1.81698475      -0.07742685 </v>
   <v>       1.33852280       1.03458999       0.04139179 </v>
   <v>      -0.37667028      -0.07437336       0.26444504 </v>
   <v>       0.33352122       0.63745909       0.20860286 </v>
   <v>      -1.21169444       0.01566386      -0.59586135 </v>
   <v>       0.36893604       2.11654078       0.50745242 </v>
   <v>      -1.73750664       0.23202217      -0.21271762 </v>
   <v>       0.21595492       0.84375896      -0.41905392 </v>
   <v>      -2.39010658       0.74598947       0.94769426 </v>
   <v>      -1.64841008      -0.37966717      -0.57435004 </v>
   <v>       0.59320723      -0.66392981      -0.86445178 </v>
   <v>       0.71335396       0.65967099       0.35910964 </v>
   <v>      -0.96304166       0.50755333      -0.25881038 </v>
   <v>       0.84297004      -0.38559280      -0.67067908 </v>
   <v>      -1.27981758      -1.25744286      -0.10209636 </v>
   <v>       0.95302352       0.42442322      -0.03556162 </v>
   <v>       0.15273359      -2.02940893      -0.64679214 </v>
   <v>      -1.49780231       0.31336047      -1.78402900 </v>
   <v>       1.16393781      -2.21793112       1.02860972 </v>
   <v>       0.60290012       0.10165798      -0.10322650 </v>
   <v>       0.14219556      -0.09562376      -1.28947714 </v>
   <v>      -1.35537729      -1.15964372      -0.53100374 </v>
   <v>       1.99332553      -0.38589673      -0.42061801 </v>
   <v>      -1.15362998       0.27342225       1.91514727 </v>
   <v>      -0.37731732       1.23150068      -1.18872473 </v>
   <v>      -2.09013930       0.07633689      -0.56224962 </v>
   <v>       0.07017438      -0.97643783       0.78919164 </v>
   <v>      -0.80276621      -2.45753423       1.58407179 </v>
   <v>      -0.51175233      -1.27977297       1.98916677 </v>
   <v>       0.35544005      -0.42664509      -1.15030972 </v>
   <v>      -1.63226199      -0.00855326       0.54332204 </v>
   <v>      -0.75823883      -0.09139245       1.19614873 </v>
   <v>      -0.39027209       1.26607515       0.38379788 </v>
   <v>       0.95146561      -0.13695991      -0.88329687 </v>
   <v>      -1.83188019      -1.99971073       0.66463223 </v>
   <v>      -0.93597795       1.40119360       0.31992090 </v>
   <v>       1.59140068       1.15262122       0.40285368 </v>
   <v>       2.02976471       1.19418180       1.83302101 </v>
   <v>       2.02193390       0.05860461       1.03268803 </v>
   <v>      -0.74854049       0.35968048       0.62596708 </v>
   <v>      -0.46456522      -0.25645694       1.80908992 </v>
   <v>       0.87358163      -0.71602606      -0.74107450 </v>
   <v>      -0.12664881      -1.35249421       0.35439561 </v>
   <v>      -0.28815148       0.48091792       0.62866572 </v>
   <v>      -0.43652973       1.37590000      -0.23319408 </v>
   <v>      -0.68911134       0.56120342      -0.75915289 </v>
   <v>      -1.11533819      -1.07927417       0.49165206 </v>
   <v>      -0.63427639      -0.40104114      -0.58539469 </v>
   <v>       2.09733174      -1.11811722      -0.57473509 </v>
   <v>      -0.86895525      -0.06224684      -0.01122483 </v>
   <v>       0.40698538       0.81030598      -1.30315443 </v>
   <v>      -0.17509042       0.14315409      -0.11037127 </v>
   <v>      -0.10506670      -0.35421286      -1.27359254 </v>
   <v>      -2.56910048      -1.66127888       1.57989588 </v>
   <v>       0.20434756       1.13707440       1.39895185 </v>
   <v>       0.70837950      -2.05051153       0.43761280 </v>
   <v>       1.60529782      -0.99363272      -0.81959318 </v>
   <v>       1.24133303      -0.51408964       0.73582209 </v>
   <v>       0.44615959       0.83648469       0.90663232 </v>
   <v>      -0.28834367       0.54850083       0.24998587 </v>
   <v>       0.95952319       2.81999941       0.04283466 </v>
   <v>      -1.09349578       0.34206460       0.55943518 </v>
   <v>       1.84268634       0.61918393       0.57735780 </v>
   <v>      -1.61424412      -0.96295406       0.10583267 </v>
   <v>       0.23304654       0.85209502      -0.32300284 </v>
   <v>      -0.58961611      -1.66189697       1.27237002 </v>
   <v>      -0.38639200       0.01194487      -0.55844367 </v>
   <v>      -0.56175232       1.16088157      -1.30721031 </v>
   <v>       2.23124563      -0.52477574      -0.36630156 </v>
   <v>       0.25539012      -2.30402568      -0.45591440 </v>
   <v>       1.50346203       0.95702605      -0.22312701 </v>
   <v>       0.29998147      -1.25969048       0.67736575 </v>
   <v>       0.50569700      -0.43502142       1.44450007 </v>
   <v>      -1.62637837      -0.51093560       2.32923201 </v>
   <v>       1.34417998      -0.93293147      -0.57539717 </v>
   <v>      -0.64738287      -0.71343837       0.09083013 </v>
   <v>      -1.09390352       0.82914518      -0.26701050 </v>
   <v>       1.53127428       0.30593871       0.04735434 </v>
   <v>      -0.82203972       2.01622413      -0.72567126 </v>
   <v>      -1.55242021      -0.60004353       0.82186559 </v>
   <v>       0.98098778      -0.55882909       1.73759716 </v>
   <v>      -0.19089373       0.70356173       1.81559615 </v>
   <v>       0.32294648       0.05099284       0.66719722 </v>
  </varray>
  <varray name="stress" >
   <v>      11.07107589       6.96499208      -2.72760627 </v>
   <v>       6.96499209       9.89352686       0.23369523 </v>
   <v>      -2.72760627       0.23369524      11.91164508 </v>
  </varray>
  <energy>
   <i name="e_fr_energy">   -681.07265619 </i>
   <i name="e_wo_entrp">   -681.07265619 </i>
   <i name="e_0_energy">     -0.00000000 </i>
  </energy>
  <time name="totalsc"> 1493.80 1494.54</time>
  <eigenvalues>
   <array>
    <dimension dim="1">band</dimension>
    <dimension dim="2">kpoint</dimension>
    <dimension dim="3">spin</dimension>
    <field>eigene</field>
    <field>occ</field>
    <set>
     <set comment="spin 1">
      <set comment="kpoint 1">
       <r>   -6.2944    1.0000 </r>
       <r>   -5.7384    1.0000 </r>
       <r>   -5.6792    1.0000 </r>
       <r>   -5.5399    1.0000 </r>
       <r>   -5.5313    1.0000 </r>
       <r>   -5.4958    1.0000 </r>
       <r>   -5.4532    1.0000 </r>
       <r>   -5.4300    1.0000 </r>
       <r>   -5.3675    1.0000 </r>
       <r>   -5.2956    1.0000 </r>
       <r>   -5.2159    1.0000 </r>
       <r>   -5.1931    1.0000 </r>
       <r>   -5.1598    1.0000 </r>
       <r>   -5.1316    1.0000 </r>
       <r>   -5.0868    1.0000 </r>
       <r>   -4.5115    1.0000 </r>
       <r>   -4.4875    1.0000 </r>
       <r>   -4.4142    1.0000 </r>
       <r>   -4.3460    1.0000 </r>
       <r>   -4.3226    1.0000 </r>
       <r>   -4.2991    1.0000 </r>
       <r>   -4.2710    1.0000 </r>
       <r>   -4.2561    1.0000 </r>
       <r>   -4.2117    1.0000 </r>
       <r>   -4.1656    1.0000 </r>
       <r>   -4.1476    1.0000 </r>
       <r>   -4.1044    1.0000 </r>
       <r>   -4.0388    1.0000 </r>
       <r>   -4.0095    1.0000 </r>
       <r>   -3.9901    1.0000 </r>
       <r>   -3.9221    1.0000 </r>
       <r>   -3.8640    1.0000 </r>
       <r>   -3.8306    1.0000 </r>
       <r>   -3.7827    1.0000 </r>
       <r>   -3.7647    1.0000 </r>
       <r>   -3.7022    1.0000 </r>
       <r>   -3.6914    1.0000 </r>
       <r>   -3.6613    1.0000 </r>
       <r>   -3.6386    1.0000 </r>
       <r>   -3.6278    1.0000 </r>
       <r>   -3.6132    1.0000 </r>
       <r>   -3.5899    1.0000 </r>
       <r>   -3.5762    1.0000 </r>
       <r>   -3.5557    1.0000 </r>
       <r>   -3.5128    1.0000 </r>
       <r>   -3.5102    1.0000 </r>
       <r>   -3.4893    1.0000 </r>
       <r>   -3.4514    1.0000 </r>
       <r>   -3.4190    1.0000 </r>
       <r>   -3.3947    1.0000 </r>
       <r>   -3.3795    1.0000 </r>
       <r>   -3.3338    1.0000 </r>
       <r>   -3.3102    1.0000 </r>
       <r>   -3.3063    1.0000 </r>
       <r>   -3.1956    1.0000 </r>
       <r>   -2.3455    1.0000 </r>
       <r>   -2.2838    1.0000 </r>
       <r>   -2.2580    1.0000 </r>
       <r>   -2.2339    1.0000 </r>
       <r>   -2.2107    1.0000 </r>
       <r>   -2.1809    1.0000 </r>
       <r>   -2.1503    1.0000 </r>
       <r>   -2.1180    1.0000 </r>
       <r>   -2.0579    1.0000 </r>
       <r>   -2.0385    1.0000 </r>
       <r>   -2.0078    1.0000 </r>
       <r>   -1.9751    1.0000 </r>
       <r>   -1.9579    1.0000 </r>
       <r>   -1.9495    1.0000 </r>
       <r>   -1.8956    1.0000 </r>
       <r>   -1.8428    1.0000 </r>
       <r>   -1.8084    1.0000 </r>
       <r>   -1.7635    1.0000 </r>
       <r>   -1.3268    1.0000 </r>
       <r>   -1.3033    1.0000 </r>
       <r>   -1.2659    1.0000 </r>
       <r>   -1.2257    1.0000 </r>
       <r>   -1.0528    1.0000 </r>
       <r>   -0.9948    1.0000 </r>
       <r>   -0.9563    1.0000 </r>
       <r>   -0.9399    1.0000 </r>
       <r>   -0.9096    1.0000 </r>
       <r>   -0.8542    1.0000 </r>
       <r>   -0.8316    1.0000 </r>
       <r>   -0.8188    1.0000 </r>
       <r>   -0.7795    1.0000 </r>
       <r>   -0.7704    1.0000 </r>
       <r>   -0.7547    1.0000 </r>
       <r>   -0.7370    1.0000 </r>
       <r>   -0.6966    1.0000 </r>
       <r>   -0.6913    1.0000 </r>
       <r>   -0.6574    1.0000 </r>
       <r>   -0.6422    1.0000 </r>
       <r>   -0.6070    1.0000 </r>
       <r>   -0.5744    1.0000 </r>
       <r>   -0.5504    1.0000 </r>
       <r>   -0.5348    1.0000 </r>
       <r>   -0.4953    1.0000 </r>
       <r>   -0.4780    1.0000 </r>
       <r>   -0.4159    1.0000 </r>
       <r>   -0.3787    1.0000 </r>
       <r>    0.0136    1.0000 </r>
       <r>    0.0417    1.0000 </r>
       <r>    0.0906    1.0000 </r>
       <r>    0.1093    1.0000 </r>
       <r>    0.1393    1.0000 </r>
       <r>    0.1709    1.0000 </r>
       <r>    0.1992    1.0000 </r>
       <r>    0.2150    1.0000 </r>
       <r>    0.2721    1.0000 </r>
       <r>    0.3014    1.0000 </r>
       <r>    0.3183    1.0000 </r>
       <r>    0.3402    1.0000 </r>
       <r>    1.4591    1.0000 </r>
       <r>    1.4798    1.0000 </r>
       <r>    1.5179    1.0000 </r>
       <r>    1.5246    1.0000 </r>
       <r>    1.5555    1.0000 </r>
       <r>    1.5887    1.0000 </r>
       <r>    1.6163    1.0000 </r>
       <r>    1.6279    1.0000 </r>
       <r>    1.6576    1.0000 </r>
       <r>    1.6720    1.0000 </r>
       <r>    1.6822    1.0000 </r>
       <r>    1.7083    1.0000 </r>
       <r>    1.7169    1.0000 </r>
       <r>    1.7512    1.0000 </r>
       <r>    1.7634    1.0000 </r>
       <r>    1.7782    1.0000 </r>
       <r>    1.7878    1.0000 </r>
       <r>    1.8038    1.0000 </r>
       <r>    1.8227    1.0000 </r>
       <r>    1.8254    1.0000 </r>
       <r>    1.8470    1.0000 </r>
       <r>    1.8638    1.0000 </r>
       <r>    1.8657    1.0000 </r>
       <r>    1.8890    1.0000 </r>
       <r>    1.8952    1.0000 </r>
       <r>    1.9105    1.0000 </r>
       <r>    1.9356    1.0000 </r>
       <r>    1.9443    1.0000 </r>
       <r>    1.9527    1.0000 </r>
       <r>    1.9620    1.0000 </r>
       <r>    1.9691    1.0000 </r>
       <r>    1.9927    1.0000 </r>
       <r>    2.0071    1.0000 </r>
       <r>    2.0140    1.0000 </r>
       <r>    2.0167    1.0000 </r>
       <r>    2.0410    1.0000 </r>
       <r>    2.0604    1.0000 </r>
       <r>    2.0671    1.0000 </r>
       <r>    2.0872    1.0000 </r>
       <r>    2.0980    1.0000 </r>
       <r>    2.0990    1.0000 </r>
       <r>    2.1195    1.0000 </r>
       <r>    2.1455    1.0000 </r>
       <r>    2.1480    1.0000 </r>
       <r>    2.1574    1.0000 </r>
       <r>    2.1803    1.0000 </r>
       <r>    2.1892    1.0000 </r>
       <r>    2.2005    1.0000 </r>
       <r>    2.2090    1.0000 </r>
       <r>    2.2296    1.0000 </r>
       <r>    2.2382    1.0000 </r>
       <r>    2.2488    1.0000 </r>
       <r>    2.2680    1.0000 </r>
       <r>    2.2756    1.0000 </r>
       <r>    2.3081    1.0000 </r>
       <r>    2.3317    1.0000 </r>
       <r>    2.3422    1.0000 </r>
       <r>    2.3768    1.0000 </r>
       <r>    2.3966    1.0000 </r>
       <r>    2.4119    1.0000 </r>
       <r>    2.4559    1.0000 </r>
       <r>    2.4816    1.0000 </r>
       <r>    2.7729    1.0000 </r>
       <r>    2.7912    1.0000 </r>
       <r>    2.8071    1.0000 </r>
       <r>    2.8286    1.0000 </r>
       <r>    2.8413    1.0000 </r>
       <r>    2.8847    1.0000 </r>
       <r>    3.1924    1.0000 </r>
       <r>    3.2273    1.0000 </r>
       <r>    3.2535    1.0000 </r>
       <r>    3.2675    1.0000 </r>
       <r>    3.2873    1.0000 </r>
       <r>    3.3241    1.0000 </r>
       <r>    3.3564    1.0000 </r>
       <r>    3.3717    1.0000 </r>
       <r>    3.3868    1.0000 </r>
       <r>    3.4054    1.0000 </r>
       <r>    3.4144    1.0000 </r>
       <r>    3.4537    1.0000 </r>
       <r>    3.4567    1.0000 </r>
       <r>    3.4658    1.0000 </r>
       <r>    3.4730    1.0000 </r>
       <r>    3.4870    1.0000 </r>
       <r>    3.5020    1.0000 </r>
       <r>    3.5255    1.0000 </r>
       <r>    3.5454    1.0000 </r>
       <r>    3.5563    1.0000 </r>
       <r>    3.5887    1.0000 </r>
       <r>    3.5917    1.0000 </r>
       <r>    3.6070    1.0000 </r>
       <r>    3.6489    1.0000 </r>
       <r>    3.6595    1.0000 </r>
       <r>    3.7003    1.0000 </r>
       <r>    3.7192    1.0000 </r>
       <r>    3.7388    1.0000 </r>
       <r>    3.7646    1.0000 </r>
       <r>    3.7833    1.0000 </r>
       <r>    3.8026    1.0000 </r>
       <r>    3.8213    1.0000 </r>
       <r>    3.8591    1.0000 </r>
       <r>    3.9019    1.0000 </r>
       <r>    3.9462    1.0000 </r>
       <r>    3.9675    1.0000 </r>
       <r>    4.1333    1.0000 </r>
       <r>    4.1810    1.0000 </r>
       <r>    4.2108    1.0000 </r>
       <r>    4.2116    1.0000 </r>
       <r>    4.2571    1.0000 </r>
       <r>    4.2838    1.0000 </r>
       <r>    4.3016    1.0000 </r>
       <r>    4.3171    1.0000 </r>
       <r>    4.3551    1.0000 </r>
       <r>    4.3897    1.0000 </r>
       <r>    4.4160    1.0000 </r>
       <r>    4.4252    1.0000 </r>
       <r>    4.4376    1.0000 </r>
       <r>    4.4650    1.0000 </r>
       <r>    4.4977    1.0000 </r>
       <r>    4.5239    1.0000 </r>
       <r>    4.5412    1.0000 </r>
       <r>    4.5680    1.0000 </r>
       <r>    4.6001    1.0000 </r>
       <r>    4.6747    1.0000 </r>
       <r>    4.7047    1.0000 </r>
       <r>    4.7228    1.0000 </r>
       <r>    4.7698    1.0000 </r>
       <r>    4.8269    1.0000 </r>
       <r>    4.8645    1.0000 </r>
       <r>    4.9016    1.0000 </r>
       <r>    4.9265    1.0000 </r>
       <r>    4.9585    1.0000 </r>
       <r>    5.0149    1.0000 </r>
       <r>    5.0421    1.0000 </r>
       <r>    5.0556    1.0000 </r>
       <r>    5.0647    1.0000 </r>
       <r>    5.0886    1.0000 </r>
       <r>    5.1632    1.0000 </r>
       <r>    5.2142    1.0000 </r>
       <r>    5.2650    1.0000 </r>
       <r>    5.6587    1.0000 </r>
       <r>    5.7285    1.0000 </r>
       <r>    5.8041    1.0000 </r>
       <r>    6.1945    0.0000 </r>
       <r>    6.2435    0.0000 </r>
       <r>    6.2496    0.0000 </r>
       <r>    6.2788    0.0000 </r>
       <r>    6.3064    0.0000 </r>
       <r>    6.3450    0.0000 </r>
       <r>    6.5551    0.0000 </r>
       <r>    6.5771    0.0000 </r>
       <r>    6.6203    0.0000 </r>
       <r>    6.6790    0.0000 </r>
       <r>    6.6936    0.0000 </r>
       <r>    6.7098    0.0000 </r>
       <r>    6.8249    0.0000 </r>
       <r>    6.8500    0.0000 </r>
       <r>    6.8804    0.0000 </r>
       <r>    6.8927    0.0000 </r>
       <r>    6.9101    0.0000 </r>
       <r>    6.9295    0.0000 </r>
       <r>    6.9524    0.0000 </r>
       <r>    6.9655    0.0000 </r>
       <r>    6.9702    0.0000 </r>
       <r>    7.0029    0.0000 </r>
       <r>    7.0188    0.0000 </r>
       <r>    7.0240    0.0000 </r>
       <r>    7.0387    0.0000 </r>
       <r>    7.0572    0.0000 </r>
       <r>    7.0630    0.0000 </r>
       <r>    7.1019    0.0000 </r>
       <r>    7.1252    0.0000 </r>
       <r>    7.1293    0.0000 </r>
       <r>    7.1367    0.0000 </r>
       <r>    7.1516    0.0000 </r>
       <r>    7.1870    0.0000 </r>
       <r>    7.2099    0.0000 </r>
       <r>    7.2273    0.0000 </r>
       <r>    7.2333    0.0000 </r>
       <r>    7.2789    0.0000 </r>
       <r>    7.2968    0.0000 </r>
       <r>    7.3309    0.0000 </r>
       <r>    7.3662    0.0000 </r>
       <r>    7.4409    0.0000 </r>
       <r>    7.4810    0.0000 </r>
       <r>    7.5189    0.0000 </r>
       <r>    7.5221    0.0000 </r>
       <r>    7.5397    0.0000 </r>
       <r>    7.5679    0.0000 </r>
       <r>    7.5989    0.0000 </r>
       <r>    7.6532    0.0000 </r>
       <r>    7.8242    0.0000 </r>
       <r>    7.8526    0.0000 </r>
       <r>    7.8968    0.0000 </r>
       <r>    7.9210    0.0000 </r>
       <r>    7.9393    0.0000 </r>
       <r>    7.9848    0.0000 </r>
       <r>    7.9886    0.0000 </r>
       <r>    8.0090    0.0000 </r>
       <r>    8.0346    0.0000 </r>
       <r>    8.0917    0.0000 </r>
       <r>    8.1059    0.0000 </r>
       <r>    8.1277    0.0000 </r>
       <r>    8.1576    0.0000 </r>
       <r>    8.2124    0.0000 </r>
       <r>    8.2265    0.0000 </r>
       <r>    8.5252    0.0000 </r>
       <r>    8.5680    0.0000 </r>
       <r>    8.6140    0.0000 </r>
      </set>
      <set comment="kpoint 2">
       <r>   -6.1542    1.0000 </r>
       <r>   -6.0464    1.0000 </r>
       <r>   -5.7474    1.0000 </r>
       <r>   -5.6385    1.0000 </r>
       <r>   -5.5802    1.0000 </r>
       <r>   -5.5267    1.0000 </r>
       <r>   -5.5013    1.0000 </r>
       <r>   -5.4311    1.0000 </r>
       <r>   -5.1818    1.0000 </r>
       <r>   -5.0900    1.0000 </r>
       <r>   -5.0731    1.0000 </r>
       <r>   -5.0491    1.0000 </r>
       <r>   -4.9913    1.0000 </r>
       <r>   -4.9712    1.0000 </r>
       <r>   -4.7360    1.0000 </r>
       <r>   -4.6286    1.0000 </r>
       <r>   -4.6169    1.0000 </r>
       <r>   -4.5562    1.0000 </r>
       <r>   -4.5374    1.0000 </r>
       <r>   -4.4932    1.0000 </r>
       <r>   -4.4661    1.0000 </r>
       <r>   -4.3951    1.0000 </r>
       <r>   -4.3102    1.0000 </r>
       <r>   -4.2674    1.0000 </r>
       <r>   -4.2038    1.0000 </r>
       <r>   -4.1537    1.0000 </r>
       <r>   -4.1403    1.0000 </r>
       <r>   -4.0994    1.0000 </r>
       <r>   -4.0970    1.0000 </r>
       <r>   -4.0528    1.0000 </r>
       <r>   -4.0468    1.0000 </r>
       <r>   -3.9810    1.0000 </r>
       <r>   -3.9468    1.0000 </r>
       <r>   -3.9101    1.0000 </r>
       <r>   -3.9005    1.0000 </r>
       <r>   -3.8428    1.0000 </r>
       <r>   -3.8282    1.0000 </r>
       <r>   -3.7974    1.0000 </r>
[...]
       <r>    -3.1040    36.9093   100.5896 </r>
       <r>    -3.0494    46.9474   103.1559 </r>
       <r>    -2.9947    45.6948   105.6538 </r>
       <r>    -2.9400    37.9976   107.7309 </r>
       <r>    -2.8854    45.6940   110.2287 </r>
       <r>    -2.8307    29.7251   111.8537 </r>
       <r>    -2.7760    30.5809   113.5254 </r>
       <r>    -2.7214    42.3954   115.8429 </r>
       <r>    -2.6667    29.5000   117.4555 </r>
       <r>    -2.6120    42.7458   119.7922 </r>
       <r>    -2.5574    29.2803   121.3928 </r>
       <r>    -2.5027    11.1143   122.0004 </r>
       <r>    -2.4481    13.3295   122.7290 </r>
       <r>    -2.3934     0.3841   122.7500 </r>
       <r>    -2.3387     3.8062   122.9581 </r>
       <r>    -2.2841     2.9882   123.1214 </r>
       <r>    -2.2294    14.9163   123.9368 </r>
       <r>    -2.1747    27.3217   125.4303 </r>
       <r>    -2.1201    26.6186   126.8854 </r>
       <r>    -2.0654    29.6594   128.5067 </r>
       <r>    -2.0107    28.9017   130.0866 </r>
       <r>    -1.9561    22.4521   131.3140 </r>
       <r>    -1.9014    13.3683   132.0448 </r>
       <r>    -1.8467     9.6554   132.5726 </r>
       <r>    -1.7921     7.7700   132.9973 </r>
       <r>    -1.7374     4.6231   133.2501 </r>
       <r>    -1.6828     5.0506   133.5262 </r>
       <r>    -1.6281     8.7506   134.0045 </r>
       <r>    -1.5734    15.9325   134.8755 </r>
       <r>    -1.5188    32.2144   136.6364 </r>
       <r>    -1.4641    51.4288   139.4478 </r>
       <r>    -1.4094    27.1195   140.9302 </r>
       <r>    -1.3548    49.2835   143.6243 </r>
       <r>    -1.3001    60.2344   146.9170 </r>
       <r>    -1.2454    61.2219   150.2636 </r>
       <r>    -1.1908    68.1742   153.9903 </r>
       <r>    -1.1361    58.4761   157.1869 </r>
       <r>    -1.0815    48.7220   159.8503 </r>
       <r>    -1.0268    87.0248   164.6074 </r>
       <r>    -0.9721    69.3984   168.4011 </r>
       <r>    -0.9175    67.9304   172.1144 </r>
       <r>    -0.8628    75.4974   176.2414 </r>
       <r>    -0.8081    52.1401   179.0916 </r>
       <r>    -0.7535    42.5168   181.4158 </r>
       <r>    -0.6988    48.4040   184.0618 </r>
       <r>    -0.6441    35.4903   186.0018 </r>
       <r>    -0.5895    37.1469   188.0324 </r>
       <r>    -0.5348    33.2618   189.8507 </r>
       <r>    -0.4801    16.6905   190.7631 </r>
       <r>    -0.4255     9.3299   191.2731 </r>
       <r>    -0.3708    33.7456   193.1177 </r>
       <r>    -0.3162    47.0490   195.6896 </r>
       <r>    -0.2615    42.5537   198.0158 </r>
       <r>    -0.2068    62.2794   201.4203 </r>
       <r>    -0.1522    64.2892   204.9346 </r>
       <r>    -0.0975    40.2050   207.1323 </r>
       <r>    -0.0428    39.6433   209.2995 </r>
       <r>     0.0118    47.5793   211.9004 </r>
       <r>     0.0665    24.6900   213.2500 </r>
       <r>     0.1212     8.9588   213.7398 </r>
       <r>     0.1758     8.2160   214.1889 </r>
       <r>     0.2305    10.2221   214.7477 </r>
       <r>     0.2852    14.3087   215.5298 </r>
       <r>     0.3398    36.0886   217.5026 </r>
       <r>     0.3945    26.3961   218.9455 </r>
       <r>     0.4491    22.4734   220.1741 </r>
       <r>     0.5038    18.7146   221.1971 </r>
       <r>     0.5585    19.8640   222.2829 </r>
       <r>     0.6131    18.9737   223.3201 </r>
       <r>     0.6678    19.9607   224.4113 </r>
       <r>     0.7225    25.0608   225.7812 </r>
       <r>     0.7771    17.7252   226.7501 </r>
       <r>     0.8318    13.3028   227.4773 </r>
       <r>     0.8865     7.9201   227.9103 </r>
       <r>     0.9411    18.2799   228.9095 </r>
       <r>     0.9958    23.7953   230.2103 </r>
       <r>     1.0504    30.9202   231.9005 </r>
       <r>     1.1051    21.9625   233.1011 </r>
       <r>     1.1598    28.0131   234.6324 </r>
       <r>     1.2144    16.4810   235.5333 </r>
       <r>     1.2691    32.0149   237.2834 </r>
       <r>     1.3238    25.0771   238.6542 </r>
       <r>     1.3784    29.2512   240.2532 </r>
       <r>     1.4331    41.1471   242.5025 </r>
       <r>     1.4878    78.4981   246.7936 </r>
       <r>     1.5424    86.4463   251.5191 </r>
       <r>     1.5971    94.2429   256.6709 </r>
       <r>     1.6518    70.0486   260.5000 </r>
       <r>     1.7064    65.7839   264.0960 </r>
       <r>     1.7611    69.0070   267.8683 </r>
       <r>     1.8157    53.3123   270.7826 </r>
       <r>     1.8704    29.4787   272.3940 </r>
       <r>     1.9251    15.8972   273.2630 </r>
       <r>     1.9797    22.4526   274.4904 </r>
       <r>     2.0344    30.7279   276.1701 </r>
       <r>     2.0891    63.1079   279.6199 </r>
       <r>     2.1437    95.6270   284.8472 </r>
       <r>     2.1984   115.5515   291.1638 </r>
       <r>     2.2531   125.9886   298.0509 </r>
       <r>     2.3077   124.0887   304.8341 </r>
       <r>     2.3624   113.7979   311.0548 </r>
       <r>     2.4171   104.4185   316.7628 </r>
       <r>     2.4717    74.4127   320.8305 </r>
       <r>     2.5264    47.7515   323.4408 </r>
       <r>     2.5810    16.2119   324.3271 </r>
       <r>     2.6357    39.7355   326.4992 </r>
       <r>     2.6904    46.9529   329.0658 </r>
       <r>     2.7450    95.9241   334.3095 </r>
       <r>     2.7997    86.5902   339.0429 </r>
       <r>     2.8544    97.2237   344.3576 </r>
       <r>     2.9090    97.8875   349.7086 </r>
       <r>     2.9637   104.1157   355.4000 </r>
       <r>     3.0184   104.1067   361.0909 </r>
       <r>     3.0730   100.1819   366.5672 </r>
       <r>     3.1277    80.6954   370.9784 </r>
       <r>     3.1823    58.7400   374.1894 </r>
       <r>     3.2370    92.6277   379.2528 </r>
       <r>     3.2917    74.8144   383.3425 </r>
       <r>     3.3463   108.4764   389.2723 </r>
       <r>     3.4010   110.5382   395.3148 </r>
       <r>     3.4557    70.5721   399.1726 </r>
       <r>     3.5103   104.7029   404.8961 </r>
       <r>     3.5650    73.1754   408.8962 </r>
       <r>     3.6197    80.2788   413.2846 </r>
       <r>     3.6743    75.7791   417.4270 </r>
       <r>     3.7290    79.1289   421.7526 </r>
       <r>     3.7837    83.2517   426.3035 </r>
       <r>     3.8383    88.1459   431.1219 </r>
       <r>     3.8930    81.2936   435.5658 </r>
       <r>     3.9476    66.1299   439.1808 </r>
       <r>     4.0023    64.8274   442.7245 </r>
       <r>     4.0570    58.7522   445.9361 </r>
       <r>     4.1116    74.9424   450.0328 </r>
       <r>     4.1663    70.9514   453.9113 </r>
       <r>     4.2210    85.2151   458.5696 </r>
       <r>     4.2756    62.4833   461.9852 </r>
       <r>     4.3303    74.1828   466.0403 </r>
       <r>     4.3850    78.7588   470.3457 </r>
       <r>     4.4396    74.4496   474.4154 </r>
       <r>     4.4943    67.6088   478.1113 </r>
       <r>     4.5490    66.9750   481.7724 </r>
       <r>     4.6036    63.6980   485.2544 </r>
       <r>     4.6583    48.5045   487.9059 </r>
       <r>     4.7129    51.4349   490.7176 </r>
       <r>     4.7676    20.1687   491.8201 </r>
       <r>     4.8223     9.0283   492.3136 </r>
       <r>     4.8769    36.6287   494.3159 </r>
       <r>     4.9316    49.5207   497.0229 </r>
       <r>     4.9863    29.9140   498.6581 </r>
       <r>     5.0409    35.7264   500.6111 </r>
       <r>     5.0956    42.3446   502.9259 </r>
       <r>     5.1503    10.2772   503.4877 </r>
       <r>     5.2049     5.2358   503.7739 </r>
       <r>     5.2596     7.2742   504.1715 </r>
       <r>     5.3143     9.0090   504.6640 </r>
       <r>     5.3689    22.7315   505.9066 </r>
       <r>     5.4236    21.2727   507.0694 </r>
       <r>     5.4782    25.6879   508.4737 </r>
       <r>     5.5329    27.9756   510.0030 </r>
       <r>     5.5876    18.5618   511.0176 </r>
       <r>     5.6422     4.2957   511.2525 </r>
       <r>     5.6969     4.5283   511.5000 </r>
       <r>     5.7516     4.5709   511.7499 </r>
       <r>     5.8062     2.8250   511.9043 </r>
       <r>     5.8609     1.7509   512.0000 </r>
       <r>     5.9156     0.0000   512.0000 </r>
       <r>     5.9702     0.0000   512.0000 </r>
       <r>     6.0249     0.0000   512.0000 </r>
       <r>     6.0795     0.0000   512.0000 </r>
       <r>     6.1342     0.5163   512.0282 </r>
       <r>     6.1889    14.3742   512.8140 </r>
       <r>     6.2435    20.2110   513.9188 </r>
       <r>     6.2982    11.1852   514.5302 </r>
       <r>     6.3529    13.5075   515.2686 </r>
       <r>     6.4075    29.0883   516.8587 </r>
       <r>     6.4622    24.8464   518.2169 </r>
       <r>     6.5169    36.6984   520.2230 </r>
       <r>     6.5715    19.7234   521.3012 </r>
       <r>     6.6262    11.7584   521.9440 </r>
       <r>     6.6809     9.5523   522.4662 </r>
       <r>     6.7355    28.0566   523.9999 </r>
       <r>     6.7902    31.9054   525.7440 </r>
       <r>     6.8448    36.6173   527.7456 </r>
       <r>     6.8995    36.7243   529.7531 </r>
       <r>     6.9542    36.1868   531.7313 </r>
       <r>     7.0088    31.6831   533.4632 </r>
       <r>     7.0635    50.1743   536.2059 </r>
       <r>     7.1182    33.6411   538.0449 </r>
       <r>     7.1728    38.1264   540.1290 </r>
       <r>     7.2275    20.2221   541.2345 </r>
       <r>     7.2822    44.6643   543.6760 </r>
       <r>     7.3368    72.6279   547.6461 </r>
       <r>     7.3915    73.8927   551.6854 </r>
       <r>     7.4462    83.2504   556.2363 </r>
       <r>     7.5008    92.1090   561.2714 </r>
       <r>     7.5555    92.7603   566.3421 </r>
       <r>     7.6101    92.1846   571.3813 </r>
       <r>     7.6648    92.0870   576.4152 </r>
       <r>     7.7195    67.5114   580.1057 </r>
       <r>     7.7741    97.5367   585.4375 </r>
       <r>     7.8288    95.5177   590.6588 </r>
       <r>     7.8835    95.9117   595.9018 </r>
       <r>     7.9381   108.2631   601.8199 </r>
       <r>     7.9928    85.8842   606.5148 </r>
       <r>     8.0475    88.0685   611.3290 </r>
       <r>     8.1021    73.0898   615.3244 </r>
       <r>     8.1568    80.2793   619.7128 </r>
       <r>     8.2114    85.7390   624.3997 </r>
       <r>     8.2661    98.1897   629.7672 </r>
       <r>     8.3208    80.7534   634.1815 </r>
       <r>     8.3754    70.0513   638.0109 </r>
       <r>     8.4301    61.2300   641.3579 </r>
       <r>     8.4848    34.2160   643.2284 </r>
       <r>     8.5394     4.8674   643.4944 </r>
       <r>     8.5941     4.6860   643.7506 </r>
       <r>     8.6488     4.5621   644.0000 </r>
       <r>     8.7034     0.0000   644.0000 </r>
       <r>     8.7581     0.0000   644.0000 </r>
       <r>     8.8128     0.0000   644.0000 </r>
       <r>     8.8674     0.0000   644.0000 </r>
       <r>     8.9221     0.0000   644.0000 </r>
       <r>     8.9767     0.0000   644.0000 </r>
       <r>     9.0314     0.0000   644.0000 </r>
       <r>     9.0861     0.0000   644.0000 </r>
       <r>     9.1407     0.0000   644.0000 </r>
       <r>     9.1954     0.0000   644.0000 </r>
       <r>     9.2501     0.0000   644.0000 </r>
       <r>     9.3047     0.0000   644.0000 </r>
       <r>     9.3594     0.0000   644.0000 </r>
      </set>
     </set>
    </array>
   </total>
  </dos>
 </calculation>
 <structure name="finalpos" >
  <crystal>
   <varray name="basis" >
    <v>       0.00000000      10.93733369      10.93733369 </v>
    <v>      10.93733369       0.00000000      10.93733369 </v>
    <v>      10.93733369      10.93733369       0.00000000 </v>
   </varray>
   <i name="volume">   2616.76295363 </i>
   <varray name="rec_basis" >
    <v>      -0.04571498       0.04571498       0.04571498 </v>
    <v>       0.04571498      -0.04571498       0.04571498 </v>
    <v>       0.04571498       0.04571498      -0.04571498 </v>
   </varray>
  </crystal>
  <varray name="positions" >
   <v>       0.00148858       0.99128018       0.00634185 </v>
   <v>       0.25440195       0.98805548       0.99645453 </v>
   <v>       0.50247325       0.00828024       0.98990646 </v>
   <v>       0.75039846       0.99827667       0.00662571 </v>
   <v>       0.00799163       0.24704909       0.99731911 </v>
   <v>       0.25970907       0.23867610       0.00398394 </v>
   <v>       0.49594798       0.24060845       0.00874921 </v>
   <v>       0.75101365       0.25464928       0.98990683 </v>
   <v>       0.01699655       0.49025582       0.99232526 </v>
   <v>       0.25515494       0.50336546       0.00359903 </v>
   <v>       0.49172899       0.49690993       0.00419473 </v>
   <v>       0.74137204       0.51201762       0.99278591 </v>
   <v>       0.00857173       0.75572098       0.99349153 </v>
   <v>       0.25548531       0.76064748       0.00079688 </v>
   <v>       0.49485612       0.75445389       0.00296144 </v>
   <v>       0.74763898       0.73753700       0.00104283 </v>
   <v>       0.99985438       0.99904566       0.25230280 </v>
   <v>       0.25829774       0.00175506       0.24636860 </v>
   <v>       0.49622339       0.00329016       0.24730912 </v>
   <v>       0.74422128       0.99567465       0.25909369 </v>
   <v>       0.00451789       0.24547476       0.25325427 </v>
   <v>       0.25980481       0.23645356       0.24916316 </v>
   <v>       0.49215211       0.25485407       0.24443232 </v>
   <v>       0.74496345       0.25559374       0.24661356 </v>
   <v>       0.00987293       0.50458557       0.24037557 </v>
   <v>       0.24721201       0.50883847       0.24117426 </v>
   <v>       0.51463469       0.49733105       0.24871044 </v>
   <v>       0.74762499       0.51006656       0.24193896 </v>
   <v>       0.99305311       0.75809924       0.24865258 </v>
   <v>       0.24708097       0.75631393       0.24718824 </v>
   <v>       0.49620872       0.75355979       0.25442908 </v>
   <v>       0.74761054       0.74940066       0.24781737 </v>
   <v>       0.00745139       0.99822031       0.49205893 </v>
   <v>       0.24625827       0.99542188       0.50461898 </v>
   <v>       0.50087743       0.00893617       0.49181652 </v>
   <v>       0.76015987       0.00234264       0.49252621 </v>
   <v>       0.00162041       0.25123958       0.50095479 </v>
   <v>       0.23260601       0.25510011       0.49825019 </v>
   <v>       0.49203227       0.26036197       0.49323893 </v>
   <v>       0.75096936       0.25246557       0.49721806 </v>
   <v>       0.00773817       0.50346514       0.49999796 </v>
   <v>       0.25385354       0.49984245       0.51502067 </v>
   <v>       0.50282451       0.49821389       0.49636158 </v>
   <v>       0.75531053       0.50505847       0.50439485 </v>
   <v>       0.99657281       0.75403599       0.49215331 </v>
   <v>       0.25864754       0.75216824       0.50213782 </v>
   <v>       0.50411717       0.74819038       0.49361959 </v>
   <v>       0.74891533       0.74860079       0.50474937 </v>
   <v>       0.00253883       0.00227624       0.74022310 </v>
   <v>       0.24419419       0.00818739       0.74540945 </v>
   <v>       0.49226065       0.00332817       0.75309936 </v>
   <v>       0.74809912       0.00294463       0.75072215 </v>
   <v>       0.00347777       0.25681692       0.74639538 </v>
   <v>       0.23416089       0.25304649       0.76176416 </v>
   <v>       0.49110205       0.25982060       0.76051518 </v>
   <v>       0.75843208       0.24600392       0.74498741 </v>
   <v>       0.99161216       0.50169809       0.74644065 </v>
   <v>       0.24694249       0.51126293       0.74440833 </v>
   <v>       0.50527270       0.49239792       0.75040942 </v>
   <v>       0.75166006       0.49348641       0.76048914 </v>
   <v>       0.99995214       0.74740525       0.75346460 </v>
   <v>       0.26430393       0.74464169       0.75314938 </v>
   <v>       0.49420648       0.76368731       0.75408651 </v>
   <v>       0.74964205       0.74601388       0.75627780 </v>
   <v>       0.06842189       0.05671611       0.05937768 </v>
   <v>       0.32262663       0.05811277       0.05494400 </v>
   <v>       0.56744180       0.06129972       0.06939529 </v>
   <v>       0.82175437       0.05684616       0.05852758 </v>
   <v>       0.05581944       0.30414920       0.07421826 </v>
   <v>       0.31160981       0.32170067       0.05561310 </v>
   <v>       0.55722658       0.32056182       0.06460880 </v>
   <v>       0.81473324       0.30883729       0.06167347 </v>
   <v>       0.07192043       0.55114787       0.06832657 </v>
   <v>       0.30897028       0.56411756       0.06982423 </v>
   <v>       0.56237539       0.56714988       0.05878621 </v>
   <v>       0.81430974       0.55848835       0.06359366 </v>
   <v>       0.06344424       0.80709264       0.06973145 </v>
   <v>       0.31002660       0.81435644       0.06735089 </v>
   <v>       0.56754444       0.81705638       0.05560017 </v>
   <v>       0.81659687       0.80762753       0.07343178 </v>
   <v>       0.05853892       0.06686190       0.30852907 </v>
   <v>       0.31423706       0.05336402       0.31172644 </v>
   <v>       0.55707793       0.05832340       0.30511835 </v>
   <v>       0.81614642       0.05426115       0.30520612 </v>
   <v>       0.06257477       0.31459543       0.31473049 </v>
   <v>       0.29649409       0.31282587       0.31787821 </v>
   <v>       0.56689871       0.30953769       0.30540830 </v>
   <v>       0.81550820       0.31085543       0.31465145 </v>
   <v>       0.05612526       0.57017992       0.31255972 </v>
   <v>       0.30900651       0.56976555       0.30981836 </v>
   <v>       0.56347014       0.57341485       0.30988164 </v>
   <v>       0.81555736       0.56041683       0.32112297 </v>
   <v>       0.06352667       0.81816666       0.31085446 </v>
   <v>       0.32152953       0.80615803       0.30884240 </v>
   <v>       0.56039001       0.81935596       0.31225992 </v>
   <v>       0.80948944       0.81700130       0.30615401 </v>
   <v>       0.06174373       0.06635715       0.55507750 </v>
   <v>       0.31720081       0.07031597       0.55432262 </v>
   <v>       0.55510032       0.06853194       0.57787436 </v>
   <v>       0.80878505       0.06245405       0.56141084 </v>
   <v>       0.06028578       0.30911754       0.56992539 </v>
   <v>       0.31373904       0.30634825       0.56284670 </v>
   <v>       0.56311729       0.30134897       0.56688691 </v>
   <v>       0.80778935       0.31537751       0.55865918 </v>
   <v>       0.06356768       0.56932635       0.56148639 </v>
   <v>       0.31581136       0.57654901       0.54509460 </v>
   <v>       0.55627685       0.56316904       0.56629078 </v>
   <v>       0.82227416       0.55516497       0.56405998 </v>
   <v>       0.06527282       0.81289643       0.57146650 </v>
   <v>       0.31926434       0.81412338       0.56091090 </v>
   <v>       0.55985070       0.80597749       0.57515968 </v>
   <v>       0.81010230       0.81807388       0.56494397 </v>
   <v>       0.05677601       0.07627624       0.80454423 </v>
   <v>       0.31578949       0.05624932       0.80574977 </v>
   <v>       0.57056008       0.06594996       0.81291124 </v>
   <v>       0.81902691       0.05917888       0.80256301 </v>
   <v>       0.05653893       0.31228055       0.81971538 </v>
   <v>       0.30294148       0.30799540       0.82151365 </v>
   <v>       0.55417474       0.30522433       0.83395081 </v>
   <v>       0.82629149       0.30460151       0.80480829 </v>
   <v>       0.06205945       0.56119560       0.81165378 </v>
   <v>       0.30970235       0.56632612       0.81571487 </v>
   <v>       0.56555022       0.56061293       0.80544865 </v>
   <v>       0.80351830       0.57374756       0.80626517 </v>
   <v>       0.06483601       0.81501127       0.81604875 </v>
   <v>       0.31088215       0.80719577       0.82070040 </v>
   <v>       0.55107384       0.81468268       0.82212887 </v>
   <v>       0.81063793       0.80859610       0.81614873 </v>
  </varray>
 </structure>
</modeling>
