potpaw_PBE@./ARUN.APL1ZEROSTATE         
           1
     0.000000   10.937334   10.937334
    10.937334    0.000000   10.937334
    10.937334   10.937334    0.000000
   Si
 128
Direct configuration=     1
   0.00148858  0.99128018  0.00634185
   0.25440195  0.98805548  0.99645453
   0.50247325  0.00828024  0.98990646
   0.75039846  0.99827667  0.00662571
   0.00799163  0.24704909  0.99731911
   0.25970907  0.23867610  0.00398394
   0.49594798  0.24060845  0.00874921
   0.75101365  0.25464928  0.98990683
   0.01699655  0.49025582  0.99232526
   0.25515494  0.50336546  0.00359903
   0.49172899  0.49690993  0.00419473
   0.74137204  0.51201762  0.99278591
   0.00857173  0.75572098  0.99349153
   0.25548531  0.76064748  0.00079688
   0.49485612  0.75445389  0.00296144
   0.74763898  0.73753700  0.00104283
   0.99985438  0.99904566  0.25230280
   0.25829774  0.00175506  0.24636860
   0.49622339  0.00329016  0.24730912
   0.74422128  0.99567465  0.25909369
   0.00451789  0.24547476  0.25325427
   0.25980481  0.23645356  0.24916316
   0.49215211  0.25485407  0.24443232
   0.74496345  0.25559374  0.24661356
   0.00987293  0.50458557  0.24037557
   0.24721201  0.50883847  0.24117426
   0.51463469  0.49733105  0.24871044
   0.74762499  0.51006656  0.24193896
   0.99305311  0.75809924  0.24865258
   0.24708097  0.75631393  0.24718824
   0.49620872  0.75355979  0.25442908
   0.74761054  0.74940066  0.24781737
   0.00745139  0.99822031  0.49205893
   0.24625827  0.99542188  0.50461898
   0.50087743  0.00893617  0.49181652
   0.76015987  0.00234264  0.49252621
   0.00162041  0.25123958  0.50095479
   0.23260601  0.25510011  0.49825019
   0.49203227  0.26036197  0.49323893
   0.75096936  0.25246557  0.49721806
   0.00773817  0.50346514  0.49999796
   0.25385354  0.49984245  0.51502067
   0.50282451  0.49821389  0.49636158
   0.75531053  0.50505847  0.50439485
   0.99657281  0.75403599  0.49215331
   0.25864754  0.75216824  0.50213782
   0.50411717  0.74819038  0.49361959
   0.74891533  0.74860079  0.50474937
   0.00253883  0.00227624  0.74022310
   0.24419419  0.00818739  0.74540945
   0.49226065  0.00332817  0.75309936
   0.74809912  0.00294463  0.75072215
   0.00347777  0.25681692  0.74639538
   0.23416089  0.25304649  0.76176416
   0.49110205  0.25982060  0.76051518
   0.75843208  0.24600392  0.74498741
   0.99161216  0.50169809  0.74644065
   0.24694249  0.51126293  0.74440833
   0.50527270  0.49239792  0.75040942
   0.75166006  0.49348641  0.76048914
   0.99995214  0.74740525  0.75346460
   0.26430393  0.74464169  0.75314938
   0.49420648  0.76368731  0.75408651
   0.74964205  0.74601388  0.75627780
   0.06842189  0.05671611  0.05937768
   0.32262663  0.05811277  0.05494400
   0.56744180  0.06129972  0.06939529
   0.82175437  0.05684616  0.05852758
   0.05581944  0.30414920  0.07421826
   0.31160981  0.32170067  0.05561310
   0.55722658  0.32056182  0.06460880
   0.81473324  0.30883729  0.06167347
   0.07192043  0.55114787  0.06832657
   0.30897028  0.56411756  0.06982423
   0.56237539  0.56714988  0.05878621
   0.81430974  0.55848835  0.06359366
   0.06344424  0.80709264  0.06973145
   0.31002660  0.81435644  0.06735089
   0.56754444  0.81705638  0.05560017
   0.81659687  0.80762753  0.07343178
   0.05853892  0.06686190  0.30852907
   0.31423706  0.05336402  0.31172644
   0.55707793  0.05832340  0.30511835
   0.81614642  0.05426115  0.30520612
   0.06257477  0.31459543  0.31473049
   0.29649409  0.31282587  0.31787821
   0.56689871  0.30953769  0.30540830
   0.81550820  0.31085543  0.31465145
   0.05612526  0.57017992  0.31255972
   0.30900651  0.56976555  0.30981836
   0.56347014  0.57341485  0.30988164
   0.81555736  0.56041683  0.32112297
   0.06352667  0.81816666  0.31085446
   0.32152953  0.80615803  0.30884240
   0.56039001  0.81935596  0.31225992
   0.80948944  0.81700130  0.30615401
   0.06174373  0.06635715  0.55507750
   0.31720081  0.07031597  0.55432262
   0.55510032  0.06853194  0.57787436
   0.80878505  0.06245405  0.56141084
   0.06028578  0.30911754  0.56992539
   0.31373904  0.30634825  0.56284670
   0.56311729  0.30134897  0.56688691
   0.80778935  0.31537751  0.55865918
   0.06356768  0.56932635  0.56148639
   0.31581136  0.57654901  0.54509460
   0.55627685  0.56316904  0.56629078
   0.82227416  0.55516497  0.56405998
   0.06527282  0.81289643  0.57146650
   0.31926434  0.81412338  0.56091090
   0.55985070  0.80597749  0.57515968
   0.81010230  0.81807388  0.56494397
   0.05677601  0.07627624  0.80454423
   0.31578949  0.05624932  0.80574977
   0.57056008  0.06594996  0.81291124
   0.81902691  0.05917888  0.80256301
   0.05653893  0.31228055  0.81971538
   0.30294148  0.30799540  0.82151365
   0.55417474  0.30522433  0.83395081
   0.82629149  0.30460151  0.80480829
   0.06205945  0.56119560  0.81165378
   0.30970235  0.56632612  0.81571487
   0.56555022  0.56061293  0.80544865
   0.80351830  0.57374756  0.80626517
   0.06483601  0.81501127  0.81604875
   0.31088215  0.80719577  0.82070040
   0.55107384  0.81468268  0.82212887
   0.81063793  0.80859610  0.81614873
