 128 128   0   0
  0.2044346E+02  0.1546773E-08  0.1546773E-08  0.1546773E-08  0.5000000E-15
  1.000000000000000E-004
  CAR 
 potpaw_PBE@./ARUN.APL1ZEROSTATE         
      9.35882258     -7.05053048  301      5.98123074      1.00000000
     -7.051  0.0000E+00  0.0000E+00
     -6.996  0.0000E+00  0.0000E+00
     -6.941  0.0000E+00  0.0000E+00
     -6.886  0.0000E+00  0.0000E+00
     -6.832  0.0000E+00  0.0000E+00
     -6.777  0.0000E+00  0.0000E+00
     -6.722  0.0000E+00  0.0000E+00
     -6.668  0.0000E+00  0.0000E+00
     -6.613  0.0000E+00  0.0000E+00
     -6.558  0.0000E+00  0.0000E+00
     -6.504  0.0000E+00  0.0000E+00
     -6.449  0.0000E+00  0.0000E+00
     -6.394  0.0000E+00  0.0000E+00
     -6.339  0.1952E-05  0.1068E-06
     -6.285  0.4559E+01  0.2494E+00
     -6.230  0.1122E-01  0.2500E+00
     -6.175  0.3068E-03  0.2500E+00
     -6.121  0.1820E+02  0.1246E+01
     -6.066  0.3012E+02  0.2893E+01
     -6.011  0.1153E+02  0.3524E+01
     -5.957  0.4131E+01  0.3750E+01
     -5.902  0.3751E-08  0.3750E+01
     -5.847  0.9677E+01  0.4279E+01
     -5.792  0.1488E+02  0.5093E+01
     -5.738  0.2353E+02  0.6380E+01
     -5.683  0.2128E+02  0.7544E+01
     -5.628  0.2412E+02  0.8863E+01
     -5.574  0.4124E+02  0.1112E+02
     -5.519  0.2955E+02  0.1274E+02
     -5.464  0.2764E+02  0.1425E+02
     -5.410  0.5555E+01  0.1455E+02
     -5.355  0.3631E+01  0.1475E+02
     -5.300  0.4110E+01  0.1497E+02
     -5.246  0.1352E+02  0.1571E+02
     -5.191  0.2591E+02  0.1713E+02
     -5.136  0.3616E+02  0.1911E+02
     -5.081  0.5132E+02  0.2192E+02
     -5.027  0.4801E+02  0.2454E+02
     -4.972  0.3083E+02  0.2623E+02
     -4.917  0.2605E+02  0.2765E+02
     -4.863  0.2217E+02  0.2887E+02
     -4.808  0.1620E+02  0.2975E+02
     -4.753  0.3852E+02  0.3186E+02
     -4.699  0.2824E+02  0.3340E+02
     -4.644  0.4509E+02  0.3587E+02
     -4.589  0.5163E+02  0.3869E+02
     -4.534  0.2587E+02  0.4011E+02
     -4.480  0.1560E+02  0.4096E+02
     -4.425  0.3201E+02  0.4271E+02
     -4.370  0.2168E+02  0.4390E+02
     -4.316  0.1887E+02  0.4493E+02
     -4.261  0.5198E+02  0.4778E+02
     -4.206  0.5473E+02  0.5077E+02
     -4.152  0.5140E+02  0.5358E+02
     -4.097  0.6910E+02  0.5736E+02
     -4.042  0.4350E+02  0.5974E+02
     -3.987  0.4757E+02  0.6234E+02
     -3.933  0.4156E+02  0.6462E+02
     -3.878  0.5153E+02  0.6743E+02
     -3.823  0.5237E+02  0.7030E+02
     -3.769  0.4511E+02  0.7277E+02
     -3.714  0.3935E+02  0.7492E+02
     -3.659  0.4822E+02  0.7756E+02
     -3.605  0.3864E+02  0.7967E+02
     -3.550  0.3752E+02  0.8172E+02
     -3.495  0.3136E+02  0.8344E+02
     -3.440  0.5769E+02  0.8659E+02
     -3.386  0.5032E+02  0.8934E+02
     -3.331  0.5977E+02  0.9261E+02
     -3.276  0.4370E+02  0.9500E+02
     -3.222  0.3102E+02  0.9670E+02
     -3.167  0.3175E+02  0.9844E+02
     -3.112  0.3640E+02  0.1004E+03
     -3.058  0.5286E+02  0.1033E+03
     -3.003  0.4295E+02  0.1057E+03
     -2.948  0.4035E+02  0.1079E+03
     -2.893  0.3752E+02  0.1099E+03
     -2.839  0.3827E+02  0.1120E+03
     -2.784  0.3021E+02  0.1137E+03
     -2.729  0.2422E+02  0.1150E+03
     -2.675  0.2702E+02  0.1165E+03
     -2.620  0.5863E+02  0.1197E+03
     -2.565  0.2800E+02  0.1212E+03
     -2.511  0.1665E+02  0.1221E+03
     -2.456  0.7871E+01  0.1226E+03
     -2.401  0.6592E+01  0.1229E+03
     -2.347  0.1507E+01  0.1230E+03
     -2.292  0.8997E+01  0.1235E+03
     -2.237  0.5453E+01  0.1238E+03
     -2.182  0.2496E+02  0.1252E+03
     -2.128  0.2795E+02  0.1267E+03
     -2.073  0.3299E+02  0.1285E+03
     -2.018  0.2861E+02  0.1301E+03
     -1.964  0.2801E+02  0.1316E+03
     -1.909  0.1660E+02  0.1325E+03
     -1.854  0.3421E+01  0.1327E+03
     -1.800  0.9689E+01  0.1332E+03
     -1.745  0.7104E+00  0.1333E+03
     -1.690  0.3531E+01  0.1334E+03
     -1.635  0.1608E+02  0.1343E+03
     -1.581  0.2231E+02  0.1355E+03
     -1.526  0.4284E+02  0.1379E+03
     -1.471  0.3816E+02  0.1400E+03
     -1.417  0.3403E+02  0.1418E+03
     -1.362  0.5566E+02  0.1449E+03
     -1.307  0.5604E+02  0.1479E+03
     -1.253  0.6603E+02  0.1516E+03
     -1.198  0.5607E+02  0.1546E+03
     -1.143  0.6042E+02  0.1579E+03
     -1.088  0.5522E+02  0.1609E+03
     -1.034  0.6158E+02  0.1643E+03
     -0.979  0.5170E+02  0.1671E+03
     -0.924  0.7658E+02  0.1713E+03
     -0.870  0.6445E+02  0.1749E+03
     -0.815  0.5550E+02  0.1779E+03
     -0.760  0.5688E+02  0.1810E+03
     -0.706  0.4211E+02  0.1833E+03
     -0.651  0.4876E+02  0.1860E+03
     -0.596  0.3702E+02  0.1880E+03
     -0.541  0.2566E+02  0.1894E+03
     -0.487  0.1922E+02  0.1905E+03
     -0.432  0.1780E+02  0.1914E+03
     -0.377  0.3312E+02  0.1932E+03
     -0.323  0.5307E+02  0.1961E+03
     -0.268  0.5680E+02  0.1993E+03
     -0.213  0.4044E+02  0.2015E+03
     -0.159  0.5972E+02  0.2047E+03
     -0.104  0.3038E+02  0.2064E+03
     -0.049  0.4660E+02  0.2089E+03
      0.005  0.2976E+02  0.2106E+03
      0.060  0.3610E+02  0.2125E+03
      0.115  0.2246E+02  0.2138E+03
      0.170  0.8751E+01  0.2143E+03
      0.224  0.9367E+01  0.2148E+03
      0.279  0.1955E+02  0.2158E+03
      0.334  0.2589E+02  0.2172E+03
      0.388  0.2842E+02  0.2188E+03
      0.443  0.1835E+02  0.2198E+03
      0.498  0.1580E+02  0.2207E+03
      0.552  0.4089E+02  0.2229E+03
      0.607  0.1247E+02  0.2236E+03
      0.662  0.2323E+02  0.2249E+03
      0.717  0.1284E+02  0.2256E+03
      0.771  0.1883E+02  0.2266E+03
      0.826  0.1663E+02  0.2275E+03
      0.881  0.1166E+02  0.2281E+03
      0.935  0.2851E+02  0.2297E+03
      0.990  0.1283E+02  0.2304E+03
      1.045  0.2358E+02  0.2317E+03
      1.099  0.2199E+02  0.2329E+03
      1.154  0.3842E+02  0.2350E+03
      1.209  0.1849E+02  0.2360E+03
      1.264  0.3139E+02  0.2377E+03
      1.318  0.1834E+02  0.2387E+03
      1.373  0.3820E+02  0.2408E+03
      1.428  0.2895E+02  0.2424E+03
      1.482  0.7813E+02  0.2467E+03
      1.537  0.8193E+02  0.2512E+03
      1.592  0.1001E+03  0.2566E+03
      1.646  0.8795E+02  0.2614E+03
      1.701  0.6837E+02  0.2652E+03
      1.756  0.4872E+02  0.2678E+03
      1.811  0.5730E+02  0.2710E+03
      1.865  0.3014E+02  0.2726E+03
      1.920  0.1893E+02  0.2737E+03
      1.975  0.1744E+02  0.2746E+03
      2.029  0.3205E+02  0.2764E+03
      2.084  0.7895E+02  0.2807E+03
      2.139  0.8564E+02  0.2854E+03
      2.193  0.1129E+03  0.2916E+03
      2.248  0.1238E+03  0.2983E+03
      2.303  0.1217E+03  0.3050E+03
      2.357  0.1309E+03  0.3121E+03
      2.412  0.9028E+02  0.3171E+03
      2.467  0.6566E+02  0.3207E+03
      2.522  0.4064E+02  0.3229E+03
      2.576  0.3275E+02  0.3247E+03
      2.631  0.4489E+02  0.3271E+03
      2.686  0.6723E+02  0.3308E+03
      2.740  0.8415E+02  0.3354E+03
      2.795  0.8510E+02  0.3401E+03
      2.850  0.8428E+02  0.3447E+03
      2.904  0.1014E+03  0.3502E+03
      2.959  0.8994E+02  0.3551E+03
      3.014  0.1054E+03  0.3609E+03
      3.069  0.1008E+03  0.3664E+03
      3.123  0.8683E+02  0.3712E+03
      3.178  0.6025E+02  0.3745E+03
      3.233  0.8038E+02  0.3789E+03
      3.287  0.1028E+03  0.3845E+03
      3.342  0.9011E+02  0.3894E+03
      3.397  0.8492E+02  0.3941E+03
      3.451  0.8351E+02  0.3986E+03
      3.506  0.1015E+03  0.4042E+03
      3.561  0.7444E+02  0.4083E+03
      3.616  0.8861E+02  0.4131E+03
      3.670  0.7455E+02  0.4172E+03
      3.725  0.6898E+02  0.4210E+03
      3.780  0.7942E+02  0.4253E+03
      3.834  0.9930E+02  0.4307E+03
      3.889  0.7462E+02  0.4348E+03
      3.944  0.7266E+02  0.4388E+03
      3.998  0.6175E+02  0.4422E+03
      4.053  0.7496E+02  0.4463E+03
      4.108  0.5532E+02  0.4493E+03
      4.163  0.7033E+02  0.4531E+03
      4.217  0.7806E+02  0.4574E+03
      4.272  0.7333E+02  0.4614E+03
      4.327  0.8273E+02  0.4659E+03
      4.381  0.7094E+02  0.4698E+03
      4.436  0.7507E+02  0.4739E+03
      4.491  0.5545E+02  0.4770E+03
      4.545  0.6483E+02  0.4805E+03
      4.600  0.6757E+02  0.4842E+03
      4.655  0.4185E+02  0.4865E+03
      4.710  0.4764E+02  0.4891E+03
      4.764  0.2598E+02  0.4905E+03
      4.819  0.3804E+02  0.4926E+03
      4.874  0.2538E+02  0.4940E+03
      4.928  0.2592E+02  0.4954E+03
      4.983  0.3933E+02  0.4976E+03
      5.038  0.4395E+02  0.5000E+03
      5.092  0.2631E+02  0.5014E+03
      5.147  0.2137E+02  0.5026E+03
      5.202  0.2145E+02  0.5037E+03
      5.256  0.8016E+01  0.5042E+03
      5.311  0.5657E+01  0.5045E+03
      5.366  0.2052E+02  0.5056E+03
      5.421  0.3372E+02  0.5075E+03
      5.475  0.5253E+01  0.5078E+03
      5.530  0.2123E+02  0.5089E+03
      5.585  0.1942E+02  0.5100E+03
      5.639  0.1625E+02  0.5109E+03
      5.694  0.1148E+02  0.5115E+03
      5.749  0.3986E+01  0.5117E+03
      5.803  0.7316E+00  0.5118E+03
      5.858  0.2662E-10  0.5118E+03
      5.913  0.3790E+01  0.5120E+03
      5.968  0.7807E+00  0.5120E+03
      6.022  0.0000E+00  0.5120E+03
      6.077  0.4054E-03  0.5120E+03
      6.132  0.8247E+01  0.5125E+03
      6.186  0.1758E+02  0.5134E+03
      6.241  0.1472E+02  0.5142E+03
      6.296  0.1523E+02  0.5151E+03
      6.350  0.1756E+02  0.5160E+03
      6.405  0.3095E+02  0.5177E+03
      6.460  0.2405E+02  0.5190E+03
      6.515  0.2097E+02  0.5202E+03
      6.569  0.2289E+02  0.5214E+03
      6.624  0.6764E+01  0.5218E+03
      6.679  0.3327E+02  0.5236E+03
      6.733  0.3333E+02  0.5254E+03
      6.788  0.2357E+02  0.5267E+03
      6.843  0.3180E+02  0.5285E+03
      6.897  0.3505E+02  0.5304E+03
      6.952  0.3822E+02  0.5325E+03
      7.007  0.3804E+02  0.5345E+03
      7.062  0.4040E+02  0.5368E+03
      7.116  0.4281E+02  0.5391E+03
      7.171  0.2018E+02  0.5402E+03
      7.226  0.5262E+02  0.5431E+03
      7.280  0.5467E+02  0.5461E+03
      7.335  0.7213E+02  0.5500E+03
      7.390  0.7245E+02  0.5540E+03
      7.444  0.6548E+02  0.5576E+03
      7.499  0.9545E+02  0.5628E+03
      7.554  0.8357E+02  0.5674E+03
      7.608  0.8492E+02  0.5720E+03
      7.663  0.8306E+02  0.5765E+03
      7.718  0.9890E+02  0.5820E+03
      7.773  0.9275E+02  0.5870E+03
      7.827  0.8609E+02  0.5917E+03
      7.882  0.1035E+03  0.5974E+03
      7.937  0.8754E+02  0.6022E+03
      7.991  0.8436E+02  0.6068E+03
      8.046  0.9053E+02  0.6118E+03
      8.101  0.8373E+02  0.6163E+03
      8.155  0.8659E+02  0.6211E+03
      8.210  0.8264E+02  0.6256E+03
      8.265  0.9262E+02  0.6307E+03
      8.320  0.7539E+02  0.6348E+03
      8.374  0.8159E+02  0.6392E+03
      8.429  0.5341E+02  0.6422E+03
      8.484  0.1989E+02  0.6432E+03
      8.538  0.4347E+01  0.6435E+03
      8.593  0.4810E+01  0.6438E+03
      8.648  0.4559E+01  0.6440E+03
      8.702  0.0000E+00  0.6440E+03
      8.757  0.0000E+00  0.6440E+03
      8.812  0.0000E+00  0.6440E+03
      8.867  0.0000E+00  0.6440E+03
      8.921  0.0000E+00  0.6440E+03
      8.976  0.0000E+00  0.6440E+03
      9.031  0.0000E+00  0.6440E+03
      9.085  0.0000E+00  0.6440E+03
      9.140  0.0000E+00  0.6440E+03
      9.195  0.0000E+00  0.6440E+03
      9.249  0.0000E+00  0.6440E+03
      9.304  0.0000E+00  0.6440E+03
      9.359  0.0000E+00  0.6440E+03
