 vasp.5.4.4.18Apr17-6-g9f103f2a35 (build Nov 08 2017 09:05:29) complex          
  
 executed on          Intel_17.33 date 2020.07.18  22:40:39
 running on   32 total cores
 distrk:  each k-point on   32 cores,    1 groups
 distr:  one band on NCORES_PER_BAND=  16 cores,    2 groups


--------------------------------------------------------------------------------------------------------


 INCAR:
 POTCAR:   PAW_PBE Si 05Jan2001                   

 ----------------------------------------------------------------------------- 
|                                                                             |
|           W    W    AA    RRRRR   N    N  II  N    N   GGGG   !!!           |
|           W    W   A  A   R    R  NN   N  II  NN   N  G    G  !!!           |
|           W    W  A    A  R    R  N N  N  II  N N  N  G       !!!           |
|           W WW W  AAAAAA  RRRRR   N  N N  II  N  N N  G  GGG   !            |
|           WW  WW  A    A  R   R   N   NN  II  N   NN  G    G                |
|           W    W  A    A  R    R  N    N  II  N    N   GGGG   !!!           |
|                                                                             |
|      For optimal performance we recommend to set                            |
|        NCORE= 4 - approx SQRT( number of cores)                             |
|      NCORE specifies how many cores store one orbital (NPAR=cpu/NCORE).     |
|      This setting can  greatly improve the performance of VASP for DFT.     |
|      The default,   NCORE=1            might be grossly inefficient         |
|      on modern multi-core architectures or massively parallel machines.     |
|      Do your own testing !!!!                                               |
|      Unfortunately you need to use the default for GW and RPA calculations. |
|      (for HF NCORE is supported but not extensively tested yet)             |
|                                                                             |
 ----------------------------------------------------------------------------- 

 POTCAR:   PAW_PBE Si 05Jan2001                   
   VRHFIN =Si: s2p2                                                             
   LEXCH  = PE                                                                  
   EATOM  =   103.0669 eV,    7.5752 Ry                                         
                                                                                
   TITEL  = PAW_PBE Si 05Jan2001                                                
   LULTRA =        F    use ultrasoft PP ?                                      
   IUNSCR =        1    unscreen: 0-lin 1-nonlin 2-no                           
   RPACOR =    1.500    partial core radius                                     
   POMASS =   28.085; ZVAL   =    4.000    mass and valenz                      
   RCORE  =    1.900    outmost cutoff radius                                   
   RWIGS  =    2.480; RWIGS  =    1.312    wigner-seitz radius (au A)           
   ENMAX  =  245.345; ENMIN  =  184.009 eV                                      
   ICORE  =        2    local potential                                         
   LCOR   =        T    correct aug charges                                     
   LPAW   =        T    paw PP                                                  
   EAUG   =  322.069                                                            
   DEXC   =    -.007                                                            
   RMAX   =    2.944    core radius for proj-oper                               
   RAUG   =    1.300    factor for augmentation sphere                          
   RDEP   =    1.993    radius for radial grids                                 
   QCUT   =   -4.246; QGAM   =    8.493    optimization parameters              
                                                                                
   Description                                                                  
     l     E      TYP  RCUT    TYP  RCUT                                        
     0   .000     23  1.900                                                     
     0   .000     23  1.900                                                     
     1   .000     23  1.900                                                     
     1   .000     23  1.900                                                     
     2   .000      7  1.900                                                     
  local pseudopotential read in
  partial core-charges read in
  atomic valenz-charges read in
  non local Contribution for L=           0  read in
    real space projection operators read in
  non local Contribution for L=           0  read in
    real space projection operators read in
  non local Contribution for L=           1  read in
    real space projection operators read in
  non local Contribution for L=           1  read in
    real space projection operators read in
    PAW grid and wavefunctions read in
 
   number of l-projection  operators is LMAX  =           4
   number of lm-projection operators is LMMAX =           8
 

 ----------------------------------------------------------------------------- 
|                                                                             |
|  ADVICE TO THIS USER RUNNING 'VASP/VAMP'   (HEAR YOUR MASTER'S VOICE ...):  |
|                                                                             |
|      You have a (more or less) 'large supercell' and for larger cells       |
|      it might be more efficient to use real space projection operators      |
|      So try LREAL= Auto  in the INCAR   file.                               |
|      Mind: If you want to do a very accurate calculations keep the          |
|      reciprocal projection scheme          (i.e. LREAL=.FALSE.)             |
|                                                                             |
 ----------------------------------------------------------------------------- 

 PAW_PBE Si 05Jan2001                   :
 energy of atom  1       EATOM= -103.0669
 kinetic energy error for atom=    0.0006 (will be added to EATOM!!)
 
 
 POSCAR: kk                                      
  positions in direct lattice
  No initial velocities read in
 exchange correlation table for  LEXCH =        8
   RHO(1)=    0.500       N(1)  =     2000
   RHO(2)=  100.500       N(2)  =     4000
 


--------------------------------------------------------------------------------------------------------


 ion  position               nearest neighbor table
   1  0.995  0.002  0.007-  68 2.29  65 2.33  77 2.42 113 2.54
   2  0.242  0.998  0.002-  65 2.32  66 2.41 114 2.41  78 2.45
   3  0.496  0.008  0.990-  67 2.27  66 2.30 115 2.38  79 2.46
   4  0.750  0.995  0.996-  80 2.26 116 2.43  67 2.50  68 2.54
   5  0.988  0.253  0.004-  69 2.41 117 2.42  65 2.42  72 2.47
   6  0.249  0.246  0.008-  70 2.25  69 2.26  66 2.43 118 2.61
   7  0.498  0.246  0.996-  70 2.26  67 2.34 119 2.39  71 2.55
   8  0.747  0.253  0.995-  72 2.21 120 2.23  71 2.25  68 2.40
   9  1.000  0.506  0.993- 121 2.24  76 2.40  73 2.58  69 2.65
  10  0.249  0.502  1.000-  73 2.24 122 2.26  70 2.39  74 2.41
  11  0.503  0.511  0.997-  75 2.14  74 2.41  71 2.50 123 2.51
  12  0.734  0.500  0.015-  75 2.15  72 2.40 124 2.50  76 2.54
  13  0.997  0.752  0.996-  80 2.25  73 2.32 125 2.37  77 2.42
  14  0.260  0.752  0.001-  78 2.12 126 2.25  74 2.36  77 2.58
  15  0.506  0.742  0.001- 127 2.28  79 2.31  75 2.39  78 2.43
  16  0.737  0.756  0.009-  79 2.27  80 2.28 128 2.41  76 2.49
  17  0.002  0.999  0.250-  65 2.27  84 2.32  93 2.33  81 2.46
  18  0.247  0.003  0.248-  81 2.26  66 2.32  94 2.35  82 2.38
  19  0.498  0.009  0.257-  83 2.20  82 2.29  95 2.47  67 2.51
  20  0.744  0.010  0.257-  83 2.26  68 2.44  84 2.44  96 2.52
  21  0.012  0.242  0.241-  69 2.18  81 2.29  85 2.36  88 2.58
  22  0.258  0.248  0.245-  85 2.37  86 2.40  82 2.41  70 2.48
  23  0.502  0.248  0.260-  87 2.28  86 2.42  83 2.42  71 2.52
  24  0.754  0.240  0.254-  84 2.19  72 2.40  88 2.47  87 2.53
  25  0.001  0.505  0.253-  89 2.20  92 2.39  73 2.42  85 2.68
  26  0.251  0.498  0.248-  86 2.25  74 2.32  89 2.34  90 2.55
  27  0.492  0.498  0.248-  87 2.18  90 2.21  75 2.35  91 2.41
  28  0.753  0.490  0.262-  88 2.19  76 2.31  92 2.33  91 2.44
  29  0.999  0.754  0.245-  77 2.22  93 2.25  96 2.36  89 2.44
  30  0.245  0.759  0.245-  78 2.30  94 2.32  93 2.51  90 2.60
  31  0.495  0.754  0.258-  95 2.19  94 2.36  91 2.41  79 2.48
  32  0.756  0.749  0.236-  92 2.27  80 2.42  96 2.49  95 2.51
  33  0.992  0.999  0.506-  97 2.35  81 2.41 109 2.41 100 2.42
  34  0.251  0.994  0.505-  98 2.35  97 2.37 110 2.37  82 2.47
  35  0.503  0.995  0.501- 111 2.19  99 2.29  98 2.33  83 2.34
  36  0.752  0.991  0.498-  84 2.31 112 2.32  99 2.39 100 2.46
  37  0.994  0.269  0.497- 104 2.28  85 2.33 101 2.37  97 2.61
  38  0.251  0.252  0.490-  86 2.28  98 2.29 102 2.44 101 2.44
  39  0.506  0.258  0.497- 103 2.13  87 2.37 102 2.39  99 2.57
  40  0.754  0.248  0.503- 100 2.27 104 2.33  88 2.33 103 2.34
  41  0.992  0.499  0.507- 108 2.24 101 2.35  89 2.51 105 2.59
  42  0.248  0.508  0.500- 105 2.19  90 2.22 106 2.27 102 2.57
  43  0.491  0.508  0.493- 106 2.35  91 2.41 107 2.44 103 2.60
  44  0.748  0.519  0.493- 108 2.29  92 2.35 107 2.44 104 2.54
  45  0.992  0.755  0.497- 112 2.27  93 2.32 105 2.33 109 2.43
  46  0.247  0.748  0.492- 106 2.25  94 2.33 109 2.37 110 2.55
  47  0.496  0.749  0.509- 107 2.24 110 2.28 111 2.28  95 2.53
  48  0.753  0.745  0.504- 108 2.24 112 2.31 111 2.35  96 2.39
  49  0.993  0.998  0.762- 113 2.27 125 2.33 116 2.33  97 2.61
  50  0.247  0.995  0.758- 126 2.33 113 2.41 114 2.46  98 2.70
  51  0.487  0.011  0.762- 114 2.18 115 2.23  99 2.53 127 2.56
  52  0.755  0.002  0.746- 100 2.27 116 2.30 115 2.36 128 2.51
  53  0.996  0.258  0.751- 101 2.23 117 2.35 113 2.41 120 2.43
  54  0.246  0.252  0.754- 117 2.32 114 2.33 102 2.43 118 2.47
  55  0.488  0.261  0.756- 118 2.17 119 2.22 115 2.52 103 2.53
  56  0.749  0.256  0.737- 104 2.27 119 2.33 116 2.35 120 2.35
  57  0.004  0.495  0.754- 117 2.28 124 2.43 121 2.50 105 2.51
  58  0.260  0.502  0.744- 118 2.18 106 2.33 121 2.34 122 2.36
  59  0.501  0.511  0.740- 123 2.23 107 2.29 122 2.42 119 2.55
  60  0.760  0.503  0.734- 108 2.24 123 2.36 124 2.39 120 2.53
  61  0.010  0.749  0.743- 109 2.22 125 2.29 121 2.42 128 2.58
  62  0.250  0.744  0.751- 122 2.30 110 2.33 125 2.38 126 2.46
  63  0.490  0.753  0.750- 127 2.31 126 2.36 123 2.54 111 2.67
  64  0.753  0.750  0.741- 112 2.22 128 2.35 124 2.47 127 2.61
  65  0.058  0.061  0.070-  17 2.27   2 2.32   1 2.33   5 2.42
  66  0.314  0.054  0.064-   3 2.30  18 2.32   2 2.41   6 2.43
  67  0.552  0.061  0.060-   3 2.27   7 2.34   4 2.50  19 2.51
  68  0.814  0.063  0.064-   1 2.29   8 2.40  20 2.44   4 2.54
  69  0.071  0.297  0.068-  21 2.18   6 2.26   5 2.41   9 2.65
  70  0.320  0.313  0.048-   6 2.25   7 2.26  10 2.39  22 2.48
  71  0.569  0.313  0.061-   8 2.25  11 2.50  23 2.52   7 2.55
  72  0.793  0.311  0.065-   8 2.21  12 2.40  24 2.40   5 2.47
  73  0.072  0.569  0.062-  10 2.24  13 2.32  25 2.42   9 2.58
  74  0.312  0.566  0.065-  26 2.32  14 2.36  11 2.41  10 2.41
  75  0.564  0.554  0.062-  11 2.14  12 2.15  27 2.35  15 2.39
  76  0.811  0.559  0.080-  28 2.31   9 2.40  16 2.49  12 2.54
  77  0.056  0.811  0.070-  29 2.22   1 2.42  13 2.42  14 2.58
  78  0.313  0.804  0.063-  14 2.12  30 2.30  15 2.43   2 2.45
  79  0.557  0.812  0.061-  16 2.27  15 2.31   3 2.46  31 2.48
  80  0.820  0.816  0.045-  13 2.25   4 2.26  16 2.28  32 2.42
  81  0.068  0.062  0.316-  18 2.26  21 2.29  33 2.41  17 2.46
  82  0.318  0.057  0.310-  19 2.29  18 2.38  22 2.41  34 2.47
  83  0.566  0.057  0.315-  19 2.20  20 2.26  35 2.34  23 2.42
  84  0.819  0.067  0.317-  24 2.19  36 2.31  17 2.32  20 2.44
  85  0.071  0.294  0.317-  37 2.33  21 2.36  22 2.37  25 2.68
  86  0.311  0.319  0.310-  26 2.25  38 2.28  22 2.40  23 2.42
  87  0.555  0.325  0.310-  27 2.18  23 2.28  39 2.37  24 2.53
  88  0.809  0.316  0.318-  28 2.19  40 2.33  24 2.47  21 2.58
  89  0.065  0.561  0.308-  25 2.20  26 2.34  29 2.44  41 2.51
  90  0.319  0.554  0.326-  27 2.21  42 2.22  26 2.55  30 2.60
  91  0.561  0.565  0.303-  43 2.41  31 2.41  27 2.41  28 2.44
  92  0.812  0.569  0.307-  32 2.27  28 2.33  44 2.35  25 2.39
  93  0.047  0.816  0.314-  29 2.25  45 2.32  17 2.33  30 2.51
  94  0.309  0.817  0.308-  30 2.32  46 2.33  18 2.35  31 2.36
  95  0.557  0.814  0.308-  31 2.19  19 2.47  32 2.51  47 2.53
  96  0.812  0.811  0.315-  29 2.36  48 2.39  32 2.49  20 2.52
  97  0.064  0.063  0.555-  33 2.35  34 2.37  37 2.61  49 2.61
  98  0.320  0.071  0.544-  38 2.29  35 2.33  34 2.35  50 2.70
  99  0.563  0.055  0.563-  35 2.29  36 2.39  51 2.53  39 2.57
 100  0.800  0.069  0.566-  40 2.27  52 2.27  33 2.42  36 2.46
 101  0.059  0.313  0.575-  53 2.23  41 2.35  37 2.37  38 2.44
 102  0.318  0.305  0.563-  39 2.39  54 2.43  38 2.44  42 2.57
 103  0.568  0.303  0.557-  39 2.13  40 2.34  55 2.53  43 2.60
 104  0.813  0.318  0.558-  56 2.27  37 2.28  40 2.33  44 2.54
 105  0.074  0.573  0.556-  42 2.19  45 2.33  57 2.51  41 2.59
 106  0.305  0.570  0.561-  46 2.25  42 2.27  58 2.33  43 2.35
 107  0.555  0.571  0.559-  47 2.24  59 2.29  43 2.44  44 2.44
 108  0.816  0.569  0.556-  48 2.24  41 2.24  60 2.24  44 2.29
 109  0.060  0.808  0.567-  61 2.22  46 2.37  33 2.41  45 2.43
 110  0.315  0.807  0.566-  47 2.28  62 2.33  34 2.37  46 2.55
 111  0.569  0.823  0.539-  35 2.19  47 2.28  48 2.35  63 2.67
 112  0.813  0.808  0.565-  64 2.22  45 2.27  48 2.31  36 2.32
 113  0.057  0.067  0.806-  49 2.27  50 2.41  53 2.41   1 2.54
 114  0.315  0.068  0.812-  51 2.18  54 2.33   2 2.41  50 2.46
 115  0.568  0.063  0.803-  51 2.23  52 2.36   3 2.38  55 2.52
 116  0.809  0.070  0.805-  52 2.30  49 2.33  56 2.35   4 2.43
 117  0.063  0.314  0.814-  57 2.28  54 2.32  53 2.35   5 2.42
 118  0.317  0.329  0.802-  55 2.17  58 2.18  54 2.47   6 2.61
 119  0.565  0.309  0.807-  55 2.22  56 2.33   7 2.39  59 2.55
 120  0.805  0.304  0.819-   8 2.23  56 2.35  53 2.43  60 2.53
 121  0.076  0.558  0.817-   9 2.24  58 2.34  61 2.42  57 2.50
 122  0.311  0.562  0.821-  10 2.26  62 2.30  58 2.36  59 2.42
 123  0.574  0.553  0.800-  59 2.23  60 2.36  11 2.51  63 2.54
 124  0.812  0.555  0.818-  60 2.39  57 2.43  64 2.47  12 2.50
 125  0.061  0.814  0.809-  61 2.29  49 2.33  13 2.37  62 2.38
 126  0.304  0.811  0.824-  14 2.25  50 2.33  63 2.36  62 2.46
 127  0.547  0.808  0.821-  15 2.28  63 2.31  51 2.56  64 2.61
 128  0.807  0.803  0.819-  64 2.35  16 2.41  52 2.51  61 2.58
 
  LATTYP: Found a face centered cubic cell.
 ALAT       =    21.8746673814
  
  Lattice vectors:
  
 A1 = (   0.0000000000,  10.9373336907,  10.9373336907)
 A2 = (  10.9373336907,   0.0000000000,  10.9373336907)
 A3 = (  10.9373336907,  10.9373336907,   0.0000000000)


Analysis of symmetry for initial positions (statically):
=====================================================================
 Subroutine PRICEL returns:
 Original cell was already a primitive cell.
 

 Routine SETGRP: Setting up the symmetry group for a 
 face centered cubic supercell.


 Subroutine GETGRP returns: Found  1 space group operations
 (whereof  1 operations were pure point group operations)
 out of a pool of 48 trial point group operations.


The static configuration has the point symmetry C_1 .


Analysis of symmetry for dynamics (positions and initial velocities):
=====================================================================
 Subroutine PRICEL returns:
 Original cell was already a primitive cell.
 

 Routine SETGRP: Setting up the symmetry group for a 
 face centered cubic supercell.


 Subroutine GETGRP returns: Found  1 space group operations
 (whereof  1 operations were pure point group operations)
 out of a pool of 48 trial point group operations.


The dynamic configuration has the point symmetry C_1 .


 Subroutine INISYM returns: Found  1 space group operations
 (whereof  1 operations are pure point group operations),
 and found     1 'primitive' translations

 
 
 KPOINTS: KPOINTS File, automatically generated by

Automatic generation of k-mesh.
Space group operators:
 irot       det(A)        alpha          n_x          n_y          n_z        tau_x        tau_y        tau_z
    1     1.000000     0.000001     1.000000     0.000000     0.000000     0.000000     0.000000     0.000000
 
 Subroutine IBZKPT returns following result:
 ===========================================
 
 Found      8 irreducible k-points:
 
 Following reciprocal coordinates:
            Coordinates               Weight
  0.000000  0.000000  0.000000      1.000000
  0.500000  0.000000  0.000000      1.000000
  0.000000  0.500000  0.000000      1.000000
  0.500000  0.500000  0.000000      1.000000
  0.000000  0.000000  0.500000      1.000000
  0.500000  0.000000  0.500000      1.000000
  0.000000  0.500000  0.500000      1.000000
  0.500000  0.500000  0.500000      1.000000
 
 Following cartesian coordinates:
            Coordinates               Weight
  0.000000  0.000000  0.000000      1.000000
 -0.022857  0.022857  0.022857      1.000000
  0.022857 -0.022857  0.022857      1.000000
  0.000000  0.000000  0.045715      1.000000
  0.022857  0.022857 -0.022857      1.000000
  0.000000  0.045715  0.000000      1.000000
  0.045715  0.000000  0.000000      1.000000
  0.022857  0.022857  0.022857      1.000000
 


--------------------------------------------------------------------------------------------------------




 Dimension of arrays:
   k-points           NKPTS =      8   k-points in BZ     NKDIM =      8   number of bands    NBANDS=    322
   number of dos      NEDOS =    301   number of ions     NIONS =    128
   non local maximal  LDIM  =      4   non local SUM 2l+1 LMDIM =      8
   total plane-waves  NPLWV = ******
   max r-space proj   IRMAX =      1   max aug-charges    IRDMAX= 176811
   dimension x,y,z NGX =   120 NGY =  120 NGZ =  120
   dimension x,y,z NGXF=   240 NGYF=  240 NGZF=  240
   support grid    NGXF=   480 NGYF=  480 NGZF=  480
   ions per type =             128
   NGX,Y,Z   is equivalent  to a cutoff of  12.90, 12.90, 12.90 a.u.
   NGXF,Y,Z  is equivalent  to a cutoff of  25.80, 25.80, 25.80 a.u.

 SYSTEM =  potpaw_PBE@./ARUN.APL1ZEROSTATE         
 POSCAR =  kk                                      

 Startparameter for this run:
   NWRITE =      2    write-flag & timer
   PREC   = accura    normal or accurate (medium, high low for compatibility)
   ISTART =      0    job   : 0-new  1-cont  2-samecut
   ICHARG =      2    charge: 1-file 2-atom 10-const
   ISPIN  =      1    spin polarized calculation?
   LNONCOLLINEAR =      F non collinear calculations
   LSORBIT =      F    spin-orbit coupling
   INIWAV =      1    electr: 0-lowe 1-rand  2-diag
   LASPH  =      F    aspherical Exc in radial PAW
   METAGGA=      F    non-selfconsistent MetaGGA calc.

 Electronic Relaxation 1
   ENCUT  =  500.0 eV  36.75 Ry    6.06 a.u.  28.20 28.20 28.20*2*pi/ulx,y,z
   ENINI  =  500.0     initial cutoff
   ENAUG  =  322.1 eV  augmentation charge cutoff
   NELM   =    120;   NELMIN=  4; NELMDL= -5     # of ELM steps 
   EDIFF  = 0.1E-07   stopping-criterion for ELM
   LREAL  =      F    real-space projection
   NLSPLINE    = F    spline interpolate recip. space projectors
   LCOMPAT=      F    compatible to vasp.4.4
   GGA_COMPAT  = T    GGA compatible to vasp.4.4-vasp.4.6
   LMAXPAW     = -100 max onsite density
   LMAXMIX     =    2 max onsite mixed and CHGCAR
   VOSKOWN=      0    Vosko Wilk Nusair interpolation
   ROPT   =    0.00000
 Ionic relaxation
   EDIFFG = 0.1E-06   stopping-criterion for IOM
   NSW    =      0    number of steps for IOM
   NBLOCK =      1;   KBLOCK =      1    inner block; outer block 
   IBRION =     -1    ionic relax: 0-MD 1-quasi-New 2-CG
   NFREE  =      0    steps in history (QN), initial steepest desc. (CG)
   ISIF   =      2    stress and relaxation
   IWAVPR =     10    prediction:  0-non 1-charg 2-wave 3-comb
   ISYM   =      2    0-nonsym 1-usesym 2-fastsym
   LCORR  =      T    Harris-Foulkes like correction to forces

   POTIM  = 0.5000    time-step for ionic-motion
   TEIN   =    0.0    initial temperature
   TEBEG  =    0.0;   TEEND  =   0.0 temperature during run
   SMASS  =  -3.00    Nose mass-parameter (am)
   estimated Nose-frequenzy (Omega)   =  0.10E-29 period in steps =****** mass=  -0.547E-26a.u.
   SCALEE = 1.0000    scale energy and forces
   NPACO  =    256;   APACO  = 16.0  distance and # of slots for P.C.
   PSTRESS=    0.0 pullay stress

  Mass of Ions in am
   POMASS =  28.09
  Ionic Valenz
   ZVAL   =   4.00
  Atomic Wigner-Seitz radii
   RWIGS  =  -1.00
  virtual crystal weights 
   VCA    =   1.00
   NELECT =     512.0000    total number of electrons
   NUPDOWN=      -1.0000    fix difference up-down

 DOS related values:
   EMIN   =  10.00;   EMAX   =-10.00  energy-range for DOS
   EFERMI =   0.00
   ISMEAR =     0;   SIGMA  =   0.01  broadening in eV -4-tet -1-fermi 0-gaus

 Electronic relaxation 2 (details)
   IALGO  =     38    algorithm
   LDIAG  =      T    sub-space diagonalisation (order eigenvalues)
   LSUBROT=      F    optimize rotation matrix (better conditioning)
   TURBO    =      0    0=normal 1=particle mesh
   IRESTART =      0    0=no restart 2=restart with 2 vectors
   NREBOOT  =      0    no. of reboots
   NMIN     =      0    reboot dimension
   EREF     =   0.00    reference energy to select bands
   IMIX   =      4    mixing-type and parameters
     AMIX     =   0.40;   BMIX     =  1.00
     AMIX_MAG =   1.60;   BMIX_MAG =  1.00
     AMIN     =   0.10
     WC   =   100.;   INIMIX=   1;  MIXPRE=   1;  MAXMIX= -45

 Intra band minimization:
   WEIMIN = 0.0000     energy-eigenvalue tresh-hold
   EBREAK =  0.78E-11  absolut break condition
   DEPER  =   0.30     relativ break condition  

   TIME   =   0.40     timestep for ELM

  volume/ion in A,a.u.               =      20.44       137.96
  Fermi-wavevector in a.u.,A,eV,Ry     =   0.950408  1.796010 12.289804  0.903275
  Thomas-Fermi vector in A             =   2.078782
 
 Write flags
   LWAVE        =      F    write WAVECAR
   LDOWNSAMPLE  =      F    k-point downsampling of WAVECAR
   LCHARG       =      F    write CHGCAR
   LVTOT        =      F    write LOCPOT, total local potential
   LVHAR        =      F    write LOCPOT, Hartree potential only
   LELF         =      F    write electronic localiz. function (ELF)
   LORBIT       =      0    0 simple, 1 ext, 2 COOP (PROOUT), +10 PAW based schemes


 Dipole corrections
   LMONO  =      F    monopole corrections only (constant potential shift)
   LDIPOL =      F    correct potential (dipole corrections)
   IDIPOL =      0    1-x, 2-y, 3-z, 4-all directions 
   EPSILON=  1.0000000 bulk dielectric constant

 Exchange correlation treatment:
   GGA     =    --    GGA type
   LEXCH   =     8    internal setting for exchange type
   VOSKOWN=      0    Vosko Wilk Nusair interpolation
   LHFCALC =     F    Hartree Fock is set to
   LHFONE  =     F    Hartree Fock one center treatment
   AEXX    =    0.0000 exact exchange contribution

 Linear response parameters
   LEPSILON=     F    determine dielectric tensor
   LRPA    =     F    only Hartree local field effects (RPA)
   LNABLA  =     F    use nabla operator in PAW spheres
   LVEL    =     F    velocity operator in full k-point grid
   LINTERFAST=   F  fast interpolation
   KINTER  =     0    interpolate to denser k-point grid
   CSHIFT  =0.1000    complex shift for real part using Kramers Kronig
   OMEGAMAX=  -1.0    maximum frequency
   DEG_THRESHOLD= 0.2000000E-02 threshold for treating states as degnerate
   RTIME   =   -0.100 relaxation time in fs
  (WPLASMAI=    0.000 imaginary part of plasma frequency in eV, 0.658/RTIME)
   DFIELD  = 0.0000000 0.0000000 0.0000000 field for delta impulse in time
 
 Orbital magnetization related:
   ORBITALMAG=     F  switch on orbital magnetization
   LCHIMAG   =     F  perturbation theory with respect to B field
   DQ        =  0.001000  dq finite difference perturbation B field
   LLRAUG    =     F  two centre corrections for induced B field



--------------------------------------------------------------------------------------------------------


 Static calculation
 charge density and potential will be updated during run
 non-spin polarized calculation
 Variant of blocked Davidson
 Davidson routine will perform the subspace rotation
 perform sub-space diagonalisation
    after iterative eigenvector-optimisation
 modified Broyden-mixing scheme, WC =      100.0
 initial mixing is a Kerker type mixing with AMIX =  0.4000 and BMIX =      1.0000
 Hartree-type preconditioning will be used
 using additional bands           66
 reciprocal scheme for non local part
 use partial core corrections
 calculate Harris-corrections to forces 
   (improved forces if not selfconsistent)
 use gradient corrections 
 use of overlap-Matrix (Vanderbilt PP)
 Gauss-broadening in eV      SIGMA  =   0.01


--------------------------------------------------------------------------------------------------------


  energy-cutoff  :      500.00
  volume of cell :     2616.76
      direct lattice vectors                 reciprocal lattice vectors
     0.000000000 10.937333691 10.937333691    -0.045714981  0.045714981  0.045714981
    10.937333691  0.000000000 10.937333691     0.045714981 -0.045714981  0.045714981
    10.937333691 10.937333691  0.000000000     0.045714981  0.045714981 -0.045714981

  length of vectors
    15.467725642 15.467725642 15.467725642     0.079180669  0.079180669  0.079180669


 
 k-points in units of 2pi/SCALE and weight: KPOINTS File, automatically generated by
   0.00000000  0.00000000  0.00000000       0.125
  -0.02285749  0.02285749  0.02285749       0.125
   0.02285749 -0.02285749  0.02285749       0.125
   0.00000000  0.00000000  0.04571498       0.125
   0.02285749  0.02285749 -0.02285749       0.125
   0.00000000  0.04571498  0.00000000       0.125
   0.04571498  0.00000000  0.00000000       0.125
   0.02285749  0.02285749  0.02285749       0.125
 
 k-points in reciprocal lattice and weights: KPOINTS File, automatically generated by
   0.00000000  0.00000000  0.00000000       0.125
   0.50000000  0.00000000  0.00000000       0.125
   0.00000000  0.50000000  0.00000000       0.125
   0.50000000  0.50000000  0.00000000       0.125
   0.00000000  0.00000000  0.50000000       0.125
   0.50000000  0.00000000  0.50000000       0.125
   0.00000000  0.50000000  0.50000000       0.125
   0.50000000  0.50000000  0.50000000       0.125
 
 position of ions in fractional coordinates (direct lattice) 
   0.99548205  0.00221221  0.00748970
   0.24198352  0.99763136  0.00208198
   0.49561344  0.00752652  0.99047826
   0.75037861  0.99454008  0.99645187
   0.98845873  0.25298080  0.00442118
   0.24947611  0.24647116  0.00797037
   0.49837866  0.24595120  0.99610174
   0.74680251  0.25349170  0.99512836
   0.99955954  0.50635750  0.99349237
   0.24942866  0.50168333  0.99979875
   0.50260623  0.51098643  0.99744797
   0.73374301  0.50020066  0.01504364
   0.99735398  0.75167314  0.99606894
   0.25997821  0.75187117  0.00093755
   0.50557028  0.74246530  0.00055354
   0.73702493  0.75592183  0.00913765
   0.00244104  0.99899247  0.24963267
   0.24670023  0.00256275  0.24775203
   0.49802472  0.00859879  0.25731174
   0.74372937  0.00990678  0.25708035
   0.01207409  0.24198484  0.24053804
   0.25786295  0.24781278  0.24450966
   0.50156733  0.24813535  0.25990970
   0.75382688  0.23992334  0.25404640
   0.00110451  0.50534843  0.25331650
   0.25058354  0.49779238  0.24803164
   0.49213455  0.49757131  0.24800546
   0.75314577  0.48973653  0.26225467
   0.99899984  0.75407006  0.24526554
   0.24531151  0.75899059  0.24468380
   0.49504042  0.75435299  0.25750279
   0.75581887  0.74857226  0.23612128
   0.99187507  0.99915064  0.50606881
   0.25149553  0.99444301  0.50498609
   0.50292279  0.99537902  0.50073920
   0.75212467  0.99125448  0.49834054
   0.99352166  0.26921076  0.49699349
   0.25063553  0.25219889  0.48969794
   0.50640408  0.25764853  0.49694467
   0.75352152  0.24832731  0.50267081
   0.99236582  0.49889272  0.50697871
   0.24767243  0.50835285  0.50036324
   0.49134368  0.50839653  0.49308406
   0.74805177  0.51874714  0.49285399
   0.99217333  0.75514706  0.49664753
   0.24698562  0.74772543  0.49192069
   0.49588906  0.74869727  0.50875781
   0.75331177  0.74538897  0.50386353
   0.99252559  0.99772503  0.76156392
   0.24724403  0.99511887  0.75809089
   0.48697399  0.01063905  0.76158301
   0.75480427  0.00165847  0.74564881
   0.99619359  0.25791739  0.75124042
   0.24649891  0.25225188  0.75432252
   0.48807725  0.26142338  0.75623788
   0.74918090  0.25595842  0.73706424
   0.00434341  0.49516150  0.75386233
   0.26033155  0.50184148  0.74440402
   0.50130741  0.51052906  0.74038198
   0.76046280  0.50318357  0.73359185
   0.01023254  0.74923331  0.74298952
   0.24953576  0.74360157  0.75050258
   0.48988888  0.75328040  0.75034452
   0.75331877  0.74995868  0.74103068
   0.05835856  0.06141284  0.06983552
   0.31389699  0.05394246  0.06442152
   0.55244158  0.06056276  0.06034496
   0.81445963  0.06342944  0.06443328
   0.07077331  0.29680106  0.06795686
   0.31980503  0.31298381  0.04814118
   0.56892814  0.31314110  0.06058612
   0.79322207  0.31112260  0.06541073
   0.07228933  0.56929169  0.06169162
   0.31180933  0.56569636  0.06454201
   0.56436538  0.55355197  0.06225088
   0.81093917  0.55910137  0.07952781
   0.05627033  0.81051922  0.06987688
   0.31321589  0.80407423  0.06304610
   0.55741006  0.81246094  0.06149899
   0.81988799  0.81568323  0.04476484
   0.06804787  0.06169004  0.31604552
   0.31788796  0.05717444  0.30978978
   0.56560678  0.05672348  0.31524285
   0.81934582  0.06735671  0.31668335
   0.07065429  0.29371185  0.31672784
   0.31069846  0.31944691  0.30974482
   0.55473983  0.32491836  0.30988778
   0.80869330  0.31617472  0.31840600
   0.06498562  0.56079849  0.30838975
   0.31877656  0.55369396  0.32557780
   0.56136236  0.56453019  0.30260327
   0.81235101  0.56908916  0.30688200
   0.04690988  0.81552071  0.31350985
   0.30879813  0.81655186  0.30766505
   0.55732802  0.81417931  0.30828270
   0.81194573  0.81052376  0.31499518
   0.06443561  0.06326693  0.55477429
   0.31976617  0.07104308  0.54431720
   0.56259681  0.05500066  0.56282178
   0.80023106  0.06926145  0.56638802
   0.05870449  0.31320817  0.57470201
   0.31769620  0.30493206  0.56257737
   0.56845452  0.30300809  0.55747784
   0.81336507  0.31761983  0.55759369
   0.07410703  0.57253693  0.55581052
   0.30541771  0.57000549  0.56065356
   0.55533964  0.57134118  0.55905529
   0.81561111  0.56851699  0.55640331
   0.06019513  0.80834743  0.56745965
   0.31548113  0.80676212  0.56614078
   0.56893172  0.82314370  0.53941779
   0.81283018  0.80762074  0.56514550
   0.05729316  0.06712422  0.80637202
   0.31451424  0.06813179  0.81188887
   0.56822800  0.06312217  0.80253068
   0.80894915  0.07020107  0.80473049
   0.06301232  0.31446366  0.81351854
   0.31657736  0.32919648  0.80224458
   0.56515905  0.30871957  0.80668290
   0.80465745  0.30406191  0.81851612
   0.07572237  0.55825731  0.81732387
   0.31055995  0.56150478  0.82090631
   0.57424424  0.55343808  0.80010988
   0.81216712  0.55459142  0.81803705
   0.06103964  0.81400551  0.80864645
   0.30356871  0.81060360  0.82370856
   0.54689155  0.80842585  0.82098880
   0.80685181  0.80349621  0.81904378
 
 position of ions in cartesian coordinates  (Angst):
   0.10611297 10.96983668 10.91211497
  10.93419843  2.66942575 13.55808160
  10.91551124 16.25388081  5.50300959
  21.77614336 19.10566792 19.08475805
   2.81529128 10.85945884 13.57803838
   2.78291195  2.81577801  5.42434080
  13.58474751 16.34563089  8.14098412
  13.65657416 19.05207916 10.94055154
  16.40435855 21.79867380 16.47071719
  16.42221050 13.66321701  8.21516240
  16.49825038 16.40659334 11.08600124
   5.63539885  8.18972951 13.49605368
  19.11563825 21.80273165 19.12969323
   8.23372009  2.85372264 11.06693423
   8.12664491  5.53564512 13.65018162
   8.36771083  8.16102912 16.32885687
  13.65662980  2.75701429 10.95301243
   2.73777633  5.40798939  2.72627239
   2.90835226  8.26136692  5.54111039
   2.92012729 10.94618983  8.24276998
   5.27751369  2.76290316  2.77872730
   5.38469482  5.49461685  5.53074427
   5.55665820  8.32852834  8.19974830
   5.40271196 11.02344647 10.86897783
   8.29777150  2.78268746  5.53924483
   8.15732619  5.45352055  8.18523713
   8.15462193  8.09515831 10.82474326
   8.22477872 11.10577349 13.59381854
  10.93006692 13.60894570 19.17391049
  10.97752174  5.35924214 10.98438719
  11.06700429  8.23081628 13.66503266
  10.76992185 10.84918043 16.45402779
  16.46308738 16.38351202 21.77651259
  16.39975641  8.27389188 13.62724553
  16.36354420 10.97738617 16.38742687
  16.29219779 13.67675523 19.06791946
   8.38023156 16.30226155 13.81092591
   8.11437316  8.09727419  5.49966784
   8.25323766 10.97396009  8.35669834
   8.21391707 13.73939471 10.95755492
  11.00155142 16.39883146 16.31039230
  11.03266444  8.18151577  8.26890078
  10.95352740 10.76701465 10.93449222
  11.06421912 13.57220044 13.85540242
  13.69129523 16.28373062 19.11102623
  13.55842324  8.08166479 10.87948663
  13.75320583 10.98815808 13.61245594
  13.66349141 13.75014581 16.39179009
  19.24193025 19.18506222 21.76803513
  19.17544024 10.99568354 13.58813762
   8.44605038 13.65588455  5.44255991
   8.17354900 16.41095598  8.27368538
  11.03749573 19.11226885 13.71663021
  11.00924009 10.94631797  5.45500376
  11.13050076 13.60948979  8.19753843
  10.86102026 16.25555912 10.99354423
  13.66099038  8.29274918  5.46325185
  13.63060284 10.98912817  8.33614073
  13.68163142 13.58077118 11.06679315
  13.52702553 16.34097429 13.82092207
  16.32093896  8.23824097  8.30653135
  16.34151559 10.93775300 10.86227434
  16.44564752 13.56484662 13.59695729
  16.30744818 16.34419856 16.44184709
   1.43550720  1.40210152  1.30997987
   1.29458639  4.13779583  4.02318283
   1.32240810  6.70225085  6.70463300
   1.39847725  9.61274498  9.60176567
   3.98947909  1.51733816  4.02028353
   3.94974452  4.02435048  6.92102280
   4.08757930  6.88520747  9.64748562
   4.11827072  9.39115347 12.07858623
   6.90127497  1.46539440  7.01718570
   6.89312737  4.11628023  9.59757256
   6.73524128  6.85351108 12.22703509
   6.98490046  9.73933451 14.98459062
   9.62918588  1.37971409  9.48036645
   9.48398436  4.11530293 12.22017485
   9.55879141  6.76921477 14.98273620
   9.41100772  9.45699654 17.88878826
   4.13141988  4.20095763  1.41898686
   4.01361003  6.86512085  4.10218259
   4.06831990  9.63414629  6.80663373
   4.20037423 12.42513005  9.69816138
   6.67658265  4.23692764  3.98519410
   6.88167992  6.78599511  6.89211019
   6.94308659  9.45672068  9.62111511
   6.94062108 12.32746112 12.30305688
   9.50660176  4.08373093  6.84440959
   9.61688872  7.04751873  9.54250126
   9.48412796  9.44948044 12.31426253
   9.58078889 12.24142498 15.10927209
  12.34858401  3.94203086  9.43269110
  12.29593556  6.74246351 12.30832838
  12.27674157  9.46747327 15.00063328
  12.31017618 12.32572883 17.74549022
   6.75972308  6.77250525  1.39672529
   6.73040072  9.45076816  4.27441123
   6.75733021 12.30907864  6.75486965
   6.95231041 14.94716893  9.50992978
   9.71136992  6.92777830  4.06773287
   9.48824005  9.62784577  6.80989301
   9.41142174 12.31469796  9.53147738
   9.57250234 14.99463348 12.36995928
  12.34111256  6.88961847  7.07256081
  12.36639528  9.47251047  9.57479563
  12.36352334 12.18850922 12.32288410
  12.30362870 15.00617959 15.13867094
  15.04766115  6.86486979  9.49953980
  15.01589715  9.64259301 12.27434883
  14.90278965 12.12238840 15.22559330
  15.01440250 15.07137986 17.72341246
   9.55371989  9.44619429  1.36079439
   9.62507965 12.31984669  4.18512733
   9.46793414 14.99244516  6.90528758
   9.56941841 17.64935264  9.61555929
  12.33711772  9.58691054  4.12858075
  12.37494834 12.23692890  7.06304396
  12.19952908 15.00429315  9.55790208
  12.27801050 17.75319097 12.12643354
  15.04519039  9.76754466  6.93404728
  15.11989135 12.37522405  9.53806300
  14.80420573 15.03176959 12.33383782
  15.01289569 17.83008699 14.94869423
  17.74748594  9.51204692  9.57066082
  17.87501745 12.32940768 12.18607443
  17.82145174 14.96096387 14.82355865
  17.74626128 17.78296261 17.61291365
 


--------------------------------------------------------------------------------------------------------


 k-point  1 :   0.0000 0.0000 0.0000  plane waves:   66299
 k-point  2 :   0.5000 0.0000 0.0000  plane waves:   66394
 k-point  3 :   0.0000 0.5000 0.0000  plane waves:   66394
 k-point  4 :   0.5000 0.5000 0.0000  plane waves:   66552
 k-point  5 :   0.0000 0.0000 0.5000  plane waves:   66394
 k-point  6 :   0.5000 0.0000 0.5000  plane waves:   66552
 k-point  7 :   0.0000 0.5000 0.5000  plane waves:   66552
 k-point  8 :   0.5000 0.5000 0.5000  plane waves:   66394

 maximum and minimum number of plane-waves per node :      4207     4110

 maximum number of plane-waves:     66552
 maximum index in each direction: 
   IXMAX=   28   IYMAX=   28   IZMAX=   28
   IXMIN=  -28   IYMIN=  -28   IZMIN=  -28


 parallel 3D FFT for wavefunctions:
    minimum data exchange during FFTs selected (reduces bandwidth)
 parallel 3D FFT for charge:
    minimum data exchange during FFTs selected (reduces bandwidth)


 total amount of memory used by VASP MPI-rank0   221701. kBytes
=======================================================================

   base      :      30000. kBytes
   nonl-proj :      10690. kBytes
   fftplans  :      66746. kBytes
   grid      :      26864. kBytes
   one-center:         24. kBytes
   wavefun   :      87377. kBytes
 
     INWAV:  cpu time    0.0000: real time    0.0002
 Broyden mixing: mesh for mixing (old mesh)
   NGX = 57   NGY = 57   NGZ = 57
  (NGX  =240   NGY  =240   NGZ  =240)
  gives a total of 185193 points

 initial charge density was supplied:
 charge density of overlapping atoms calculated
 number of electron     512.0000000 magnetization 
 keeping initial charge density in first step


--------------------------------------------------------------------------------------------------------


 Maximum index for augmentation-charges         5605 (set IRDMAX)


--------------------------------------------------------------------------------------------------------


 First call to EWALD:  gamma=   0.129
 Maximum number of real-space cells 3x 3x 3
 Maximum number of reciprocal cells 3x 3x 3

    FEWALD:  cpu time    0.0059: real time    0.0059


--------------------------------------- Iteration      1(   1)  ---------------------------------------


    POTLOK:  cpu time    0.4886: real time    0.4964
    SETDIJ:  cpu time    0.5039: real time    0.5040
     EDDAV:  cpu time   69.9178: real time   69.9294
       DOS:  cpu time    0.0064: real time    0.0064
    --------------------------------------------
      LOOP:  cpu time   70.9167: real time   70.9362

 eigenvalue-minimisations  :  5152
 total energy-change (2. order) : 0.1385767E+04  (-0.1908426E+05)
 number of electron     512.0000000 magnetization 
 augmentation part      512.0000000 magnetization 

 Free energy of the ion-electron system (eV)
  ---------------------------------------------------
  alpha Z        PSCENC =       210.77028614
  Ewald energy   TEWEN  =    -14464.54325849
  -Hartree energ DENC   =      -759.23498570
  -exchange      EXHF   =         0.00000000
  -V(xc)+E(xc)   XCENC  =     -1195.21874228
  PAW double counting   =      4221.13331941    -1969.18571412
  entropy T*S    EENTRO =        -0.00189041
  eigenvalues    EBANDS =      2149.56669171
  atomic energy  EATOM  =     13192.48085998
  Solvation  Ediel_sol  =         0.00000000
  ---------------------------------------------------
  free energy    TOTEN  =      1385.76656626 eV

  energy without entropy =     1385.76845667  energy(sigma->0) =     1385.76751147


--------------------------------------------------------------------------------------------------------




--------------------------------------- Iteration      1(   2)  ---------------------------------------


     EDDAV:  cpu time   79.7611: real time   79.7874
       DOS:  cpu time    0.0027: real time    0.0027
    --------------------------------------------
      LOOP:  cpu time   79.7638: real time   79.7901

 eigenvalue-minimisations  :  6112
 total energy-change (2. order) :-0.1921094E+04  (-0.1827153E+04)
 number of electron     512.0000000 magnetization 
 augmentation part      512.0000000 magnetization 

 Free energy of the ion-electron system (eV)
  ---------------------------------------------------
  alpha Z        PSCENC =       210.77028614
  Ewald energy   TEWEN  =    -14464.54325849
  -Hartree energ DENC   =      -759.23498570
  -exchange      EXHF   =         0.00000000
  -V(xc)+E(xc)   XCENC  =     -1195.21874228
  PAW double counting   =      4221.13331941    -1969.18571412
  entropy T*S    EENTRO =        -0.00000001
  eigenvalues    EBANDS =       228.47049279
  atomic energy  EATOM  =     13192.48085998
  Solvation  Ediel_sol  =         0.00000000
  ---------------------------------------------------
  free energy    TOTEN  =      -535.32774226 eV

  energy without entropy =     -535.32774225  energy(sigma->0) =     -535.32774225


--------------------------------------------------------------------------------------------------------




--------------------------------------- Iteration      1(   3)  ---------------------------------------


     EDDAV:  cpu time   81.7279: real time   81.7490
       DOS:  cpu time    0.0010: real time    0.0010
    --------------------------------------------
      LOOP:  cpu time   81.7289: real time   81.7499

 eigenvalue-minimisations  :  6296
 total energy-change (2. order) :-0.1499696E+03  (-0.1469046E+03)
 number of electron     512.0000000 magnetization 
 augmentation part      512.0000000 magnetization 

 Free energy of the ion-electron system (eV)
  ---------------------------------------------------
  alpha Z        PSCENC =       210.77028614
  Ewald energy   TEWEN  =    -14464.54325849
  -Hartree energ DENC   =      -759.23498570
  -exchange      EXHF   =         0.00000000
  -V(xc)+E(xc)   XCENC  =     -1195.21874228
  PAW double counting   =      4221.13331941    -1969.18571412
  entropy T*S    EENTRO =        -0.00000000
  eigenvalues    EBANDS =        78.50089428
  atomic energy  EATOM  =     13192.48085998
  Solvation  Ediel_sol  =         0.00000000
  ---------------------------------------------------
  free energy    TOTEN  =      -685.29734076 eV

  energy without entropy =     -685.29734076  energy(sigma->0) =     -685.29734076


--------------------------------------------------------------------------------------------------------




--------------------------------------- Iteration      1(   4)  ---------------------------------------


     EDDAV:  cpu time   80.8691: real time   80.8965
       DOS:  cpu time    0.0020: real time    0.0020
    --------------------------------------------
      LOOP:  cpu time   80.8711: real time   80.8984

 eigenvalue-minimisations  :  6192
 total energy-change (2. order) :-0.4334440E+01  (-0.4298995E+01)
 number of electron     512.0000000 magnetization 
 augmentation part      512.0000000 magnetization 

 Free energy of the ion-electron system (eV)
  ---------------------------------------------------
  alpha Z        PSCENC =       210.77028614
  Ewald energy   TEWEN  =    -14464.54325849
  -Hartree energ DENC   =      -759.23498570
  -exchange      EXHF   =         0.00000000
  -V(xc)+E(xc)   XCENC  =     -1195.21874228
  PAW double counting   =      4221.13331941    -1969.18571412
  entropy T*S    EENTRO =        -0.00000000
  eigenvalues    EBANDS =        74.16645409
  atomic energy  EATOM  =     13192.48085998
  Solvation  Ediel_sol  =         0.00000000
  ---------------------------------------------------
  free energy    TOTEN  =      -689.63178095 eV

  energy without entropy =     -689.63178095  energy(sigma->0) =     -689.63178095


--------------------------------------------------------------------------------------------------------




--------------------------------------- Iteration      1(   5)  ---------------------------------------


     EDDAV:  cpu time   81.9451: real time   81.9612
       DOS:  cpu time    0.0017: real time    0.0017
    CHARGE:  cpu time    3.1876: real time    3.1886
    MIXING:  cpu time    0.0470: real time    0.0471
    --------------------------------------------
      LOOP:  cpu time   85.1814: real time   85.1984

 eigenvalue-minimisations  :  6320
 total energy-change (2. order) :-0.1525000E+00  (-0.1520812E+00)
 number of electron     511.9999998 magnetization 
 augmentation part      -30.1961895 magnetization 

 Broyden mixing:
  rms(total) = 0.24038E+01    rms(broyden)= 0.24038E+01
  rms(prec ) = 0.29131E+01
  weight for this iteration     100.00

 Free energy of the ion-electron system (eV)
  ---------------------------------------------------
  alpha Z        PSCENC =       210.77028614
  Ewald energy   TEWEN  =    -14464.54325849
  -Hartree energ DENC   =      -759.23498570
  -exchange      EXHF   =         0.00000000
  -V(xc)+E(xc)   XCENC  =     -1195.21874228
  PAW double counting   =      4221.13331941    -1969.18571412
  entropy T*S    EENTRO =        -0.00000000
  eigenvalues    EBANDS =        74.01395407
  atomic energy  EATOM  =     13192.48085998
  Solvation  Ediel_sol  =         0.00000000
  ---------------------------------------------------
  free energy    TOTEN  =      -689.78428097 eV

  energy without entropy =     -689.78428097  energy(sigma->0) =     -689.78428097


--------------------------------------------------------------------------------------------------------




--------------------------------------- Iteration      1(   6)  ---------------------------------------


    POTLOK:  cpu time    0.4899: real time    0.4909
    SETDIJ:  cpu time    0.5150: real time    0.5150
     EDDAV:  cpu time   77.7301: real time   77.7603
       DOS:  cpu time    0.0010: real time    0.0010
    CHARGE:  cpu time    3.1693: real time    3.1715
    MIXING:  cpu time    0.0479: real time    0.0479
    --------------------------------------------
      LOOP:  cpu time   81.9532: real time   81.9866

 eigenvalue-minimisations  :  5912
 total energy-change (2. order) : 0.8572806E+01  (-0.6132281E+00)
 number of electron     511.9999998 magnetization 
 augmentation part      -29.8519170 magnetization 

 Broyden mixing:
  rms(total) = 0.14275E+01    rms(broyden)= 0.14275E+01
  rms(prec ) = 0.17196E+01
  weight for this iteration     100.00

 eigenvalues of (default mixing * dielectric matrix)
  average eigenvalue GAMMA=   2.4263
  2.4263

 Free energy of the ion-electron system (eV)
  ---------------------------------------------------
  alpha Z        PSCENC =       210.77028614
  Ewald energy   TEWEN  =    -14464.54325849
  -Hartree energ DENC   =      -854.91597985
  -exchange      EXHF   =         0.00000000
  -V(xc)+E(xc)   XCENC  =     -1180.54679571
  PAW double counting   =      4467.76910935    -2222.64978261
  entropy T*S    EENTRO =        -0.00000000
  eigenvalues    EBANDS =       170.42408656
  atomic energy  EATOM  =     13192.48085998
  Solvation  Ediel_sol  =         0.00000000
  ---------------------------------------------------
  free energy    TOTEN  =      -681.21147463 eV

  energy without entropy =     -681.21147463  energy(sigma->0) =     -681.21147463


--------------------------------------------------------------------------------------------------------




--------------------------------------- Iteration      1(   7)  ---------------------------------------


    POTLOK:  cpu time    0.4907: real time    0.4915
    SETDIJ:  cpu time    0.5084: real time    0.5087
     EDDAV:  cpu time   76.7647: real time   76.8019
       DOS:  cpu time    0.0011: real time    0.0011
    CHARGE:  cpu time    3.1691: real time    3.1724
    MIXING:  cpu time    0.0461: real time    0.0461
    --------------------------------------------
      LOOP:  cpu time   80.9800: real time   81.0216

 eigenvalue-minimisations  :  5816
 total energy-change (2. order) : 0.3535945E+01  (-0.1146488E+01)
 number of electron     511.9999998 magnetization 
 augmentation part      -29.4001590 magnetization 

 Broyden mixing:
  rms(total) = 0.15942E+00    rms(broyden)= 0.15942E+00
  rms(prec ) = 0.20787E+00
  weight for this iteration     100.00

 eigenvalues of (default mixing * dielectric matrix)
  average eigenvalue GAMMA=   2.0775
  2.0775  2.0775

 Free energy of the ion-electron system (eV)
  ---------------------------------------------------
  alpha Z        PSCENC =       210.77028614
  Ewald energy   TEWEN  =    -14464.54325849
  -Hartree energ DENC   =     -1005.19157858
  -exchange      EXHF   =         0.00000000
  -V(xc)+E(xc)   XCENC  =     -1156.68765004
  PAW double counting   =      4789.24133088    -2552.69594672
  entropy T*S    EENTRO =        -0.00000000
  eigenvalues    EBANDS =       308.95042734
  atomic energy  EATOM  =     13192.48085998
  Solvation  Ediel_sol  =         0.00000000
  ---------------------------------------------------
  free energy    TOTEN  =      -677.67552947 eV

  energy without entropy =     -677.67552947  energy(sigma->0) =     -677.67552947


--------------------------------------------------------------------------------------------------------




--------------------------------------- Iteration      1(   8)  ---------------------------------------


    POTLOK:  cpu time    0.4901: real time    0.4910
    SETDIJ:  cpu time    0.5115: real time    0.5117
     EDDAV:  cpu time   76.6527: real time   76.6757
       DOS:  cpu time    0.0010: real time    0.0010
    CHARGE:  cpu time    3.1040: real time    3.1045
    MIXING:  cpu time    0.0529: real time    0.0529
    --------------------------------------------
      LOOP:  cpu time   80.8122: real time   80.8368

 eigenvalue-minimisations  :  5816
 total energy-change (2. order) :-0.4985339E-01  (-0.1124776E+00)
 number of electron     511.9999998 magnetization 
 augmentation part      -29.4714705 magnetization 

 Broyden mixing:
  rms(total) = 0.63509E-01    rms(broyden)= 0.63508E-01
  rms(prec ) = 0.78244E-01
  weight for this iteration     100.00

 eigenvalues of (default mixing * dielectric matrix)
  average eigenvalue GAMMA=   1.9990
  2.6695  1.6637  1.6637

 Free energy of the ion-electron system (eV)
  ---------------------------------------------------
  alpha Z        PSCENC =       210.77028614
  Ewald energy   TEWEN  =    -14464.54325849
  -Hartree energ DENC   =      -998.99579918
  -exchange      EXHF   =         0.00000000
  -V(xc)+E(xc)   XCENC  =     -1156.73287025
  PAW double counting   =      4743.21231629    -2505.23188248
  entropy T*S    EENTRO =        -0.00000000
  eigenvalues    EBANDS =       301.31496511
  atomic energy  EATOM  =     13192.48085998
  Solvation  Ediel_sol  =         0.00000000
  ---------------------------------------------------
  free energy    TOTEN  =      -677.72538287 eV

  energy without entropy =     -677.72538287  energy(sigma->0) =     -677.72538287


--------------------------------------------------------------------------------------------------------




--------------------------------------- Iteration      1(   9)  ---------------------------------------


    POTLOK:  cpu time    0.4894: real time    0.4906
    SETDIJ:  cpu time    0.5132: real time    0.5132
     EDDAV:  cpu time   79.3330: real time   79.3519
       DOS:  cpu time    0.0010: real time    0.0010
    CHARGE:  cpu time    3.0909: real time    3.0989
    MIXING:  cpu time    0.0393: real time    0.0393
    --------------------------------------------
      LOOP:  cpu time   83.4667: real time   83.4949

 eigenvalue-minimisations  :  6088
 total energy-change (2. order) :-0.2325646E-01  (-0.1058430E-01)
 number of electron     511.9999998 magnetization 
 augmentation part      -29.4766973 magnetization 

 Broyden mixing:
  rms(total) = 0.28142E-01    rms(broyden)= 0.28142E-01
  rms(prec ) = 0.32763E-01
  weight for this iteration     100.00

 eigenvalues of (default mixing * dielectric matrix)
  average eigenvalue GAMMA=   1.7853
  2.5902  1.8298  1.8298  0.8913

 Free energy of the ion-electron system (eV)
  ---------------------------------------------------
  alpha Z        PSCENC =       210.77028614
  Ewald energy   TEWEN  =    -14464.54325849
  -Hartree energ DENC   =     -1005.57821095
  -exchange      EXHF   =         0.00000000
  -V(xc)+E(xc)   XCENC  =     -1155.56918501
  PAW double counting   =      4745.78806885    -2507.87379280
  entropy T*S    EENTRO =        -0.00000000
  eigenvalues    EBANDS =       306.77659294
  atomic energy  EATOM  =     13192.48085998
  Solvation  Ediel_sol  =         0.00000000
  ---------------------------------------------------
  free energy    TOTEN  =      -677.74863933 eV

  energy without entropy =     -677.74863933  energy(sigma->0) =     -677.74863933


--------------------------------------------------------------------------------------------------------




--------------------------------------- Iteration      1(  10)  ---------------------------------------


    POTLOK:  cpu time    0.4896: real time    0.4903
    SETDIJ:  cpu time    0.5128: real time    0.5128
     EDDAV:  cpu time   79.0663: real time   79.1349
       DOS:  cpu time    0.0012: real time    0.0012
    CHARGE:  cpu time    3.0941: real time    3.0974
    MIXING:  cpu time    0.0404: real time    0.0404
    --------------------------------------------
      LOOP:  cpu time   83.2043: real time   83.2769

 eigenvalue-minimisations  :  6056
 total energy-change (2. order) :-0.2514813E-02  (-0.8344784E-03)
 number of electron     511.9999998 magnetization 
 augmentation part      -29.4855097 magnetization 

 Broyden mixing:
  rms(total) = 0.11557E-01    rms(broyden)= 0.11557E-01
  rms(prec ) = 0.13858E-01
  weight for this iteration     100.00

 eigenvalues of (default mixing * dielectric matrix)
  average eigenvalue GAMMA=   1.8527
  2.6841  2.6841  1.4966  1.4966  0.9023

 Free energy of the ion-electron system (eV)
  ---------------------------------------------------
  alpha Z        PSCENC =       210.77028614
  Ewald energy   TEWEN  =    -14464.54325849
  -Hartree energ DENC   =     -1004.60335046
  -exchange      EXHF   =         0.00000000
  -V(xc)+E(xc)   XCENC  =     -1155.72033181
  PAW double counting   =      4739.14237443    -2501.06445922
  entropy T*S    EENTRO =        -0.00000000
  eigenvalues    EBANDS =       305.78672527
  atomic energy  EATOM  =     13192.48085998
  Solvation  Ediel_sol  =         0.00000000
  ---------------------------------------------------
  free energy    TOTEN  =      -677.75115414 eV

  energy without entropy =     -677.75115414  energy(sigma->0) =     -677.75115414


--------------------------------------------------------------------------------------------------------




--------------------------------------- Iteration      1(  11)  ---------------------------------------


    POTLOK:  cpu time    0.4904: real time    0.4914
    SETDIJ:  cpu time    0.5149: real time    0.5155
     EDDAV:  cpu time   75.6737: real time   75.7306
       DOS:  cpu time    0.0011: real time    0.0011
    CHARGE:  cpu time    3.0868: real time    3.0899
    MIXING:  cpu time    0.0494: real time    0.0494
    --------------------------------------------
      LOOP:  cpu time   79.8162: real time   79.8778

 eigenvalue-minimisations  :  5728
 total energy-change (2. order) :-0.1557926E-02  (-0.2516016E-03)
 number of electron     511.9999998 magnetization 
 augmentation part      -29.4882915 magnetization 

 Broyden mixing:
  rms(total) = 0.38604E-02    rms(broyden)= 0.38604E-02
  rms(prec ) = 0.54143E-02
  weight for this iteration     100.00

 eigenvalues of (default mixing * dielectric matrix)
  average eigenvalue GAMMA=   1.7674
  2.8412  2.0063  2.0063  1.6404  1.2398  0.8705

 Free energy of the ion-electron system (eV)
  ---------------------------------------------------
  alpha Z        PSCENC =       210.77028614
  Ewald energy   TEWEN  =    -14464.54325849
  -Hartree energ DENC   =     -1004.50704882
  -exchange      EXHF   =         0.00000000
  -V(xc)+E(xc)   XCENC  =     -1155.73051344
  PAW double counting   =      4734.65050136    -2496.46798301
  entropy T*S    EENTRO =        -0.00000000
  eigenvalues    EBANDS =       305.59444420
  atomic energy  EATOM  =     13192.48085998
  Solvation  Ediel_sol  =         0.00000000
  ---------------------------------------------------
  free energy    TOTEN  =      -677.75271206 eV

  energy without entropy =     -677.75271206  energy(sigma->0) =     -677.75271206


--------------------------------------------------------------------------------------------------------




--------------------------------------- Iteration      1(  12)  ---------------------------------------


    POTLOK:  cpu time    0.4884: real time    0.4900
    SETDIJ:  cpu time    0.5143: real time    0.5143
     EDDAV:  cpu time   79.7195: real time   79.7843
       DOS:  cpu time    0.0010: real time    0.0010
    CHARGE:  cpu time    3.0901: real time    3.0922
    MIXING:  cpu time    0.0505: real time    0.0505
    --------------------------------------------
      LOOP:  cpu time   83.8640: real time   83.9324

 eigenvalue-minimisations  :  6136
 total energy-change (2. order) :-0.5399238E-04  (-0.4303303E-04)
 number of electron     511.9999998 magnetization 
 augmentation part      -29.4864233 magnetization 

 Broyden mixing:
  rms(total) = 0.17961E-02    rms(broyden)= 0.17961E-02
  rms(prec ) = 0.21436E-02
  weight for this iteration     100.00

 eigenvalues of (default mixing * dielectric matrix)
  average eigenvalue GAMMA=   1.8365
  3.1750  2.6950  1.7693  1.7693  0.8964  1.2753  1.2753

 Free energy of the ion-electron system (eV)
  ---------------------------------------------------
  alpha Z        PSCENC =       210.77028614
  Ewald energy   TEWEN  =    -14464.54325849
  -Hartree energ DENC   =     -1005.11804164
  -exchange      EXHF   =         0.00000000
  -V(xc)+E(xc)   XCENC  =     -1155.66152620
  PAW double counting   =      4735.94797297    -2497.80889127
  entropy T*S    EENTRO =        -0.00000000
  eigenvalues    EBANDS =       306.17983244
  atomic energy  EATOM  =     13192.48085998
  Solvation  Ediel_sol  =         0.00000000
  ---------------------------------------------------
  free energy    TOTEN  =      -677.75276606 eV

  energy without entropy =     -677.75276606  energy(sigma->0) =     -677.75276606


--------------------------------------------------------------------------------------------------------




--------------------------------------- Iteration      1(  13)  ---------------------------------------


    POTLOK:  cpu time    0.4896: real time    0.4903
    SETDIJ:  cpu time    0.5064: real time    0.5070
     EDDAV:  cpu time   76.3639: real time   76.4337
       DOS:  cpu time    0.0011: real time    0.0011
    CHARGE:  cpu time    3.1838: real time    3.1857
    MIXING:  cpu time    0.0552: real time    0.0553
    --------------------------------------------
      LOOP:  cpu time   80.6000: real time   80.6730

 eigenvalue-minimisations  :  5792
 total energy-change (2. order) :-0.3193626E-04  (-0.1190102E-04)
 number of electron     511.9999998 magnetization 
 augmentation part      -29.4862842 magnetization 

 Broyden mixing:
  rms(total) = 0.56891E-03    rms(broyden)= 0.56888E-03
  rms(prec ) = 0.73872E-03
  weight for this iteration     100.00

 eigenvalues of (default mixing * dielectric matrix)
  average eigenvalue GAMMA=   1.7746
  3.1481  2.5632  1.9271  1.9271  1.3746  1.3746  0.9410  0.9410

 Free energy of the ion-electron system (eV)
  ---------------------------------------------------
  alpha Z        PSCENC =       210.77028614
  Ewald energy   TEWEN  =    -14464.54325849
  -Hartree energ DENC   =     -1005.12982797
  -exchange      EXHF   =         0.00000000
  -V(xc)+E(xc)   XCENC  =     -1155.67133070
  PAW double counting   =      4735.40655547    -2497.25745017
  entropy T*S    EENTRO =        -0.00000000
  eigenvalues    EBANDS =       306.19136773
  atomic energy  EATOM  =     13192.48085998
  Solvation  Ediel_sol  =         0.00000000
  ---------------------------------------------------
  free energy    TOTEN  =      -677.75279799 eV

  energy without entropy =     -677.75279799  energy(sigma->0) =     -677.75279799


--------------------------------------------------------------------------------------------------------




--------------------------------------- Iteration      1(  14)  ---------------------------------------


    POTLOK:  cpu time    0.4865: real time    0.4900
    SETDIJ:  cpu time    0.5162: real time    0.5169
     EDDAV:  cpu time   79.5278: real time   79.5894
       DOS:  cpu time    0.0011: real time    0.0011
    CHARGE:  cpu time    3.1826: real time    3.1869
    MIXING:  cpu time    0.0414: real time    0.0414
    --------------------------------------------
      LOOP:  cpu time   83.7555: real time   83.8257

 eigenvalue-minimisations  :  6112
 total energy-change (2. order) :-0.2328547E-05  (-0.8293426E-06)
 number of electron     511.9999998 magnetization 
 augmentation part      -29.4862471 magnetization 

 Broyden mixing:
  rms(total) = 0.20561E-03    rms(broyden)= 0.20555E-03
  rms(prec ) = 0.27531E-03
  weight for this iteration     100.00

 eigenvalues of (default mixing * dielectric matrix)
  average eigenvalue GAMMA=   1.7774
  3.2186  2.6042  2.2757  1.6823  1.6823  1.3016  1.3016  1.0000  0.9304

 Free energy of the ion-electron system (eV)
  ---------------------------------------------------
  alpha Z        PSCENC =       210.77028614
  Ewald energy   TEWEN  =    -14464.54325849
  -Hartree energ DENC   =     -1005.16159855
  -exchange      EXHF   =         0.00000000
  -V(xc)+E(xc)   XCENC  =     -1155.66574471
  PAW double counting   =      4735.52235265    -2497.37517845
  entropy T*S    EENTRO =        -0.00000000
  eigenvalues    EBANDS =       306.21948110
  atomic energy  EATOM  =     13192.48085998
  Solvation  Ediel_sol  =         0.00000000
  ---------------------------------------------------
  free energy    TOTEN  =      -677.75280032 eV

  energy without entropy =     -677.75280032  energy(sigma->0) =     -677.75280032


--------------------------------------------------------------------------------------------------------




--------------------------------------- Iteration      1(  15)  ---------------------------------------


    POTLOK:  cpu time    0.4869: real time    0.4904
    SETDIJ:  cpu time    0.5169: real time    0.5173
     EDDAV:  cpu time   79.1901: real time   79.2426
       DOS:  cpu time    0.0010: real time    0.0010
    CHARGE:  cpu time    3.1919: real time    3.1936
    MIXING:  cpu time    0.0348: real time    0.0348
    --------------------------------------------
      LOOP:  cpu time   83.4215: real time   83.4796

 eigenvalue-minimisations  :  6072
 total energy-change (2. order) :-0.4554764E-05  (-0.2160870E-06)
 number of electron     511.9999998 magnetization 
 augmentation part      -29.4860755 magnetization 

 Broyden mixing:
  rms(total) = 0.69466E-04    rms(broyden)= 0.69287E-04
  rms(prec ) = 0.92227E-04
  weight for this iteration     100.00

 eigenvalues of (default mixing * dielectric matrix)
  average eigenvalue GAMMA=   1.7211
  3.2467  2.5917  2.1695  1.7196  1.7196  1.4210  1.4210  0.9445  0.9445  1.0329

 Free energy of the ion-electron system (eV)
  ---------------------------------------------------
  alpha Z        PSCENC =       210.77028614
  Ewald energy   TEWEN  =    -14464.54325849
  -Hartree energ DENC   =     -1005.19348411
  -exchange      EXHF   =         0.00000000
  -V(xc)+E(xc)   XCENC  =     -1155.66362033
  PAW double counting   =      4735.61581932    -2497.47150209
  entropy T*S    EENTRO =        -0.00000000
  eigenvalues    EBANDS =       306.25209469
  atomic energy  EATOM  =     13192.48085998
  Solvation  Ediel_sol  =         0.00000000
  ---------------------------------------------------
  free energy    TOTEN  =      -677.75280488 eV

  energy without entropy =     -677.75280488  energy(sigma->0) =     -677.75280488


--------------------------------------------------------------------------------------------------------




--------------------------------------- Iteration      1(  16)  ---------------------------------------


    POTLOK:  cpu time    0.4891: real time    0.4906
    SETDIJ:  cpu time    0.5085: real time    0.5086
     EDDAV:  cpu time   79.1751: real time   79.2365
       DOS:  cpu time    0.0010: real time    0.0010
    CHARGE:  cpu time    3.0756: real time    3.0785
    MIXING:  cpu time    0.0521: real time    0.0522
    --------------------------------------------
      LOOP:  cpu time   83.3014: real time   83.3674

 eigenvalue-minimisations  :  6096
 total energy-change (2. order) : 0.6685805E-06  (-0.1788938E-07)
 number of electron     511.9999998 magnetization 
 augmentation part      -29.4860877 magnetization 

 Broyden mixing:
  rms(total) = 0.30891E-04    rms(broyden)= 0.30488E-04
  rms(prec ) = 0.39721E-04
  weight for this iteration     100.00

 eigenvalues of (default mixing * dielectric matrix)
  average eigenvalue GAMMA=   1.7329
  3.2957  2.6398  2.1169  2.1169  1.5194  1.5194  1.4210  1.4210  0.9128  1.0498
  1.0498

 Free energy of the ion-electron system (eV)
  ---------------------------------------------------
  alpha Z        PSCENC =       210.77028614
  Ewald energy   TEWEN  =    -14464.54325849
  -Hartree energ DENC   =     -1005.19039433
  -exchange      EXHF   =         0.00000000
  -V(xc)+E(xc)   XCENC  =     -1155.66381864
  PAW double counting   =      4735.60498722    -2497.46015775
  entropy T*S    EENTRO =        -0.00000000
  eigenvalues    EBANDS =       306.24869167
  atomic energy  EATOM  =     13192.48085998
  Solvation  Ediel_sol  =         0.00000000
  ---------------------------------------------------
  free energy    TOTEN  =      -677.75280421 eV

  energy without entropy =     -677.75280421  energy(sigma->0) =     -677.75280421


--------------------------------------------------------------------------------------------------------




--------------------------------------- Iteration      1(  17)  ---------------------------------------


    POTLOK:  cpu time    0.4921: real time    0.4928
    SETDIJ:  cpu time    0.5076: real time    0.5082
     EDDAV:  cpu time   64.9469: real time   64.9988
       DOS:  cpu time    0.0010: real time    0.0010
    CHARGE:  cpu time    3.0752: real time    3.0761
    MIXING:  cpu time    0.0527: real time    0.0527
    --------------------------------------------
      LOOP:  cpu time   69.0755: real time   69.1295

 eigenvalue-minimisations  :  4656
 total energy-change (2. order) : 0.1534827E-06  (-0.3897291E-08)
 number of electron     511.9999998 magnetization 
 augmentation part      -29.4860926 magnetization 

 Broyden mixing:
  rms(total) = 0.13288E-04    rms(broyden)= 0.12323E-04
  rms(prec ) = 0.15213E-04
  weight for this iteration     100.00

 eigenvalues of (default mixing * dielectric matrix)
  average eigenvalue GAMMA=   1.7088
  3.2931  2.6389  2.1912  1.8493  1.7360  1.7360  1.4931  1.4931  0.9220  0.9697
  1.0918  1.0918

 Free energy of the ion-electron system (eV)
  ---------------------------------------------------
  alpha Z        PSCENC =       210.77028614
  Ewald energy   TEWEN  =    -14464.54325849
  -Hartree energ DENC   =     -1005.18932653
  -exchange      EXHF   =         0.00000000
  -V(xc)+E(xc)   XCENC  =     -1155.66389950
  PAW double counting   =      4735.60483452    -2497.45984281
  entropy T*S    EENTRO =        -0.00000000
  eigenvalues    EBANDS =       306.24754263
  atomic energy  EATOM  =     13192.48085998
  Solvation  Ediel_sol  =         0.00000000
  ---------------------------------------------------
  free energy    TOTEN  =      -677.75280405 eV

  energy without entropy =     -677.75280405  energy(sigma->0) =     -677.75280405


--------------------------------------------------------------------------------------------------------




--------------------------------------- Iteration      1(  18)  ---------------------------------------


    POTLOK:  cpu time    0.4883: real time    0.4911
    SETDIJ:  cpu time    0.5108: real time    0.5111
     EDDAV:  cpu time   51.6819: real time   51.7208
       DOS:  cpu time    0.0009: real time    0.0009
    CHARGE:  cpu time    3.0690: real time    3.0708
    MIXING:  cpu time    0.0502: real time    0.0502
    --------------------------------------------
      LOOP:  cpu time   55.8012: real time   55.8450

 eigenvalue-minimisations  :  3320
 total energy-change (2. order) :-0.1219760E-06  (-0.6661259E-09)
 number of electron     511.9999998 magnetization 
 augmentation part      -29.4860886 magnetization 

 Broyden mixing:
  rms(total) = 0.68278E-05    rms(broyden)= 0.46787E-05
  rms(prec ) = 0.62097E-05
  weight for this iteration     100.00
  WARNING: grid for Broyden might be to small

 eigenvalues of (default mixing * dielectric matrix)
  average eigenvalue GAMMA=   1.7405
  3.2699  2.6304  2.6304  2.2126  1.7814  1.7814  1.4305  1.4305  0.9211  0.9731
  1.1187  1.2230  1.2230

 Free energy of the ion-electron system (eV)
  ---------------------------------------------------
  alpha Z        PSCENC =       210.77028614
  Ewald energy   TEWEN  =    -14464.54325849
  -Hartree energ DENC   =     -1005.19010729
  -exchange      EXHF   =         0.00000000
  -V(xc)+E(xc)   XCENC  =     -1155.66380502
  PAW double counting   =      4735.60876524    -2497.46385079
  entropy T*S    EENTRO =        -0.00000000
  eigenvalues    EBANDS =       306.24830605
  atomic energy  EATOM  =     13192.48085998
  Solvation  Ediel_sol  =         0.00000000
  ---------------------------------------------------
  free energy    TOTEN  =      -677.75280418 eV

  energy without entropy =     -677.75280418  energy(sigma->0) =     -677.75280418


--------------------------------------------------------------------------------------------------------




--------------------------------------- Iteration      1(  19)  ---------------------------------------


    POTLOK:  cpu time    0.4915: real time    0.4947
    SETDIJ:  cpu time    0.5128: real time    0.5130
     EDDAV:  cpu time   50.7860: real time   50.8232
       DOS:  cpu time    0.0012: real time    0.0012
    CHARGE:  cpu time    3.0791: real time    3.0858
    MIXING:  cpu time    0.0427: real time    0.0427
    --------------------------------------------
      LOOP:  cpu time   54.9132: real time   54.9606

 eigenvalue-minimisations  :  3232
 total energy-change (2. order) : 0.3241439E-07  (-0.1602148E-09)
 number of electron     511.9999998 magnetization 
 augmentation part      -29.4860896 magnetization 

 Broyden mixing:
  rms(total) = 0.53786E-05    rms(broyden)= 0.20496E-05
  rms(prec ) = 0.27356E-05
  weight for this iteration     100.00
  WARNING: grid for Broyden might be to small

 eigenvalues of (default mixing * dielectric matrix)
  average eigenvalue GAMMA=   1.6958
  3.3204  2.7278  2.4562  2.2212  1.7674  1.7674  1.5142  1.5142  1.2736  1.2736
  0.9335  0.9335  1.0188  1.0188

 Free energy of the ion-electron system (eV)
  ---------------------------------------------------
  alpha Z        PSCENC =       210.77028614
  Ewald energy   TEWEN  =    -14464.54325849
  -Hartree energ DENC   =     -1005.18991961
  -exchange      EXHF   =         0.00000000
  -V(xc)+E(xc)   XCENC  =     -1155.66381448
  PAW double counting   =      4735.60874061    -2497.46379879
  entropy T*S    EENTRO =        -0.00000000
  eigenvalues    EBANDS =       306.24810048
  atomic energy  EATOM  =     13192.48085998
  Solvation  Ediel_sol  =         0.00000000
  ---------------------------------------------------
  free energy    TOTEN  =      -677.75280414 eV

  energy without entropy =     -677.75280414  energy(sigma->0) =     -677.75280414


--------------------------------------------------------------------------------------------------------




--------------------------------------- Iteration      1(  20)  ---------------------------------------


    POTLOK:  cpu time    0.4865: real time    0.4904
    SETDIJ:  cpu time    0.5096: real time    0.5096
     EDDAV:  cpu time   50.0624: real time   50.0950
       DOS:  cpu time    0.0009: real time    0.0009
    --------------------------------------------
      LOOP:  cpu time   51.0594: real time   51.0960

 eigenvalue-minimisations  :  3160
 total energy-change (2. order) :-0.2752131E-08  (-0.3295674E-10)
 number of electron     511.9999998 magnetization 
 augmentation part      -29.4860896 magnetization 

 Free energy of the ion-electron system (eV)
  ---------------------------------------------------
  alpha Z        PSCENC =       210.77028614
  Ewald energy   TEWEN  =    -14464.54325849
  -Hartree energ DENC   =     -1005.19001224
  -exchange      EXHF   =         0.00000000
  -V(xc)+E(xc)   XCENC  =     -1155.66380377
  PAW double counting   =      4735.60880970    -2497.46387048
  entropy T*S    EENTRO =        -0.00000000
  eigenvalues    EBANDS =       306.24818499
  atomic energy  EATOM  =     13192.48085998
  Solvation  Ediel_sol  =         0.00000000
  ---------------------------------------------------
  free energy    TOTEN  =      -677.75280415 eV

  energy without entropy =     -677.75280415  energy(sigma->0) =     -677.75280415


--------------------------------------------------------------------------------------------------------




 average (electrostatic) potential at core
  the test charge radii are     0.9892
  (the norm of the test charge is              1.0000)
       1 -83.3110       2 -83.5005       3 -83.4401       4 -83.5521       5 -83.6041
       6 -83.5530       7 -83.5341       8 -83.4504       9 -83.5467      10 -83.5933
      11 -83.5119      12 -83.6309      13 -83.4902      14 -83.4735      15 -83.4916
      16 -83.5629      17 -83.4975      18 -83.4750      19 -83.5235      20 -83.5452
      21 -83.5107      22 -83.4155      23 -83.5121      24 -83.6409      25 -83.3621
      26 -83.5228      27 -83.5767      28 -83.5706      29 -83.3932      30 -83.5882
      31 -83.5071      32 -83.5623      33 -83.5093      34 -83.4115      35 -83.4479
      36 -83.6380      37 -83.5770      38 -83.6369      39 -83.4953      40 -83.6341
      41 -83.5018      42 -83.4666      43 -83.5942      44 -83.6491      45 -83.5488
      46 -83.5872      47 -83.4268      48 -83.6065      49 -83.3695      50 -83.5649
      51 -83.5382      52 -83.5263      53 -83.5371      54 -83.5198      55 -83.4409
      56 -83.5915      57 -83.5388      58 -83.5307      59 -83.4712      60 -83.5100
      61 -83.4930      62 -83.4786      63 -83.3759      64 -83.4938      65 -83.3952
      66 -83.4880      67 -83.5212      68 -83.4776      69 -83.5118      70 -83.5584
      71 -83.5347      72 -83.6339      73 -83.4083      74 -83.5873      75 -83.4269
      76 -83.7135      77 -83.4878      78 -83.4757      79 -83.4545      80 -83.5025
      81 -83.5090      82 -83.3712      83 -83.4618      84 -83.5652      85 -83.5390
      86 -83.4082      87 -83.4464      88 -83.6210      89 -83.4122      90 -83.5835
      91 -83.6401      92 -83.5012      93 -83.5805      94 -83.4961      95 -83.4818
      96 -83.5636      97 -83.3882      98 -83.5414      99 -83.6108     100 -83.5613
     101 -83.6120     102 -83.5995     103 -83.5133     104 -83.6496     105 -83.5495
     106 -83.5137     107 -83.5246     108 -83.5009     109 -83.5368     110 -83.5359
     111 -83.5772     112 -83.5418     113 -83.4608     114 -83.4566     115 -83.5185
     116 -83.4506     117 -83.5057     118 -83.5152     119 -83.4563     120 -83.6329
     121 -83.4758     122 -83.5164     123 -83.4754     124 -83.6655     125 -83.4137
     126 -83.4368     127 -83.4869     128 -83.6158
 
 
 
 E-fermi :   5.9812     XC(G=0):  -9.3319     alpha+bet :-11.7321


 k-point     1 :       0.0000    0.0000    0.0000
  band No.  band energies     occupation 
      1      -6.3047      2.00000
      2      -5.6898      2.00000
      3      -5.6638      2.00000
      4      -5.6034      2.00000
      5      -5.5814      2.00000
      6      -5.5474      2.00000
      7      -5.4814      2.00000
      8      -5.4467      2.00000
      9      -5.4038      2.00000
     10      -5.3090      2.00000
     11      -5.2822      2.00000
     12      -5.2523      2.00000
     13      -5.1956      2.00000
     14      -5.1394      2.00000
     15      -5.1078      2.00000
     16      -4.5654      2.00000
     17      -4.4616      2.00000
     18      -4.4409      2.00000
     19      -4.4223      2.00000
     20      -4.3982      2.00000
     21      -4.3656      2.00000
     22      -4.3132      2.00000
     23      -4.2826      2.00000
     24      -4.2587      2.00000
     25      -4.2190      2.00000
     26      -4.1645      2.00000
     27      -4.1384      2.00000
     28      -4.0836      2.00000
     29      -4.0359      2.00000
     30      -4.0266      2.00000
     31      -3.9632      2.00000
     32      -3.8913      2.00000
     33      -3.8099      2.00000
     34      -3.7890      2.00000
     35      -3.7529      2.00000
     36      -3.7142      2.00000
     37      -3.6978      2.00000
     38      -3.6775      2.00000
     39      -3.6556      2.00000
     40      -3.6500      2.00000
     41      -3.5989      2.00000
     42      -3.5670      2.00000
     43      -3.5604      2.00000
     44      -3.5316      2.00000
     45      -3.5035      2.00000
     46      -3.4900      2.00000
     47      -3.4726      2.00000
     48      -3.4407      2.00000
     49      -3.4156      2.00000
     50      -3.3840      2.00000
     51      -3.3615      2.00000
     52      -3.3448      2.00000
     53      -3.3203      2.00000
     54      -3.2951      2.00000
     55      -3.2326      2.00000
     56      -2.4043      2.00000
     57      -2.3049      2.00000
     58      -2.2679      2.00000
     59      -2.2252      2.00000
     60      -2.2023      2.00000
     61      -2.1456      2.00000
     62      -2.1363      2.00000
     63      -2.1059      2.00000
     64      -2.0984      2.00000
     65      -2.0343      2.00000
     66      -2.0183      2.00000
     67      -2.0012      2.00000
     68      -1.9793      2.00000
     69      -1.9403      2.00000
     70      -1.9229      2.00000
     71      -1.8543      2.00000
     72      -1.8488      2.00000
     73      -1.8067      2.00000
     74      -1.4013      2.00000
     75      -1.3603      2.00000
     76      -1.2735      2.00000
     77      -1.1748      2.00000
     78      -1.0570      2.00000
     79      -0.9918      2.00000
     80      -0.9544      2.00000
     81      -0.9324      2.00000
     82      -0.9143      2.00000
     83      -0.8632      2.00000
     84      -0.8531      2.00000
     85      -0.8238      2.00000
     86      -0.8106      2.00000
     87      -0.7892      2.00000
     88      -0.7712      2.00000
     89      -0.7369      2.00000
     90      -0.7090      2.00000
     91      -0.6892      2.00000
     92      -0.6683      2.00000
     93      -0.6454      2.00000
     94      -0.6082      2.00000
     95      -0.5792      2.00000
     96      -0.5699      2.00000
     97      -0.5432      2.00000
     98      -0.4946      2.00000
     99      -0.4821      2.00000
    100      -0.4318      2.00000
    101      -0.3036      2.00000
    102       0.0060      2.00000
    103       0.0378      2.00000
[...]
   0.100E+02 0.393E+01 -.484E+01   -.916E+01 -.320E+01 0.475E+01   -.171E+01 -.222E+01 0.450E+00   -.964E-06 0.607E-06 0.160E-05
   0.101E+02 0.661E+01 -.748E+01   -.842E+01 -.642E+01 0.694E+01   -.284E+01 -.115E+01 0.239E+01   -.371E-06 -.240E-06 0.496E-06
   -.584E+01 -.617E+01 -.112E+02   0.524E+01 0.533E+01 0.965E+01   0.244E+01 0.226E+01 0.405E+01   -.313E-06 -.563E-06 -.670E-06
   -.411E+01 0.164E+01 0.188E+00   0.382E+01 -.135E+01 0.287E+00   0.190E+01 -.374E+00 -.427E+00   0.143E-06 -.250E-05 -.279E-05
   -.130E+01 -.212E+00 0.551E+00   0.147E+01 -.175E+00 -.543E+00   0.842E+00 0.887E+00 -.115E+01   0.465E-06 0.282E-05 0.354E-05
   -.570E+01 -.331E+01 0.852E+01   0.577E+01 0.285E+01 -.769E+01   -.186E+00 -.141E+00 -.252E+01   -.216E-05 0.107E-05 -.174E-05
   -.356E+01 0.551E+00 0.428E+01   0.389E+01 -.945E-01 -.368E+01   0.797E+00 -.521E+00 -.100E+01   -.244E-05 -.392E-06 0.377E-06
   0.271E+00 0.486E+01 -.520E+01   -.964E-01 -.397E+01 0.495E+01   0.179E+01 -.622E+00 0.134E+01   -.161E-05 -.108E-05 0.423E-06
   0.151E+01 -.255E+01 0.154E+01   -.108E+01 0.213E+01 -.106E+01   -.178E+01 0.571E+00 -.216E+01   -.239E-05 0.147E-05 -.208E-06
   -.400E+01 0.468E+01 -.368E+01   0.349E+01 -.428E+01 0.384E+01   0.139E+01 -.147E+01 0.145E+01   -.830E-06 -.191E-05 0.875E-06
   0.677E+01 0.245E+01 0.214E+01   -.617E+01 -.269E+01 -.217E+01   -.220E+01 0.402E+00 -.197E+00   -.194E-05 -.171E-05 0.287E-05
   0.602E+01 -.112E+02 -.423E+00   -.554E+01 0.102E+02 -.218E+00   -.192E+01 0.363E+01 -.191E-01   -.104E-05 -.119E-06 -.113E-05
   0.113E+02 -.357E+01 -.352E+01   -.100E+02 0.306E+01 0.368E+01   -.393E+01 0.155E+01 -.834E+00   -.256E-05 0.156E-06 0.201E-05
   -.682E+01 -.930E+01 -.164E+01   0.557E+01 0.817E+01 0.680E+00   0.312E+01 0.219E+01 0.136E+01   -.639E-07 0.146E-06 0.351E-05
   -.268E+01 0.147E+02 0.236E+01   0.279E+01 -.135E+02 -.232E+01   0.285E-01 -.472E+01 0.108E+00   -.727E-06 -.446E-05 0.133E-05
   0.422E+01 -.713E+00 -.684E+01   -.324E+01 0.104E+01 0.619E+01   -.480E+00 0.190E+00 0.657E+00   0.465E-06 -.799E-06 0.126E-05
   0.614E+01 -.179E+01 0.137E+01   -.553E+01 0.144E+01 -.882E+00   -.891E+00 0.125E+01 -.603E+00   -.155E-05 0.133E-06 -.317E-06
   0.276E+01 -.669E+01 -.260E+01   -.271E+01 0.570E+01 0.227E+01   -.280E+00 0.217E+01 0.190E+01   -.210E-05 -.102E-05 0.149E-05
   0.360E+00 -.455E+00 -.248E+01   -.278E+00 0.121E+00 0.248E+01   -.545E-01 0.430E+00 0.138E+00   -.284E-06 -.236E-05 0.571E-06
   -.308E+01 -.634E+01 -.100E+02   0.264E+01 0.562E+01 0.917E+01   0.193E+01 0.266E+01 0.243E+01   0.597E-06 -.309E-06 0.206E-05
   0.858E+00 0.118E+02 0.170E+01   -.115E+01 -.108E+02 -.113E+01   0.275E+00 -.178E+01 -.329E+00   -.331E-06 -.176E-05 0.220E-05
   -.919E+01 -.253E+01 -.403E+01   0.869E+01 0.251E+01 0.354E+01   0.226E+01 0.447E+00 0.301E+00   0.188E-06 0.160E-05 -.562E-06
   -.109E+02 -.542E+01 0.867E+01   0.102E+02 0.475E+01 -.879E+01   0.125E+01 0.188E+01 -.180E+01   0.133E-05 0.449E-05 -.367E-06
   -.102E+02 -.310E+01 0.204E+01   0.936E+01 0.290E+01 -.220E+01   0.215E+01 0.561E+00 0.995E+00   0.464E-06 -.783E-06 -.330E-05
   0.687E+01 0.183E+01 0.293E+01   -.611E+01 -.881E+00 -.295E+01   -.268E+01 -.575E+00 -.104E+00   -.373E-05 -.619E-06 -.113E-05
   0.864E+01 -.669E+01 -.361E+01   -.727E+01 0.623E+01 0.294E+01   -.264E+01 -.583E+00 0.167E+01   -.449E-06 0.257E-05 0.138E-05
   -.848E+00 0.176E+01 0.680E+01   0.875E+00 -.113E+01 -.702E+01   0.870E+00 -.116E+01 0.465E+00   -.358E-06 0.130E-05 -.259E-05
   -.121E+02 -.685E+01 -.651E+01   0.109E+02 0.598E+01 0.534E+01   0.473E+01 0.225E+01 0.291E+01   0.372E-05 0.585E-06 -.101E-05
   -.149E+01 0.734E+01 -.585E+01   0.118E+01 -.607E+01 0.570E+01   0.993E+00 -.239E+01 0.104E+01   0.168E-05 -.255E-05 0.158E-06
   -.143E+01 0.233E+01 0.146E+02   0.115E+01 -.219E+01 -.135E+02   0.100E+01 -.153E+01 -.412E+01   -.947E-06 -.109E-05 -.104E-05
   -.118E+01 -.717E+01 0.152E+01   0.572E+00 0.611E+01 -.972E+00   0.182E+00 0.205E+01 -.392E+00   0.198E-05 0.268E-05 0.117E-05
   0.151E+02 -.151E+01 0.370E+01   -.133E+02 0.126E+01 -.311E+01   -.326E+01 0.657E+00 -.659E+00   -.313E-06 -.230E-07 -.234E-05
   0.280E+01 -.438E+00 0.110E+01   -.246E+01 0.928E+00 -.116E+01   -.639E+00 -.639E+00 -.448E+00   -.128E-05 -.135E-05 0.221E-05
   -.182E+01 0.581E+01 -.226E+01   0.237E+01 -.521E+01 0.212E+01   -.136E+01 -.223E+01 0.114E+01   -.186E-06 -.131E-05 0.198E-05
   -.265E+01 0.913E+01 0.281E+01   0.314E+01 -.813E+01 -.180E+01   -.499E+00 -.221E+01 -.153E+01   0.473E-06 0.113E-05 -.248E-05
   -.197E+01 -.922E+01 0.510E+01   0.265E+01 0.805E+01 -.515E+01   -.258E+00 0.348E+01 -.194E+01   0.254E-05 -.748E-06 0.178E-05
   -.612E+01 -.861E+00 0.239E+01   0.605E+01 0.156E+01 -.249E+01   -.200E+00 -.147E+01 0.543E+00   -.120E-05 -.334E-05 0.233E-05
   -.997E+00 -.286E+01 -.578E+01   0.621E+00 0.262E+01 0.554E+01   0.159E+01 0.177E+01 0.649E+00   -.800E-06 0.279E-05 -.121E-05
   0.483E-01 0.108E+02 0.668E+01   0.699E-01 -.100E+02 -.581E+01   0.930E+00 -.193E+01 -.300E+01   -.668E-06 -.118E-05 -.113E-05
   0.191E+01 -.225E+01 -.629E+01   -.198E+01 0.198E+01 0.531E+01   0.198E+01 0.525E+00 0.180E+01   0.117E-05 -.202E-05 -.176E-05
   -.454E+01 -.297E+01 -.862E+00   0.397E+01 0.315E+01 0.742E+00   0.100E+01 0.601E+00 -.197E+00   0.212E-05 0.323E-05 0.567E-06
   -.354E+00 -.432E+01 0.431E+01   0.876E+00 0.384E+01 -.344E+01   -.394E+00 0.899E+00 -.161E+01   -.135E-05 0.231E-05 -.144E-05
   -.168E+00 0.215E+01 0.199E+02   -.449E-01 -.199E+01 -.178E+02   0.206E+00 0.842E-01 -.591E+01   -.337E-07 0.133E-05 0.451E-06
   -.698E+01 -.506E+01 -.814E+01   0.643E+01 0.433E+01 0.714E+01   0.220E+01 0.765E+00 0.215E+01   0.248E-05 -.126E-05 -.864E-06
   0.224E+01 0.160E+01 -.306E+01   -.188E+01 -.140E+01 0.300E+01   -.870E+00 -.133E+01 0.243E+01   -.783E-06 0.169E-05 -.261E-05
   -.477E+00 0.632E+01 0.798E+01   0.910E+00 -.604E+01 -.836E+01   -.122E+01 -.212E+01 0.388E+00   0.551E-06 0.598E-06 -.185E-06
   0.920E+00 -.570E+01 -.175E+01   -.285E+00 0.523E+01 0.190E+01   -.180E+01 0.121E+00 0.811E+00   0.932E-06 0.158E-05 0.127E-05
   -.765E+01 -.749E+01 -.165E+01   0.657E+01 0.635E+01 0.189E+01   0.348E+01 0.161E+01 0.803E+00   0.152E-05 -.324E-05 -.472E-05
   -.688E+01 -.828E+01 -.289E+00   0.623E+01 0.748E+01 0.102E+01   0.104E+01 0.589E+00 -.177E+00   0.711E-06 0.333E-05 0.970E-06
   -.287E+01 0.901E+00 -.478E+01   0.274E+01 -.941E+00 0.448E+01   0.338E+00 0.733E+00 0.622E+00   0.217E-05 0.329E-05 0.162E-05
   0.315E+01 0.112E+02 0.691E-01   -.302E+01 -.103E+02 0.791E+00   -.153E+01 -.176E+01 -.374E+00   0.931E-06 -.181E-05 -.188E-05
   0.434E+01 0.138E+01 -.144E+02   -.452E+01 -.158E+01 0.127E+02   -.170E+00 0.156E+00 0.389E+01   0.347E-05 -.145E-05 0.247E-06
   0.226E+01 -.438E+01 0.749E+00   -.263E+01 0.397E+01 -.150E+01   0.278E+00 0.552E+00 0.210E+01   0.115E-05 0.194E-05 0.146E-05
 -----------------------------------------------------------------------------------------------
   0.232E+00 0.135E-01 -.641E+00   -.444E-14 0.320E-13 -.426E-13   -.232E+00 -.135E-01 0.641E+00   -.153E-05 -.607E-06 0.268E-05
 
 
 POSITION                                       TOTAL-FORCE (eV/Angst)
 -----------------------------------------------------------------------------------
      0.10611     10.96984     10.91211        -1.322686     -0.168579      0.392595
     10.93420      2.66943     13.55808        -0.407801      0.679057      0.708665
     10.91551     16.25388      5.50301        -1.190180      0.496559     -0.808926
     21.77614     19.10567     19.08476         1.561493     -0.886210      1.023618
      2.81529     10.85946     13.57804        -0.237648      0.232364      0.012426
      2.78291      2.81578      5.42434        -2.002541     -0.742422      0.391579
     13.58475     16.34563      8.14098        -0.083568      0.976294      1.574551
     13.65657     19.05208     10.94055        -0.977959      0.633639     -1.342959
     16.40436     21.79867     16.47072         0.891032      2.365479     -0.937999
     16.42221     13.66322      8.21516        -0.135799      1.390868      0.313642
     16.49825     16.40659     11.08600        -2.843713     -1.741617     -2.040843
      5.63540      8.18973     13.49605        -1.832069      1.984225      2.272876
     19.11564     21.80273     19.12969        -0.520756      0.931553      1.156620
      8.23372      2.85372     11.06693        -0.718544     -2.013422     -3.376364
      8.12664      5.53565     13.65018         0.368884     -0.064000     -0.934851
      8.36771      8.16103     16.32886        -1.862321      0.406928     -0.211508
     13.65663      2.75701     10.95301         0.729603      0.804583      0.207357
      2.73778      5.40799      2.72627        -0.398376      1.190134      0.623137
      2.90835      8.26137      5.54111        -2.840490     -1.303960     -1.105943
      2.92013     10.94619      8.24277        -1.658532      0.892833      0.581845
      5.27751      2.76290      2.77873         2.732418      0.415295     -1.461272
      5.38469      5.49462      5.53074        -0.125092      0.008961      0.007743
      5.55666      8.32853      8.19975        -0.977386     -1.191443     -0.257971
      5.40271     11.02345     10.86898         2.254363     -1.934691      1.198835
      8.29777      2.78269      5.53924        -2.210803     -0.717779     -1.364364
      8.15733      5.45352      8.18524         1.355278      0.408936      0.857861
      8.15462      8.09516     10.82474         0.392050      0.118903      2.311080
      8.22478     11.10577     13.59382         1.264034     -1.500301      0.659446
     10.93007     13.60895     19.17391        -0.040689      0.531255     -1.924110
     10.97752      5.35924     10.98439        -0.209844      0.666838     -1.661803
     11.06700      8.23082     13.66503        -2.106882     -1.737045     -0.849909
     10.76992     10.84918     16.45403         1.545572     -0.671608      0.370721
     16.46309     16.38351     21.77651        -0.203089      0.019279      0.253760
     16.39976      8.27389     13.62725        -0.485145     -0.793990      0.377431
     16.36354     10.97739     16.38743         0.669407     -1.355010      0.851721
     16.29220     13.67676     19.06792         1.450018      0.150125      0.272060
      8.38023     16.30226     13.81093        -1.492715      1.497124     -0.791020
      8.11437      8.09727      5.49967         1.522350      0.491612      0.002800
      8.25324     10.97396      8.35670        -2.228263     -1.642619     -2.630529
      8.21392     13.73939     10.95755         0.274908     -0.735555      0.211624
     11.00155     16.39883     16.31039        -0.835646      0.957267      2.537672
     11.03266      8.18152      8.26890        -1.455950      2.002085     -1.080197
     10.95353     10.76701     10.93449        -0.872264      0.919376      0.016488
     11.06422     13.57220     13.85540        -0.828142     -0.194263     -1.584012
     13.69130     16.28373     19.11103         0.029896      1.222793      0.603137
     13.55842      8.08166     10.87949         1.595475      0.208245      0.986978
     13.75321     10.98816     13.61246        -0.939689     -1.343913      1.264299
     13.66349     13.75015     16.39179         0.286937     -1.343855      0.752159
     19.24193     19.18506     21.76804        -1.431840     -1.380957      0.833795
     19.17544     10.99568     13.58814        -0.129583     -1.077893      1.345845
      8.44605     13.65588      5.44256        -3.462556      0.542232      0.073620
      8.17355     16.41096      8.27369        -0.276445      0.484362     -1.419335
     11.03750     19.11227     13.71663         0.191402      0.703643     -1.692876
     11.00924     10.94632      5.45500        -0.296472      0.041587      1.087261
     11.13050     13.60949      8.19754        -3.701461      0.551763      0.478095
     10.86102     16.25556     10.99354         0.436542      0.911370     -0.605979
     13.66099      8.29275      5.46325         0.764571     -0.536473      1.298700
     13.63060     10.98913      8.33614         1.489200     -0.772636      0.689546
     13.68163     13.58077     11.06679        -0.648855      0.323689     -2.152080
     13.52703     16.34097     13.82092         0.739158      1.439466     -1.852511
     16.32094      8.23824      8.30653         1.055378      0.248719     -2.353621
     16.34152     10.93775     10.86227         1.272470      0.043986      0.332378
     16.44565     13.56485     13.59696        -1.469644     -0.110202      0.223694
     16.30745     16.34420     16.44185         1.450034      0.787083     -2.235362
      1.43551      1.40210      1.30998        -0.138733     -1.062634      0.542724
      1.29459      4.13780      4.02318         0.220113     -1.156942      0.151208
      1.32241      6.70225      6.70463         0.555832      1.790951      0.740320
      1.39848      9.61274      9.60177         0.245456     -0.819583     -1.114900
      3.98948      1.51734      4.02028         0.240623     -2.965402      1.293342
      3.94974      4.02435      6.92102         2.035759      0.523404     -0.577045
      4.08758      6.88521      9.64749         1.175106     -1.221266     -1.469029
      4.11827      9.39115     12.07859         0.953244      1.891434      1.854165
      6.90127      1.46539      7.01719         0.170731     -1.170839     -2.256944
      6.89313      4.11628      9.59757        -0.767291      0.002340      0.442830
      6.73524      6.85351     12.22704         2.997173     -0.427801      0.224139
      6.98490      9.73933     14.98459        -0.823140     -1.492106      0.356811
      9.62919      1.37971      9.48037        -1.135788     -0.970119      1.861074
      9.48398      4.11530     12.22017         1.838369      1.429336      2.540518
      9.55879      6.76921     14.98274         1.617333     -0.085974      0.046947
      9.41101      9.45700     17.88879         1.020139      0.500284     -1.143918
      4.13142      4.20096      1.41899        -0.117443     -0.599956     -1.686479
      4.01361      6.86512      4.10218         1.131172     -0.065031     -0.408294
      4.06832      9.63415      6.80663         1.967974      0.264617      1.082218
      4.20037     12.42513      9.69816        -1.345974      0.146212     -1.679650
      6.67658      4.23693      3.98519         0.879069     -1.065827      1.611038
      6.88168      6.78600      6.89211        -1.596137      0.163260     -0.228408
      6.94309      9.45672      9.62112        -1.439275      2.659126     -0.660334
      6.94062     12.32746     12.30306        -2.711944      1.050404     -0.672681
      9.50660      4.08373      6.84441         1.873284      1.061445      0.405444
      9.61689      7.04752      9.54250         0.138845     -3.489147      0.149037
      9.48413      9.44948     12.31426         0.497270      0.516436      0.006598
      9.58079     12.24142     15.10927        -0.272907      0.899655     -0.114639
     12.34858      3.94203      9.43269        -0.229627      1.173214      1.567614
     12.29594      6.74246     12.30833         0.027864      0.096323      0.139334
     12.27674      9.46747     15.00063         1.497255      1.942302      1.579546
     12.31018     12.32573     17.74549        -0.015450     -0.786644      0.240972
      6.75972      6.77251      1.39673         1.763359      0.420378     -0.193630
      6.73040      9.45077      4.27441         0.563517      1.213913     -1.922664
      6.75733     12.30908      6.75487         1.350176      0.364872      0.839894
      6.95231     14.94717      9.50993        -1.918105      0.375580     -0.128485
      9.71137      6.92778      4.06773        -1.277835     -1.048213      0.997161
      9.48824      9.62785      6.80989         0.897422     -0.520423      0.254066
      9.41142     12.31470      9.53148         3.566185      1.370411      1.736771
      9.57250     14.99463     12.36996         0.683408     -1.124136      0.880085
     12.34111      6.88962      7.07256         0.722864     -1.392140     -3.033375
     12.36640      9.47251      9.57480        -0.426594      0.992617      0.152475
     12.36352     12.18851     12.32288        -1.391147      0.404571     -0.064346
     12.30363     15.00618     15.13867        -0.292372     -0.149148     -0.504004
     15.04766      6.86487      9.49954        -0.808791     -1.632352      1.002185
     15.01590      9.64259     12.27435        -0.008794     -1.209030     -0.520386
     14.90279     12.12239     15.22559         0.424943      2.315937     -1.989873
     15.01440     15.07138     17.72341        -0.275848     -0.777404      0.448048
      9.55372      9.44619      1.36079         1.212185      1.525640      0.406310
      9.62508     12.31985      4.18513         1.048650     -1.196223     -2.126014
      9.46793     14.99245      6.90529         1.905045      0.259499      0.822238
      9.56942     17.64935      9.61556         0.437160      0.772961     -0.317398
     12.33712      9.58691      4.12858         0.127262      0.423370     -0.727973
     12.37495     12.23693      7.06304        -0.007630      0.238670     -3.760737
     12.19953     15.00429      9.55790         1.650436      0.035333      1.150484
     12.27801     17.75319     12.12643        -0.509669     -1.121837      2.366348
     15.04519      9.76754      6.93405        -0.784732     -1.843757      0.004016
     15.11989     12.37522      9.53806        -1.161748     -0.346280      0.959719
     14.80421     15.03177     12.33384         2.406334      0.472617      1.041610
     15.01290     17.83009     14.94869         0.391608     -0.214402      0.551774
     17.74749      9.51205      9.57066         0.207252      0.693352      0.315611
     17.87502     12.32941     12.18607        -1.399724     -0.865463      0.485907
     17.82145     14.96096     14.82356        -0.353751     -0.040122      2.220439
     17.74626     17.78296     17.61291        -0.091004      0.149670      1.348869
 -----------------------------------------------------------------------------------
    total drift:                               -0.000021     -0.000002      0.000007


--------------------------------------------------------------------------------------------------------



  FREE ENERGIE OF THE ION-ELECTRON SYSTEM (eV)
  ---------------------------------------------------
  free  energy   TOTEN  =      -677.75280415 eV

  energy  without entropy=     -677.75280415  energy(sigma->0) =     -677.75280415
 


--------------------------------------------------------------------------------------------------------


    POTLOK:  cpu time    0.9947: real time    0.9956


--------------------------------------------------------------------------------------------------------


     LOOP+:  cpu time 1651.5308: real time 1652.5019
    4ORBIT:  cpu time    0.0000: real time    0.0000

 total amount of memory used by VASP MPI-rank0   221701. kBytes
=======================================================================

   base      :      30000. kBytes
   nonl-proj :      10690. kBytes
   fftplans  :      66746. kBytes
   grid      :      26864. kBytes
   one-center:         24. kBytes
   wavefun   :      87377. kBytes
 
  
  
 General timing and accounting informations for this job:
 ========================================================
  
                  Total CPU time used (sec):     1675.534
                            User time (sec):     1674.430
                          System time (sec):        1.103
                         Elapsed time (sec):     1677.492
  
                   Maximum memory used (kb):      337488.
                   Average memory used (kb):           0.
  
                          Minor page faults:       155878
                          Major page faults:            0
                 Voluntary context switches:         1345
