<?xml version="1.0" encoding="ISO-8859-1"?>
<modeling>
 <generator>
  <i name="program" type="string">vasp </i>
  <i name="version" type="string">5.4.4.18Apr17-6-g9f103f2a35  </i>
  <i name="subversion" type="string">(build Nov 08 2017 09:05:29) complex            parallel </i>
  <i name="platform" type="string">Intel_17.33 </i>
  <i name="date" type="string">2020 07 18 </i>
  <i name="time" type="string">22:40:39 </i>
 </generator>
 <incar>
  <i type="string" name="SYSTEM">potpaw_PBE@./ARUN.APL1ZEROSTATE</i>
  <i type="string" name="PREC">accurate</i>
  <i type="string" name="ALGO">Normal</i>
  <i type="int" name="NSIM">     4</i>
  <i type="logical" name="ADDGRID"> T  </i>
  <i type="int" name="NELM">   120</i>
  <i type="int" name="NELMIN">     4</i>
  <i name="EDIFF">      0.00000001</i>
  <i type="int" name="NSW">     0</i>
  <i type="int" name="ISYM">     2</i>
  <i name="ENMAX">    500.00000000</i>
  <i type="logical" name="LREAL"> F  </i>
  <i type="logical" name="LPLANE"> T  </i>
  <i type="int" name="ISMEAR">     0</i>
  <i name="SIGMA">      0.01000000</i>
  <i type="logical" name="LWAVE"> F  </i>
  <i type="logical" name="LCHARG"> F  </i>
  <i type="logical" name="LELF"> F  </i>
  <i type="logical" name="LAECHG"> F  </i>
  <v type="int" name="KPOINT_BSE">    -1     0     0     0</v>
  <i type="int" name="NELM">   120</i>
 </incar>
 <structure name="primitive_cell" >
  <crystal>
   <varray name="basis" >
    <v>       0.00000000      10.93733369      10.93733369 </v>
    <v>      10.93733369       0.00000000      10.93733369 </v>
    <v>      10.93733369      10.93733369       0.00000000 </v>
   </varray>
   <i name="volume">   2616.76295363 </i>
   <varray name="rec_basis" >
    <v>      -0.04571498       0.04571498       0.04571498 </v>
    <v>       0.04571498      -0.04571498       0.04571498 </v>
    <v>       0.04571498       0.04571498      -0.04571498 </v>
   </varray>
  </crystal>
  <varray name="positions" >
   <v>      -0.00451795       0.00221221       0.00748970 </v>
   <v>      -0.18554037       0.06342944       0.06443328 </v>
   <v>       0.05835856       0.06141284       0.06983552 </v>
   <v>       0.05627033      -0.18948078       0.06987688 </v>
   <v>       0.05729316       0.06712422      -0.19362798 </v>
   <v>       0.24198352      -0.00236864       0.00208198 </v>
   <v>      -0.00100016      -0.24592994       0.24526554 </v>
   <v>       0.00244104      -0.00100753       0.24963267 </v>
   <v>      -0.01154127       0.25298080       0.00442118 </v>
   <v>      -0.00747441      -0.00227497      -0.23843608 </v>
   <v>      -0.25319749       0.25349170      -0.00487164 </v>
   <v>       0.24724403      -0.00488113      -0.24190911 </v>
   <v>      -0.25627063       0.00990678       0.25708035 </v>
   <v>      -0.24962139      -0.00545992      -0.00354813 </v>
   <v>      -0.00264602      -0.24832686      -0.00393106 </v>
   <v>      -0.00380641       0.25791739      -0.24875958 </v>
   <v>       0.25997821      -0.24812883       0.00093755 </v>
   <v>       0.04690988      -0.18447929       0.31350985 </v>
   <v>      -0.20677793       0.31112260       0.06541073 </v>
   <v>      -0.19534255       0.30406191      -0.18148388 </v>
   <v>      -0.18805427      -0.18947624       0.31499518 </v>
   <v>       0.30356871      -0.18939640      -0.17629144 </v>
   <v>      -0.18065418       0.06735671       0.31668335 </v>
   <v>      -0.18011201      -0.18431677       0.04476484 </v>
   <v>       0.31321589      -0.19592577       0.06304610 </v>
   <v>       0.06301232       0.31446366      -0.18648146 </v>
   <v>       0.31451424       0.06813179      -0.18811113 </v>
   <v>       0.06103964      -0.18599449      -0.19135355 </v>
   <v>      -0.19105085       0.07020107      -0.19526951 </v>
   <v>      -0.24617312       0.23992334       0.25404640 </v>
   <v>       0.24531151      -0.24100941       0.24468380 </v>
   <v>      -0.24418113      -0.25142774       0.23612128 </v>
   <v>       0.24649891       0.25225188      -0.24567748 </v>
   <v>       0.24953576      -0.25639843      -0.24949742 </v>
   <v>      -0.25081910       0.25595842      -0.26293576 </v>
   <v>       0.07077331       0.29680106       0.06795686 </v>
   <v>      -0.43107186       0.31314110       0.06058612 </v>
   <v>      -0.43439322       0.05672348       0.31524285 </v>
   <v>       0.07228933      -0.43070831       0.06169162 </v>
   <v>       0.31389699       0.05394246       0.06442152 </v>
   <v>       0.05870449       0.31320817      -0.42529799 </v>
   <v>       0.06498562      -0.43920151       0.30838975 </v>
   <v>       0.31180933      -0.43430364       0.06454201 </v>
   <v>       0.06804787       0.06169004       0.31604552 </v>
   <v>      -0.44755842       0.06056276       0.06034496 </v>
   <v>       0.06443561       0.06326693      -0.44522571 </v>
   <v>       0.31976617       0.07104308      -0.45568280 </v>
   <v>       0.01207409       0.24198484       0.24053804 </v>
   <v>      -0.24787533      -0.00874552       0.49834054 </v>
   <v>      -0.00782667      -0.24485294       0.49664753 </v>
   <v>       0.24670023       0.00256275       0.24775203 </v>
   <v>       0.48697399       0.01063905      -0.23841699 </v>
   <v>       0.00110451      -0.49465157       0.25331650 </v>
   <v>       0.49802472       0.00859879       0.25731174 </v>
   <v>      -0.49843267       0.24813535       0.25990970 </v>
   <v>       0.00434341       0.49516150      -0.24613767 </v>
   <v>      -0.24668823      -0.25461103      -0.49613647 </v>
   <v>       0.48988888      -0.24671960      -0.24965548 </v>
   <v>       0.24947611       0.24647116       0.00797037 </v>
   <v>      -0.26625699      -0.49979934       0.01504364 </v>
   <v>       0.49837866       0.24595120      -0.00389826 </v>
   <v>       0.25058354       0.49779238       0.24803164 </v>
   <v>      -0.24519573       0.00165847      -0.25435119 </v>
   <v>       0.24942866      -0.49831667      -0.00020125 </v>
   <v>      -0.26297507      -0.24407817       0.00913765 </v>
   <v>      -0.23953720      -0.49681643      -0.26640815 </v>
   <v>       0.25149553      -0.00555699      -0.49501391 </v>
   <v>       0.01023254      -0.25076669      -0.25701048 </v>
   <v>      -0.49442972      -0.25753470       0.00055354 </v>
   <v>      -0.00647834       0.26921076       0.49699349 </v>
   <v>       0.25063553       0.25219889       0.48969794 </v>
   <v>      -0.45310845      -0.19157415      -0.17901120 </v>
   <v>       0.30879813      -0.18344814       0.30766505 </v>
   <v>      -0.18783288      -0.44540858      -0.18196295 </v>
   <v>      -0.18764899      -0.43091084       0.30688200 </v>
   <v>      -0.18716982      -0.19237926      -0.43485450 </v>
   <v>      -0.19130670       0.31617472       0.31840600 </v>
   <v>      -0.44267198      -0.18582069       0.30828270 </v>
   <v>      -0.44526017       0.32491836       0.30988778 </v>
   <v>      -0.43484095       0.30871957      -0.19331710 </v>
   <v>       0.31055995      -0.43849522      -0.17909369 </v>
   <v>       0.31769620       0.30493206      -0.43742263 </v>
   <v>      -0.18663493       0.31761983      -0.44240631 </v>
   <v>       0.31548113      -0.19323788      -0.43385922 </v>
   <v>      -0.19314819      -0.19650379      -0.18095622 </v>
   <v>       0.31877656      -0.44630604       0.32557780 </v>
   <v>       0.31657736       0.32919648      -0.19775542 </v>
   <v>      -0.49707721      -0.00462098      -0.49926080 </v>
   <v>       0.49561344       0.00752652      -0.00952174 </v>
   <v>      -0.00812493      -0.00084936      -0.49393119 </v>
   <v>      -0.00763418       0.49889272      -0.49302129 </v>
   <v>      -0.49739377      -0.48901357      -0.00255203 </v>
   <v>      -0.00044046      -0.49364250      -0.00650763 </v>
   <v>      -0.43106828      -0.17685630      -0.46058221 </v>
   <v>      -0.43563462      -0.44644803       0.06225088 </v>
   <v>      -0.18438889      -0.43148301      -0.44359669 </v>
   <v>      -0.43740319       0.05500066      -0.43717822 </v>
   <v>      -0.42575576      -0.44656192      -0.19989012 </v>
   <v>       0.07410703      -0.42746307      -0.44418948 </v>
   <v>      -0.44258994      -0.18753906       0.06149899 </v>
   <v>      -0.19976894       0.06926145      -0.43361198 </v>
   <v>       0.06019513      -0.19165257      -0.43254035 </v>
   <v>      -0.18906083      -0.44089863       0.07952781 </v>
   <v>       0.07572237      -0.44174269      -0.18267613 </v>
   <v>      -0.43177200       0.06312217      -0.19746932 </v>
   <v>      -0.25194823      -0.48125286       0.49285399 </v>
   <v>       0.24698562      -0.25227457       0.49192069 </v>
   <v>      -0.49359592       0.25764853       0.49694467 </v>
   <v>       0.49213455       0.49757131       0.24800546 </v>
   <v>      -0.24685423       0.48973653       0.26225467 </v>
   <v>       0.24767243      -0.49164715      -0.49963676 </v>
   <v>      -0.24647848       0.24832731      -0.49732919 </v>
   <v>       0.49504042      -0.24564701       0.25750279 </v>
   <v>       0.48807725       0.26142338      -0.24376212 </v>
   <v>       0.49588906      -0.25130273      -0.49124219 </v>
   <v>      -0.49869259      -0.48947094      -0.25961802 </v>
   <v>       0.26033155      -0.49815852      -0.25559598 </v>
   <v>       0.07065429       0.29371185       0.31672784 </v>
   <v>       0.31788796       0.05717444       0.30978978 </v>
   <v>       0.31980503       0.31298381       0.04814118 </v>
   <v>       0.31069846       0.31944691       0.30974482 </v>
   <v>      -0.24668123      -0.25004132      -0.25896932 </v>
   <v>       0.25786295       0.24781278       0.24450966 </v>
   <v>      -0.43154548       0.30300809      -0.44252216 </v>
   <v>      -0.43863764      -0.43546981       0.30260327 </v>
   <v>       0.30541771      -0.42999451      -0.43934644 </v>
   <v>      -0.44466036      -0.42865882      -0.44094471 </v>
   <v>       0.49134368      -0.49160347       0.49308406 </v>
  </varray>
 </structure>
 <varray name="primitive_index" >
  <v type="int" >        1 </v>
  <v type="int" >       68 </v>
  <v type="int" >       65 </v>
  <v type="int" >       77 </v>
  <v type="int" >      113 </v>
  <v type="int" >        2 </v>
  <v type="int" >       29 </v>
  <v type="int" >       17 </v>
  <v type="int" >        5 </v>
  <v type="int" >       49 </v>
  <v type="int" >        8 </v>
  <v type="int" >       50 </v>
  <v type="int" >       20 </v>
  <v type="int" >        4 </v>
  <v type="int" >       13 </v>
  <v type="int" >       53 </v>
  <v type="int" >       14 </v>
  <v type="int" >       93 </v>
  <v type="int" >       72 </v>
  <v type="int" >      120 </v>
  <v type="int" >       96 </v>
  <v type="int" >      126 </v>
  <v type="int" >       84 </v>
  <v type="int" >       80 </v>
  <v type="int" >       78 </v>
  <v type="int" >      117 </v>
  <v type="int" >      114 </v>
  <v type="int" >      125 </v>
  <v type="int" >      116 </v>
  <v type="int" >       24 </v>
  <v type="int" >       30 </v>
  <v type="int" >       32 </v>
  <v type="int" >       54 </v>
  <v type="int" >       62 </v>
  <v type="int" >       56 </v>
  <v type="int" >       69 </v>
  <v type="int" >       71 </v>
  <v type="int" >       83 </v>
  <v type="int" >       73 </v>
  <v type="int" >       66 </v>
  <v type="int" >      101 </v>
  <v type="int" >       89 </v>
  <v type="int" >       74 </v>
  <v type="int" >       81 </v>
  <v type="int" >       67 </v>
  <v type="int" >       97 </v>
  <v type="int" >       98 </v>
  <v type="int" >       21 </v>
  <v type="int" >       36 </v>
  <v type="int" >       45 </v>
  <v type="int" >       18 </v>
  <v type="int" >       51 </v>
  <v type="int" >       25 </v>
  <v type="int" >       19 </v>
  <v type="int" >       23 </v>
  <v type="int" >       57 </v>
  <v type="int" >       48 </v>
  <v type="int" >       63 </v>
  <v type="int" >        6 </v>
  <v type="int" >       12 </v>
  <v type="int" >        7 </v>
  <v type="int" >       26 </v>
  <v type="int" >       52 </v>
  <v type="int" >       10 </v>
  <v type="int" >       16 </v>
  <v type="int" >       60 </v>
  <v type="int" >       34 </v>
  <v type="int" >       61 </v>
  <v type="int" >       15 </v>
  <v type="int" >       37 </v>
  <v type="int" >       38 </v>
  <v type="int" >      127 </v>
  <v type="int" >       94 </v>
  <v type="int" >      124 </v>
  <v type="int" >       92 </v>
  <v type="int" >      112 </v>
  <v type="int" >       88 </v>
  <v type="int" >       95 </v>
  <v type="int" >       87 </v>
  <v type="int" >      119 </v>
  <v type="int" >      122 </v>
  <v type="int" >      102 </v>
  <v type="int" >      104 </v>
  <v type="int" >      110 </v>
  <v type="int" >      128 </v>
  <v type="int" >       90 </v>
  <v type="int" >      118 </v>
  <v type="int" >       35 </v>
  <v type="int" >        3 </v>
  <v type="int" >       33 </v>
  <v type="int" >       41 </v>
  <v type="int" >       11 </v>
  <v type="int" >        9 </v>
  <v type="int" >      111 </v>
  <v type="int" >       75 </v>
  <v type="int" >      108 </v>
  <v type="int" >       99 </v>
  <v type="int" >      123 </v>
  <v type="int" >      105 </v>
  <v type="int" >       79 </v>
  <v type="int" >      100 </v>
  <v type="int" >      109 </v>
  <v type="int" >       76 </v>
  <v type="int" >      121 </v>
  <v type="int" >      115 </v>
  <v type="int" >       44 </v>
  <v type="int" >       46 </v>
  <v type="int" >       39 </v>
  <v type="int" >       27 </v>
  <v type="int" >       28 </v>
  <v type="int" >       42 </v>
  <v type="int" >       40 </v>
  <v type="int" >       31 </v>
  <v type="int" >       55 </v>
  <v type="int" >       47 </v>
  <v type="int" >       59 </v>
  <v type="int" >       58 </v>
  <v type="int" >       85 </v>
  <v type="int" >       82 </v>
  <v type="int" >       70 </v>
  <v type="int" >       86 </v>
  <v type="int" >       64 </v>
  <v type="int" >       22 </v>
  <v type="int" >      103 </v>
  <v type="int" >       91 </v>
  <v type="int" >      106 </v>
  <v type="int" >      107 </v>
  <v type="int" >       43 </v>
 </varray>
 <kpoints>
  <generation param="Gamma">
   <v type="int" name="divisions">       2        2        2 </v>
   <v name="usershift">      0.00000000       0.00000000       0.00000000 </v>
   <v name="genvec1">      0.50000000       0.00000000       0.00000000 </v>
   <v name="genvec2">      0.00000000       0.50000000       0.00000000 </v>
   <v name="genvec3">      0.00000000       0.00000000       0.50000000 </v>
   <v name="shift">      0.00000000       0.00000000       0.00000000 </v>
  </generation>
  <varray name="kpointlist" >
   <v>       0.00000000       0.00000000       0.00000000 </v>
   <v>       0.50000000       0.00000000       0.00000000 </v>
   <v>       0.00000000       0.50000000       0.00000000 </v>
   <v>       0.50000000       0.50000000       0.00000000 </v>
   <v>       0.00000000       0.00000000       0.50000000 </v>
   <v>       0.50000000       0.00000000       0.50000000 </v>
   <v>       0.00000000       0.50000000       0.50000000 </v>
   <v>       0.50000000       0.50000000       0.50000000 </v>
  </varray>
  <varray name="weights" >
   <v>       0.12500000 </v>
   <v>       0.12500000 </v>
   <v>       0.12500000 </v>
   <v>       0.12500000 </v>
   <v>       0.12500000 </v>
   <v>       0.12500000 </v>
   <v>       0.12500000 </v>
   <v>       0.12500000 </v>
  </varray>
 </kpoints>
 <parameters>
  <separator name="general" >
   <i type="string" name="SYSTEM">potpaw_PBE@./ARUN.APL1ZEROSTATE</i>
   <i type="logical" name="LCOMPAT"> F  </i>
  </separator>
  <separator name="electronic" >
   <i type="string" name="PREC">accura</i>
   <i name="ENMAX">    500.00000000</i>
   <i name="ENAUG">    322.06900000</i>
   <i name="EDIFF">      0.00000001</i>
   <i type="int" name="IALGO">    38</i>
   <i type="int" name="IWAVPR">    10</i>
   <i type="int" name="NBANDS">   322</i>
   <i name="NELECT">    512.00000000</i>
   <i type="int" name="TURBO">     0</i>
   <i type="int" name="IRESTART">     0</i>
   <i type="int" name="NREBOOT">     0</i>
   <i type="int" name="NMIN">     0</i>
   <i name="EREF">      0.00000000</i>
   <separator name="electronic smearing" >
    <i type="int" name="ISMEAR">     0</i>
    <i name="SIGMA">      0.01000000</i>
    <i name="KSPACING">      0.50000000</i>
    <i type="logical" name="KGAMMA"> T  </i>
   </separator>
   <separator name="electronic projectors" >
    <i type="logical" name="LREAL"> F  </i>
    <v name="ROPT">      0.00000000</v>
    <i type="int" name="LMAXPAW">  -100</i>
    <i type="int" name="LMAXMIX">     2</i>
    <i type="logical" name="NLSPLINE"> F  </i>
   </separator>
   <separator name="electronic startup" >
    <i type="int" name="ISTART">     0</i>
    <i type="int" name="ICHARG">     2</i>
    <i type="int" name="INIWAV">     1</i>
   </separator>
   <separator name="electronic spin" >
    <i type="int" name="ISPIN">     1</i>
    <i type="logical" name="LNONCOLLINEAR"> F  </i>
    <v name="MAGMOM">      1.00000000      1.00000000      1.00000000      1.00000000      1.00000000      1.00000000      1.00000000      1.00000000      1.00000000      1.00000000      1.00000000      1.00000000      1.00000000      1.00000000      1.00000000      1.00000000      1.00000000      1.00000000      1.00000000      1.00000000
      1.00000000      1.00000000      1.00000000      1.00000000      1.00000000      1.00000000      1.00000000      1.00000000      1.00000000      1.00000000      1.00000000      1.00000000      1.00000000      1.00000000      1.00000000      1.00000000      1.00000000      1.00000000      1.00000000      1.00000000
      1.00000000      1.00000000      1.00000000      1.00000000      1.00000000      1.00000000      1.00000000      1.00000000      1.00000000      1.00000000      1.00000000      1.00000000      1.00000000      1.00000000      1.00000000      1.00000000      1.00000000      1.00000000      1.00000000      1.00000000
      1.00000000      1.00000000      1.00000000      1.00000000      1.00000000      1.00000000      1.00000000      1.00000000      1.00000000      1.00000000      1.00000000      1.00000000      1.00000000      1.00000000      1.00000000      1.00000000      1.00000000      1.00000000      1.00000000      1.00000000
      1.00000000      1.00000000      1.00000000      1.00000000      1.00000000      1.00000000      1.00000000      1.00000000      1.00000000      1.00000000      1.00000000      1.00000000      1.00000000      1.00000000      1.00000000      1.00000000      1.00000000      1.00000000      1.00000000      1.00000000
      1.00000000      1.00000000      1.00000000      1.00000000      1.00000000      1.00000000      1.00000000      1.00000000      1.00000000      1.00000000      1.00000000      1.00000000      1.00000000      1.00000000      1.00000000      1.00000000      1.00000000      1.00000000      1.00000000      1.00000000
      1.00000000      1.00000000      1.00000000      1.00000000      1.00000000      1.00000000      1.00000000      1.00000000</v>
    <i name="NUPDOWN">     -1.00000000</i>
    <i type="logical" name="LSORBIT"> F  </i>
    <v name="SAXIS">      0.00000000      0.00000000      1.00000000</v>
    <i type="logical" name="LSPIRAL"> F  </i>
    <v name="QSPIRAL">      0.00000000      0.00000000      0.00000000</v>
    <i type="logical" name="LZEROZ"> F  </i>
   </separator>
   <separator name="electronic exchange-correlation" >
    <i type="logical" name="LASPH"> F  </i>
    <i type="logical" name="LMETAGGA"> F  </i>
   </separator>
   <separator name="electronic convergence" >
    <i type="int" name="NELM">   120</i>
    <i type="int" name="NELMDL">    -5</i>
    <i type="int" name="NELMIN">     4</i>
    <i name="ENINI">    500.00000000</i>
    <separator name="electronic convergence detail" >
     <i type="logical" name="LDIAG"> T  </i>
     <i type="logical" name="LSUBROT"> F  </i>
     <i name="WEIMIN">      0.00000000</i>
     <i name="EBREAK">      0.00000000</i>
     <i name="DEPER">      0.30000000</i>
     <i type="int" name="NRMM">     4</i>
     <i name="TIME">      0.40000000</i>
    </separator>
   </separator>
   <separator name="electronic mixer" >
    <i name="AMIX">      0.40000000</i>
    <i name="BMIX">      1.00000000</i>
    <i name="AMIN">      0.10000000</i>
    <i name="AMIX_MAG">      1.60000000</i>
    <i name="BMIX_MAG">      1.00000000</i>
    <separator name="electronic mixer details" >
     <i type="int" name="IMIX">     4</i>
     <i type="logical" name="MIXFIRST"> F  </i>
     <i type="int" name="MAXMIX">   -45</i>
     <i name="WC">    100.00000000</i>
     <i type="int" name="INIMIX">     1</i>
     <i type="int" name="MIXPRE">     1</i>
     <i type="int" name="MREMOVE">     5</i>
    </separator>
   </separator>
   <separator name="electronic dipolcorrection" >
    <i type="logical" name="LDIPOL"> F  </i>
    <i type="logical" name="LMONO"> F  </i>
    <i type="int" name="IDIPOL">     0</i>
    <i name="EPSILON">      1.00000000</i>
    <v name="DIPOL">   -100.00000000   -100.00000000   -100.00000000</v>
    <i name="EFIELD">      0.00000000</i>
   </separator>
  </separator>
  <separator name="grids" >
   <i type="int" name="NGX">   120</i>
   <i type="int" name="NGY">   120</i>
   <i type="int" name="NGZ">   120</i>
   <i type="int" name="NGXF">   240</i>
   <i type="int" name="NGYF">   240</i>
   <i type="int" name="NGZF">   240</i>
   <i type="logical" name="ADDGRID"> T  </i>
  </separator>
  <separator name="ionic" >
   <i type="int" name="NSW">     0</i>
   <i type="int" name="IBRION">    -1</i>
   <i type="int" name="MDALGO">     0</i>
   <i type="int" name="ISIF">     2</i>
   <i name="PSTRESS">      0.00000000</i>
   <i name="EDIFFG">      0.00000010</i>
   <i type="int" name="NFREE">     0</i>
   <i name="POTIM">      0.50000000</i>
   <i name="SMASS">     -3.00000000</i>
   <i name="SCALEE">      1.00000000</i>
  </separator>
  <separator name="ionic md" >
   <i name="TEBEG">      0.00010000</i>
   <i name="TEEND">      0.00010000</i>
   <i type="int" name="NBLOCK">     1</i>
   <i type="int" name="KBLOCK">     1</i>
   <i type="int" name="NPACO">   256</i>
   <i name="APACO">     16.00000000</i>
  </separator>
  <separator name="symmetry" >
   <i type="int" name="ISYM">     2</i>
   <i name="SYMPREC">      0.00001000</i>
  </separator>
  <separator name="dos" >
   <i type="int" name="LORBIT">     0</i>
   <v name="RWIGS">     -1.00000000</v>
   <i type="int" name="NEDOS">   301</i>
   <i name="EMIN">     10.00000000</i>
   <i name="EMAX">    -10.00000000</i>
   <i name="EFERMI">      0.00000000</i>
  </separator>
  <separator name="writing" >
   <i type="int" name="NWRITE">     2</i>
   <i type="logical" name="LWAVE"> F  </i>
   <i type="logical" name="LDOWNSAMPLE"> F  </i>
   <i type="logical" name="LCHARG"> F  </i>
   <i type="logical" name="LPARD"> F  </i>
   <i type="logical" name="LVTOT"> F  </i>
   <i type="logical" name="LVHAR"> F  </i>
   <i type="logical" name="LELF"> F  </i>
   <i type="logical" name="LOPTICS"> F  </i>
   <v name="STM">      0.00000000      0.00000000      0.00000000      0.00000000      0.00000000      0.00000000      0.00000000</v>
  </separator>
  <separator name="performance" >
   <i type="int" name="NPAR">     2</i>
   <i type="int" name="NSIM">     4</i>
   <i type="int" name="NBLK">    -1</i>
   <i type="logical" name="LPLANE"> T  </i>
   <i type="logical" name="LSCALAPACK"> T  </i>
   <i type="logical" name="LSCAAWARE"> F  </i>
   <i type="logical" name="LSCALU"> F  </i>
   <i type="logical" name="LASYNC"> F  </i>
   <i type="logical" name="LORBITALREAL"> F  </i>
  </separator>
  <separator name="miscellaneous" >
   <i type="int" name="IDIOT">     3</i>
   <i type="int" name="ISPECIAL">     0</i>
   <i type="logical" name="LMUSIC"> F  </i>
   <v name="POMASS">     28.08500000</v>
   <v name="DARWINR">      0.00000000</v>
   <v name="DARWINV">      1.00000000</v>
   <i type="logical" name="LCORR"> T  </i>
  </separator>
  <i type="logical" name="GGA_COMPAT"> T  </i>
  <i type="logical" name="LBERRY"> F  </i>
  <i type="int" name="ICORELEVEL">     0</i>
  <i type="logical" name="LDAU"> F  </i>
  <i type="int" name="I_CONSTRAINED_M">     0</i>
  <separator name="electronic exchange-correlation" >
   <i type="string" name="GGA">--</i>
   <i type="int" name="VOSKOWN">     0</i>
   <i type="logical" name="LHFCALC"> F  </i>
   <i type="string" name="PRECFOCK"></i>
   <i type="logical" name="LSYMGRAD"> F  </i>
   <i type="logical" name="LHFONE"> F  </i>
   <i type="logical" name="LRHFCALC"> F  </i>
   <i type="logical" name="LTHOMAS"> F  </i>
   <i type="logical" name="LMODELHF"> F  </i>
   <i name="ENCUT4O">     -1.00000000</i>
   <i type="int" name="EXXOEP">     0</i>
   <i type="int" name="FOURORBIT">     0</i>
   <i name="AEXX">      0.00000000</i>
   <i name="HFALPHA">      0.00000000</i>
   <i name="MCALPHA">      0.00000000</i>
   <i name="ALDAX">      1.00000000</i>
   <i name="AGGAX">      1.00000000</i>
   <i name="ALDAC">      1.00000000</i>
   <i name="AGGAC">      1.00000000</i>
   <i type="int" name="NKREDX">     1</i>
   <i type="int" name="NKREDY">     1</i>
   <i type="int" name="NKREDZ">     1</i>
   <i type="logical" name="SHIFTRED"> F  </i>
   <i type="logical" name="ODDONLY"> F  </i>
   <i type="logical" name="EVENONLY"> F  </i>
   <i type="int" name="LMAXFOCK">     0</i>
   <i type="int" name="NMAXFOCKAE">     0</i>
   <i type="logical" name="LFOCKAEDFT"> F  </i>
   <i name="HFSCREEN">      0.00000000</i>
   <i name="HFSCREENC">      0.00000000</i>
   <i type="int" name="NBANDSGWLOW">     0</i>
  </separator>
  <separator name="vdW DFT" >
   <i type="logical" name="LUSE_VDW"> F  </i>
   <i name="Zab_VDW">     -0.84910000</i>
   <i name="PARAM1">      0.12340000</i>
   <i name="PARAM2">      1.00000000</i>
   <i name="PARAM3">      0.00000000</i>
  </separator>
  <separator name="model GW" >
   <i type="int" name="MODEL_GW">     0</i>
   <i name="MODEL_EPS0">     12.26607635</i>
   <i name="MODEL_ALPHA">      1.00000000</i>
  </separator>
  <separator name="linear response parameters" >
   <i type="logical" name="LEPSILON"> F  </i>
   <i type="logical" name="LRPA"> F  </i>
   <i type="logical" name="LNABLA"> F  </i>
   <i type="logical" name="LVEL"> F  </i>
   <i type="int" name="KINTER">     0</i>
   <i name="CSHIFT">      0.10000000</i>
   <i name="OMEGAMAX">     -1.00000000</i>
   <i name="DEG_THRESHOLD">      0.00200000</i>
   <i name="RTIME">     -0.10000000</i>
   <i name="WPLASMAI">      0.00000000</i>
   <v name="DFIELD">      0.00000000      0.00000000      0.00000000</v>
   <v name="WPLASMA">      0.00000000      0.00000000      0.00000000      0.00000000      0.00000000      0.00000000      0.00000000      0.00000000      0.00000000</v>
  </separator>
  <separator name="orbital magnetization" >
   <i type="logical" name="NUCIND"> F  </i>
   <v name="MAGPOS">      0.00000000      0.00000000      0.00000000</v>
   <i type="logical" name="LNICSALL"> T  </i>
   <i type="logical" name="ORBITALMAG"> F  </i>
   <i type="logical" name="LMAGBLOCH"> F  </i>
   <i type="logical" name="LCHIMAG"> F  </i>
   <i type="logical" name="LGAUGE"> T  </i>
   <i type="int" name="MAGATOM">     0</i>
   <v name="MAGDIPOL">      0.00000000      0.00000000      0.00000000</v>
   <v name="AVECCONST">      0.00000000      0.00000000      0.00000000</v>
  </separator>
  <separator name="response functions" >
   <i type="logical" name="LADDER"> F  </i>
   <i type="logical" name="LRPAFORCE"> F  </i>
   <i type="logical" name="LFXC"> F  </i>
   <i type="logical" name="LHARTREE"> T  </i>
   <i type="int" name="IBSE">     0</i>
   <v type="int" name="KPOINT">    -1     0     0     0</v>
   <i type="logical" name="LTCTE"> F  </i>
   <i type="logical" name="LTETE"> F  </i>
   <i type="logical" name="LTRIPLET"> F  </i>
   <i type="logical" name="LFXCEPS"> F  </i>
   <i type="logical" name="LFXHEG"> F  </i>
   <i type="int" name="NATURALO">     2</i>
   <i type="logical" name="L2ORDER"> F  </i>
   <i type="logical" name="LMP2LT"> F  </i>
   <i type="logical" name="LUSEW"> F  </i>
   <i name="ENCUTGW">     -2.00000000</i>
   <i name="ENCUTGWSOFT">     -2.00000000</i>
   <i name="ENCUTLF">     -1.00000000</i>
   <i type="int" name="LMAXMP2">    -1</i>
   <i name="SCISSOR">      0.00000000</i>
   <i type="int" name="NOMEGA">     0</i>
   <i type="int" name="NOMEGAR">     0</i>
   <i type="int" name="NBANDSGW">    -1</i>
   <i type="int" name="NBANDSO">    -1</i>
   <i type="int" name="NBANDSV">    -1</i>
   <i type="int" name="NELM">   120</i>
   <i type="int" name="NELMHF">     1</i>
   <i type="int" name="DIM">     3</i>
   <i type="int" name="ANTIRES">     0</i>
   <i name="OMEGAMAX">    -30.00000000</i>
   <i name="OMEGAMIN">    -30.00000000</i>
   <i name="OMEGATL">   -200.00000000</i>
   <i type="int" name="OMEGAGRID">   140</i>
   <i name="CSHIFT">     -0.10000000</i>
   <i type="logical" name="SELFENERGY"> F  </i>
   <i type="logical" name="LSPECTRAL"> F  </i>
   <i type="logical" name="LSPECTRALGW"> F  </i>
   <i type="logical" name="LSINGLES"> F  </i>
   <i type="logical" name="LFERMIGW"> F  </i>
   <i type="logical" name="ODDONLYGW"> F  </i>
   <i type="logical" name="EVENONLYGW"> F  </i>
   <i type="int" name="NKREDLFX">     1</i>
   <i type="int" name="NKREDLFY">     1</i>
   <i type="int" name="NKREDLFZ">     1</i>
   <i type="int" name="MAXMEM">  2800</i>
   <i type="int" name="TELESCOPE">     0</i>
   <i type="int" name="TAUPAR">     1</i>
   <i type="int" name="OMEGAPAR">    -1</i>
   <i name="LAMBDA">      1.00000000</i>
  </separator>
  <separator name="External order field" >
   <i name="OFIELD_KAPPA">      0.00000000</i>
   <v name="OFIELD_K">      0.00000000      0.00000000      0.00000000</v>
   <i name="OFIELD_Q6_NEAR">      0.00000000</i>
   <i name="OFIELD_Q6_FAR">      0.00000000</i>
   <i name="OFIELD_A">      0.00000000</i>
  </separator>
 </parameters>
 <atominfo>
  <atoms>     128 </atoms>
  <types>       1 </types>
  <array name="atoms" >
   <dimension dim="1">ion</dimension>
   <field type="string">element</field>
   <field type="int">atomtype</field>
   <set>
    <rc><c>Si</c><c>   1</c></rc>
    <rc><c>Si</c><c>   1</c></rc>
    <rc><c>Si</c><c>   1</c></rc>
    <rc><c>Si</c><c>   1</c></rc>
    <rc><c>Si</c><c>   1</c></rc>
    <rc><c>Si</c><c>   1</c></rc>
    <rc><c>Si</c><c>   1</c></rc>
    <rc><c>Si</c><c>   1</c></rc>
    <rc><c>Si</c><c>   1</c></rc>
    <rc><c>Si</c><c>   1</c></rc>
    <rc><c>Si</c><c>   1</c></rc>
    <rc><c>Si</c><c>   1</c></rc>
    <rc><c>Si</c><c>   1</c></rc>
    <rc><c>Si</c><c>   1</c></rc>
    <rc><c>Si</c><c>   1</c></rc>
    <rc><c>Si</c><c>   1</c></rc>
    <rc><c>Si</c><c>   1</c></rc>
    <rc><c>Si</c><c>   1</c></rc>
    <rc><c>Si</c><c>   1</c></rc>
    <rc><c>Si</c><c>   1</c></rc>
    <rc><c>Si</c><c>   1</c></rc>
    <rc><c>Si</c><c>   1</c></rc>
    <rc><c>Si</c><c>   1</c></rc>
    <rc><c>Si</c><c>   1</c></rc>
    <rc><c>Si</c><c>   1</c></rc>
    <rc><c>Si</c><c>   1</c></rc>
    <rc><c>Si</c><c>   1</c></rc>
    <rc><c>Si</c><c>   1</c></rc>
    <rc><c>Si</c><c>   1</c></rc>
    <rc><c>Si</c><c>   1</c></rc>
    <rc><c>Si</c><c>   1</c></rc>
    <rc><c>Si</c><c>   1</c></rc>
    <rc><c>Si</c><c>   1</c></rc>
    <rc><c>Si</c><c>   1</c></rc>
    <rc><c>Si</c><c>   1</c></rc>
    <rc><c>Si</c><c>   1</c></rc>
    <rc><c>Si</c><c>   1</c></rc>
    <rc><c>Si</c><c>   1</c></rc>
    <rc><c>Si</c><c>   1</c></rc>
    <rc><c>Si</c><c>   1</c></rc>
    <rc><c>Si</c><c>   1</c></rc>
    <rc><c>Si</c><c>   1</c></rc>
    <rc><c>Si</c><c>   1</c></rc>
    <rc><c>Si</c><c>   1</c></rc>
    <rc><c>Si</c><c>   1</c></rc>
    <rc><c>Si</c><c>   1</c></rc>
    <rc><c>Si</c><c>   1</c></rc>
    <rc><c>Si</c><c>   1</c></rc>
    <rc><c>Si</c><c>   1</c></rc>
    <rc><c>Si</c><c>   1</c></rc>
    <rc><c>Si</c><c>   1</c></rc>
    <rc><c>Si</c><c>   1</c></rc>
    <rc><c>Si</c><c>   1</c></rc>
    <rc><c>Si</c><c>   1</c></rc>
    <rc><c>Si</c><c>   1</c></rc>
    <rc><c>Si</c><c>   1</c></rc>
    <rc><c>Si</c><c>   1</c></rc>
    <rc><c>Si</c><c>   1</c></rc>
    <rc><c>Si</c><c>   1</c></rc>
    <rc><c>Si</c><c>   1</c></rc>
    <rc><c>Si</c><c>   1</c></rc>
    <rc><c>Si</c><c>   1</c></rc>
    <rc><c>Si</c><c>   1</c></rc>
    <rc><c>Si</c><c>   1</c></rc>
    <rc><c>Si</c><c>   1</c></rc>
    <rc><c>Si</c><c>   1</c></rc>
    <rc><c>Si</c><c>   1</c></rc>
    <rc><c>Si</c><c>   1</c></rc>
    <rc><c>Si</c><c>   1</c></rc>
    <rc><c>Si</c><c>   1</c></rc>
    <rc><c>Si</c><c>   1</c></rc>
    <rc><c>Si</c><c>   1</c></rc>
    <rc><c>Si</c><c>   1</c></rc>
    <rc><c>Si</c><c>   1</c></rc>
    <rc><c>Si</c><c>   1</c></rc>
    <rc><c>Si</c><c>   1</c></rc>
    <rc><c>Si</c><c>   1</c></rc>
    <rc><c>Si</c><c>   1</c></rc>
    <rc><c>Si</c><c>   1</c></rc>
    <rc><c>Si</c><c>   1</c></rc>
    <rc><c>Si</c><c>   1</c></rc>
    <rc><c>Si</c><c>   1</c></rc>
    <rc><c>Si</c><c>   1</c></rc>
    <rc><c>Si</c><c>   1</c></rc>
    <rc><c>Si</c><c>   1</c></rc>
    <rc><c>Si</c><c>   1</c></rc>
    <rc><c>Si</c><c>   1</c></rc>
    <rc><c>Si</c><c>   1</c></rc>
    <rc><c>Si</c><c>   1</c></rc>
    <rc><c>Si</c><c>   1</c></rc>
    <rc><c>Si</c><c>   1</c></rc>
    <rc><c>Si</c><c>   1</c></rc>
    <rc><c>Si</c><c>   1</c></rc>
    <rc><c>Si</c><c>   1</c></rc>
    <rc><c>Si</c><c>   1</c></rc>
    <rc><c>Si</c><c>   1</c></rc>
    <rc><c>Si</c><c>   1</c></rc>
    <rc><c>Si</c><c>   1</c></rc>
    <rc><c>Si</c><c>   1</c></rc>
    <rc><c>Si</c><c>   1</c></rc>
    <rc><c>Si</c><c>   1</c></rc>
    <rc><c>Si</c><c>   1</c></rc>
    <rc><c>Si</c><c>   1</c></rc>
    <rc><c>Si</c><c>   1</c></rc>
    <rc><c>Si</c><c>   1</c></rc>
    <rc><c>Si</c><c>   1</c></rc>
    <rc><c>Si</c><c>   1</c></rc>
    <rc><c>Si</c><c>   1</c></rc>
    <rc><c>Si</c><c>   1</c></rc>
    <rc><c>Si</c><c>   1</c></rc>
    <rc><c>Si</c><c>   1</c></rc>
    <rc><c>Si</c><c>   1</c></rc>
    <rc><c>Si</c><c>   1</c></rc>
    <rc><c>Si</c><c>   1</c></rc>
    <rc><c>Si</c><c>   1</c></rc>
    <rc><c>Si</c><c>   1</c></rc>
    <rc><c>Si</c><c>   1</c></rc>
    <rc><c>Si</c><c>   1</c></rc>
    <rc><c>Si</c><c>   1</c></rc>
    <rc><c>Si</c><c>   1</c></rc>
    <rc><c>Si</c><c>   1</c></rc>
    <rc><c>Si</c><c>   1</c></rc>
    <rc><c>Si</c><c>   1</c></rc>
    <rc><c>Si</c><c>   1</c></rc>
    <rc><c>Si</c><c>   1</c></rc>
    <rc><c>Si</c><c>   1</c></rc>
    <rc><c>Si</c><c>   1</c></rc>
    <rc><c>Si</c><c>   1</c></rc>
   </set>
  </array>
  <array name="atomtypes" >
   <dimension dim="1">type</dimension>
   <field type="int">atomspertype</field>
   <field type="string">element</field>
   <field>mass</field>
   <field>valence</field>
   <field type="string">pseudopotential</field>
   <set>
    <rc><c> 128</c><c>Si</c><c>     28.08500000</c><c>      4.00000000</c><c> PAW_PBE Si 05Jan2001                   </c></rc>
   </set>
  </array>
 </atominfo>
 <structure name="initialpos" >
  <crystal>
   <varray name="basis" >
    <v>       0.00000000      10.93733369      10.93733369 </v>
    <v>      10.93733369       0.00000000      10.93733369 </v>
    <v>      10.93733369      10.93733369       0.00000000 </v>
   </varray>
   <i name="volume">   2616.76295363 </i>
   <varray name="rec_basis" >
    <v>      -0.04571498       0.04571498       0.04571498 </v>
    <v>       0.04571498      -0.04571498       0.04571498 </v>
    <v>       0.04571498       0.04571498      -0.04571498 </v>
   </varray>
  </crystal>
  <varray name="positions" >
   <v>       0.99548205       0.00221221       0.00748970 </v>
   <v>       0.24198352       0.99763136       0.00208198 </v>
   <v>       0.49561344       0.00752652       0.99047826 </v>
   <v>       0.75037861       0.99454008       0.99645187 </v>
   <v>       0.98845873       0.25298080       0.00442118 </v>
   <v>       0.24947611       0.24647116       0.00797037 </v>
   <v>       0.49837866       0.24595120       0.99610174 </v>
   <v>       0.74680251       0.25349170       0.99512836 </v>
   <v>       0.99955954       0.50635750       0.99349237 </v>
   <v>       0.24942866       0.50168333       0.99979875 </v>
   <v>       0.50260623       0.51098643       0.99744797 </v>
   <v>       0.73374301       0.50020066       0.01504364 </v>
   <v>       0.99735398       0.75167314       0.99606894 </v>
   <v>       0.25997821       0.75187117       0.00093755 </v>
   <v>       0.50557028       0.74246530       0.00055354 </v>
   <v>       0.73702493       0.75592183       0.00913765 </v>
   <v>       0.00244104       0.99899247       0.24963267 </v>
   <v>       0.24670023       0.00256275       0.24775203 </v>
   <v>       0.49802472       0.00859879       0.25731174 </v>
   <v>       0.74372937       0.00990678       0.25708035 </v>
   <v>       0.01207409       0.24198484       0.24053804 </v>
   <v>       0.25786295       0.24781278       0.24450966 </v>
   <v>       0.50156733       0.24813535       0.25990970 </v>
   <v>       0.75382688       0.23992334       0.25404640 </v>
   <v>       0.00110451       0.50534843       0.25331650 </v>
   <v>       0.25058354       0.49779238       0.24803164 </v>
   <v>       0.49213455       0.49757131       0.24800546 </v>
   <v>       0.75314577       0.48973653       0.26225467 </v>
   <v>       0.99899984       0.75407006       0.24526554 </v>
   <v>       0.24531151       0.75899059       0.24468380 </v>
   <v>       0.49504042       0.75435299       0.25750279 </v>
   <v>       0.75581887       0.74857226       0.23612128 </v>
   <v>       0.99187507       0.99915064       0.50606881 </v>
   <v>       0.25149553       0.99444301       0.50498609 </v>
   <v>       0.50292279       0.99537902       0.50073920 </v>
   <v>       0.75212467       0.99125448       0.49834054 </v>
   <v>       0.99352166       0.26921076       0.49699349 </v>
   <v>       0.25063553       0.25219889       0.48969794 </v>
   <v>       0.50640408       0.25764853       0.49694467 </v>
   <v>       0.75352152       0.24832731       0.50267081 </v>
   <v>       0.99236582       0.49889272       0.50697871 </v>
   <v>       0.24767243       0.50835285       0.50036324 </v>
   <v>       0.49134368       0.50839653       0.49308406 </v>
   <v>       0.74805177       0.51874714       0.49285399 </v>
   <v>       0.99217333       0.75514706       0.49664753 </v>
   <v>       0.24698562       0.74772543       0.49192069 </v>
   <v>       0.49588906       0.74869727       0.50875781 </v>
   <v>       0.75331177       0.74538897       0.50386353 </v>
   <v>       0.99252559       0.99772503       0.76156392 </v>
   <v>       0.24724403       0.99511887       0.75809089 </v>
   <v>       0.48697399       0.01063905       0.76158301 </v>
   <v>       0.75480427       0.00165847       0.74564881 </v>
   <v>       0.99619359       0.25791739       0.75124042 </v>
   <v>       0.24649891       0.25225188       0.75432252 </v>
   <v>       0.48807725       0.26142338       0.75623788 </v>
   <v>       0.74918090       0.25595842       0.73706424 </v>
   <v>       0.00434341       0.49516150       0.75386233 </v>
   <v>       0.26033155       0.50184148       0.74440402 </v>
   <v>       0.50130741       0.51052906       0.74038198 </v>
   <v>       0.76046280       0.50318357       0.73359185 </v>
   <v>       0.01023254       0.74923331       0.74298952 </v>
   <v>       0.24953576       0.74360157       0.75050258 </v>
   <v>       0.48988888       0.75328040       0.75034452 </v>
   <v>       0.75331877       0.74995868       0.74103068 </v>
   <v>       0.05835856       0.06141284       0.06983552 </v>
   <v>       0.31389699       0.05394246       0.06442152 </v>
   <v>       0.55244158       0.06056276       0.06034496 </v>
   <v>       0.81445963       0.06342944       0.06443328 </v>
   <v>       0.07077331       0.29680106       0.06795686 </v>
   <v>       0.31980503       0.31298381       0.04814118 </v>
   <v>       0.56892814       0.31314110       0.06058612 </v>
   <v>       0.79322207       0.31112260       0.06541073 </v>
   <v>       0.07228933       0.56929169       0.06169162 </v>
   <v>       0.31180933       0.56569636       0.06454201 </v>
   <v>       0.56436538       0.55355197       0.06225088 </v>
   <v>       0.81093917       0.55910137       0.07952781 </v>
   <v>       0.05627033       0.81051922       0.06987688 </v>
   <v>       0.31321589       0.80407423       0.06304610 </v>
   <v>       0.55741006       0.81246094       0.06149899 </v>
   <v>       0.81988799       0.81568323       0.04476484 </v>
   <v>       0.06804787       0.06169004       0.31604552 </v>
   <v>       0.31788796       0.05717444       0.30978978 </v>
   <v>       0.56560678       0.05672348       0.31524285 </v>
   <v>       0.81934582       0.06735671       0.31668335 </v>
   <v>       0.07065429       0.29371185       0.31672784 </v>
   <v>       0.31069846       0.31944691       0.30974482 </v>
   <v>       0.55473983       0.32491836       0.30988778 </v>
   <v>       0.80869330       0.31617472       0.31840600 </v>
   <v>       0.06498562       0.56079849       0.30838975 </v>
   <v>       0.31877656       0.55369396       0.32557780 </v>
   <v>       0.56136236       0.56453019       0.30260327 </v>
   <v>       0.81235101       0.56908916       0.30688200 </v>
   <v>       0.04690988       0.81552071       0.31350985 </v>
   <v>       0.30879813       0.81655186       0.30766505 </v>
   <v>       0.55732802       0.81417931       0.30828270 </v>
   <v>       0.81194573       0.81052376       0.31499518 </v>
   <v>       0.06443561       0.06326693       0.55477429 </v>
   <v>       0.31976617       0.07104308       0.54431720 </v>
   <v>       0.56259681       0.05500066       0.56282178 </v>
   <v>       0.80023106       0.06926145       0.56638802 </v>
   <v>       0.05870449       0.31320817       0.57470201 </v>
   <v>       0.31769620       0.30493206       0.56257737 </v>
   <v>       0.56845452       0.30300809       0.55747784 </v>
   <v>       0.81336507       0.31761983       0.55759369 </v>
   <v>       0.07410703       0.57253693       0.55581052 </v>
   <v>       0.30541771       0.57000549       0.56065356 </v>
   <v>       0.55533964       0.57134118       0.55905529 </v>
   <v>       0.81561111       0.56851699       0.55640331 </v>
   <v>       0.06019513       0.80834743       0.56745965 </v>
   <v>       0.31548113       0.80676212       0.56614078 </v>
   <v>       0.56893172       0.82314370       0.53941779 </v>
   <v>       0.81283018       0.80762074       0.56514550 </v>
   <v>       0.05729316       0.06712422       0.80637202 </v>
   <v>       0.31451424       0.06813179       0.81188887 </v>
   <v>       0.56822800       0.06312217       0.80253068 </v>
   <v>       0.80894915       0.07020107       0.80473049 </v>
   <v>       0.06301232       0.31446366       0.81351854 </v>
   <v>       0.31657736       0.32919648       0.80224458 </v>
   <v>       0.56515905       0.30871957       0.80668290 </v>
   <v>       0.80465745       0.30406191       0.81851612 </v>
   <v>       0.07572237       0.55825731       0.81732387 </v>
   <v>       0.31055995       0.56150478       0.82090631 </v>
   <v>       0.57424424       0.55343808       0.80010988 </v>
   <v>       0.81216712       0.55459142       0.81803705 </v>
   <v>       0.06103964       0.81400551       0.80864645 </v>
   <v>       0.30356871       0.81060360       0.82370856 </v>
   <v>       0.54689155       0.80842585       0.82098880 </v>
   <v>       0.80685181       0.80349621       0.81904378 </v>
  </varray>
 </structure>
 <calculation>
  <scstep>
   <time name="dav">   69.92   69.93</time>
   <time name="total">   70.92   70.94</time>
   <energy>
    <i name="alphaZ">    210.77028614 </i>
    <i name="ewald"> -14464.54325849 </i>
    <i name="hartreedc">   -759.23498570 </i>
    <i name="XCdc">  -1195.21874228 </i>
    <i name="pawpsdc">   4221.13331941 </i>
    <i name="pawaedc">  -1969.18571412 </i>
    <i name="eentropy">     -0.00189041 </i>
    <i name="bandstr">   2149.56669171 </i>
    <i name="atom">  13192.48085998 </i>
    <i name="e_fr_energy">   1385.76656626 </i>
    <i name="e_wo_entrp">   1385.76845667 </i>
    <i name="e_0_energy">   1385.76751147 </i>
   </energy>
  </scstep>
  <scstep>
   <time name="dav">   79.76   79.79</time>
   <time name="total">   79.76   79.79</time>
   <energy>
    <i name="e_fr_energy">   -535.32774226 </i>
    <i name="e_wo_entrp">   -535.32774225 </i>
    <i name="e_0_energy">   -535.32774225 </i>
   </energy>
  </scstep>
  <scstep>
   <time name="dav">   81.73   81.75</time>
   <time name="total">   81.73   81.75</time>
   <energy>
    <i name="e_fr_energy">   -685.29734076 </i>
    <i name="e_wo_entrp">   -685.29734076 </i>
    <i name="e_0_energy">   -685.29734076 </i>
   </energy>
  </scstep>
  <scstep>
   <time name="dav">   80.87   80.90</time>
   <time name="total">   80.87   80.90</time>
   <energy>
    <i name="e_fr_energy">   -689.63178095 </i>
    <i name="e_wo_entrp">   -689.63178095 </i>
    <i name="e_0_energy">   -689.63178095 </i>
   </energy>
  </scstep>
  <scstep>
   <time name="dav">   81.95   81.96</time>
   <time name="total">   85.18   85.20</time>
   <energy>
    <i name="e_fr_energy">   -689.78428097 </i>
    <i name="e_wo_entrp">   -689.78428097 </i>
    <i name="e_0_energy">   -689.78428097 </i>
   </energy>
  </scstep>
  <scstep>
   <time name="dav">   77.73   77.76</time>
   <time name="total">   81.95   81.99</time>
   <energy>
    <i name="e_fr_energy">   -681.21147463 </i>
    <i name="e_wo_entrp">   -681.21147463 </i>
    <i name="e_0_energy">   -681.21147463 </i>
   </energy>
  </scstep>
  <scstep>
   <time name="dav">   76.76   76.80</time>
   <time name="total">   80.98   81.02</time>
   <energy>
    <i name="e_fr_energy">   -677.67552947 </i>
    <i name="e_wo_entrp">   -677.67552947 </i>
    <i name="e_0_energy">   -677.67552947 </i>
   </energy>
  </scstep>
  <scstep>
   <time name="dav">   76.65   76.68</time>
   <time name="total">   80.81   80.84</time>
   <energy>
    <i name="e_fr_energy">   -677.72538287 </i>
    <i name="e_wo_entrp">   -677.72538287 </i>
    <i name="e_0_energy">   -677.72538287 </i>
   </energy>
  </scstep>
  <scstep>
   <time name="dav">   79.33   79.35</time>
   <time name="total">   83.47   83.49</time>
   <energy>
    <i name="e_fr_energy">   -677.74863933 </i>
    <i name="e_wo_entrp">   -677.74863933 </i>
    <i name="e_0_energy">   -677.74863933 </i>
   </energy>
  </scstep>
  <scstep>
   <time name="dav">   79.07   79.13</time>
   <time name="total">   83.20   83.28</time>
   <energy>
    <i name="e_fr_energy">   -677.75115414 </i>
    <i name="e_wo_entrp">   -677.75115414 </i>
    <i name="e_0_energy">   -677.75115414 </i>
   </energy>
  </scstep>
  <scstep>
   <time name="dav">   75.67   75.73</time>
   <time name="total">   79.82   79.88</time>
   <energy>
    <i name="e_fr_energy">   -677.75271206 </i>
    <i name="e_wo_entrp">   -677.75271206 </i>
    <i name="e_0_energy">   -677.75271206 </i>
   </energy>
  </scstep>
  <scstep>
   <time name="dav">   79.72   79.78</time>
   <time name="total">   83.86   83.93</time>
   <energy>
    <i name="e_fr_energy">   -677.75276606 </i>
    <i name="e_wo_entrp">   -677.75276606 </i>
    <i name="e_0_energy">   -677.75276606 </i>
   </energy>
  </scstep>
  <scstep>
   <time name="dav">   76.36   76.43</time>
   <time name="total">   80.60   80.67</time>
   <energy>
    <i name="e_fr_energy">   -677.75279799 </i>
    <i name="e_wo_entrp">   -677.75279799 </i>
    <i name="e_0_energy">   -677.75279799 </i>
   </energy>
  </scstep>
  <scstep>
   <time name="dav">   79.53   79.59</time>
   <time name="total">   83.76   83.83</time>
   <energy>
    <i name="e_fr_energy">   -677.75280032 </i>
    <i name="e_wo_entrp">   -677.75280032 </i>
    <i name="e_0_energy">   -677.75280032 </i>
   </energy>
  </scstep>
  <scstep>
   <time name="dav">   79.19   79.24</time>
   <time name="total">   83.42   83.48</time>
   <energy>
    <i name="e_fr_energy">   -677.75280488 </i>
    <i name="e_wo_entrp">   -677.75280488 </i>
    <i name="e_0_energy">   -677.75280488 </i>
   </energy>
  </scstep>
  <scstep>
   <time name="dav">   79.18   79.24</time>
   <time name="total">   83.30   83.37</time>
   <energy>
    <i name="e_fr_energy">   -677.75280421 </i>
    <i name="e_wo_entrp">   -677.75280421 </i>
    <i name="e_0_energy">   -677.75280421 </i>
   </energy>
  </scstep>
  <scstep>
   <time name="dav">   64.95   65.00</time>
   <time name="total">   69.08   69.13</time>
   <energy>
    <i name="e_fr_energy">   -677.75280405 </i>
    <i name="e_wo_entrp">   -677.75280405 </i>
    <i name="e_0_energy">   -677.75280405 </i>
   </energy>
  </scstep>
  <scstep>
   <time name="dav">   51.68   51.72</time>
   <time name="total">   55.80   55.84</time>
   <energy>
    <i name="e_fr_energy">   -677.75280418 </i>
    <i name="e_wo_entrp">   -677.75280418 </i>
    <i name="e_0_energy">   -677.75280418 </i>
   </energy>
  </scstep>
  <scstep>
   <time name="dav">   50.79   50.82</time>
   <time name="total">   54.91   54.96</time>
   <energy>
    <i name="e_fr_energy">   -677.75280414 </i>
    <i name="e_wo_entrp">   -677.75280414 </i>
    <i name="e_0_energy">   -677.75280414 </i>
   </energy>
  </scstep>
  <scstep>
   <time name="dav">   50.06   50.10</time>
   <time name="total">   51.06   51.10</time>
   <energy>
    <i name="alphaZ">    210.77028614 </i>
    <i name="ewald"> -14464.54325849 </i>
    <i name="hartreedc">  -1005.19001224 </i>
    <i name="XCdc">  -1155.66380377 </i>
    <i name="pawpsdc">   4735.60880970 </i>
    <i name="pawaedc">  -2497.46387048 </i>
    <i name="eentropy">     -0.00000000 </i>
    <i name="bandstr">    306.24818499 </i>
    <i name="atom">  13192.48085998 </i>
    <i name="e_fr_energy">   -677.75280415 </i>
    <i name="e_wo_entrp">   -677.75280415 </i>
    <i name="e_0_energy">   -677.75280415 </i>
   </energy>
  </scstep>
  <structure>
   <crystal>
    <varray name="basis" >
     <v>       0.00000000      10.93733369      10.93733369 </v>
     <v>      10.93733369       0.00000000      10.93733369 </v>
     <v>      10.93733369      10.93733369       0.00000000 </v>
    </varray>
    <i name="volume">   2616.76295363 </i>
    <varray name="rec_basis" >
     <v>      -0.04571498       0.04571498       0.04571498 </v>
     <v>       0.04571498      -0.04571498       0.04571498 </v>
     <v>       0.04571498       0.04571498      -0.04571498 </v>
    </varray>
   </crystal>
   <varray name="positions" >
    <v>       0.99548205       0.00221221       0.00748970 </v>
    <v>       0.24198352       0.99763136       0.00208198 </v>
    <v>       0.49561344       0.00752652       0.99047826 </v>
    <v>       0.75037861       0.99454008       0.99645187 </v>
    <v>       0.98845873       0.25298080       0.00442118 </v>
    <v>       0.24947611       0.24647116       0.00797037 </v>
    <v>       0.49837866       0.24595120       0.99610174 </v>
    <v>       0.74680251       0.25349170       0.99512836 </v>
    <v>       0.99955954       0.50635750       0.99349237 </v>
    <v>       0.24942866       0.50168333       0.99979875 </v>
    <v>       0.50260623       0.51098643       0.99744797 </v>
    <v>       0.73374301       0.50020066       0.01504364 </v>
    <v>       0.99735398       0.75167314       0.99606894 </v>
    <v>       0.25997821       0.75187117       0.00093755 </v>
    <v>       0.50557028       0.74246530       0.00055354 </v>
    <v>       0.73702493       0.75592183       0.00913765 </v>
    <v>       0.00244104       0.99899247       0.24963267 </v>
    <v>       0.24670023       0.00256275       0.24775203 </v>
    <v>       0.49802472       0.00859879       0.25731174 </v>
    <v>       0.74372937       0.00990678       0.25708035 </v>
    <v>       0.01207409       0.24198484       0.24053804 </v>
    <v>       0.25786295       0.24781278       0.24450966 </v>
    <v>       0.50156733       0.24813535       0.25990970 </v>
    <v>       0.75382688       0.23992334       0.25404640 </v>
    <v>       0.00110451       0.50534843       0.25331650 </v>
    <v>       0.25058354       0.49779238       0.24803164 </v>
    <v>       0.49213455       0.49757131       0.24800546 </v>
    <v>       0.75314577       0.48973653       0.26225467 </v>
    <v>       0.99899984       0.75407006       0.24526554 </v>
    <v>       0.24531151       0.75899059       0.24468380 </v>
    <v>       0.49504042       0.75435299       0.25750279 </v>
    <v>       0.75581887       0.74857226       0.23612128 </v>
    <v>       0.99187507       0.99915064       0.50606881 </v>
    <v>       0.25149553       0.99444301       0.50498609 </v>
    <v>       0.50292279       0.99537902       0.50073920 </v>
    <v>       0.75212467       0.99125448       0.49834054 </v>
    <v>       0.99352166       0.26921076       0.49699349 </v>
    <v>       0.25063553       0.25219889       0.48969794 </v>
    <v>       0.50640408       0.25764853       0.49694467 </v>
    <v>       0.75352152       0.24832731       0.50267081 </v>
    <v>       0.99236582       0.49889272       0.50697871 </v>
    <v>       0.24767243       0.50835285       0.50036324 </v>
    <v>       0.49134368       0.50839653       0.49308406 </v>
    <v>       0.74805177       0.51874714       0.49285399 </v>
    <v>       0.99217333       0.75514706       0.49664753 </v>
    <v>       0.24698562       0.74772543       0.49192069 </v>
    <v>       0.49588906       0.74869727       0.50875781 </v>
    <v>       0.75331177       0.74538897       0.50386353 </v>
    <v>       0.99252559       0.99772503       0.76156392 </v>
    <v>       0.24724403       0.99511887       0.75809089 </v>
    <v>       0.48697399       0.01063905       0.76158301 </v>
    <v>       0.75480427       0.00165847       0.74564881 </v>
    <v>       0.99619359       0.25791739       0.75124042 </v>
    <v>       0.24649891       0.25225188       0.75432252 </v>
    <v>       0.48807725       0.26142338       0.75623788 </v>
    <v>       0.74918090       0.25595842       0.73706424 </v>
    <v>       0.00434341       0.49516150       0.75386233 </v>
    <v>       0.26033155       0.50184148       0.74440402 </v>
    <v>       0.50130741       0.51052906       0.74038198 </v>
    <v>       0.76046280       0.50318357       0.73359185 </v>
    <v>       0.01023254       0.74923331       0.74298952 </v>
    <v>       0.24953576       0.74360157       0.75050258 </v>
    <v>       0.48988888       0.75328040       0.75034452 </v>
    <v>       0.75331877       0.74995868       0.74103068 </v>
    <v>       0.05835856       0.06141284       0.06983552 </v>
    <v>       0.31389699       0.05394246       0.06442152 </v>
    <v>       0.55244158       0.06056276       0.06034496 </v>
    <v>       0.81445963       0.06342944       0.06443328 </v>
    <v>       0.07077331       0.29680106       0.06795686 </v>
    <v>       0.31980503       0.31298381       0.04814118 </v>
    <v>       0.56892814       0.31314110       0.06058612 </v>
    <v>       0.79322207       0.31112260       0.06541073 </v>
    <v>       0.07228933       0.56929169       0.06169162 </v>
    <v>       0.31180933       0.56569636       0.06454201 </v>
    <v>       0.56436538       0.55355197       0.06225088 </v>
    <v>       0.81093917       0.55910137       0.07952781 </v>
    <v>       0.05627033       0.81051922       0.06987688 </v>
    <v>       0.31321589       0.80407423       0.06304610 </v>
    <v>       0.55741006       0.81246094       0.06149899 </v>
    <v>       0.81988799       0.81568323       0.04476484 </v>
    <v>       0.06804787       0.06169004       0.31604552 </v>
    <v>       0.31788796       0.05717444       0.30978978 </v>
    <v>       0.56560678       0.05672348       0.31524285 </v>
    <v>       0.81934582       0.06735671       0.31668335 </v>
    <v>       0.07065429       0.29371185       0.31672784 </v>
    <v>       0.31069846       0.31944691       0.30974482 </v>
    <v>       0.55473983       0.32491836       0.30988778 </v>
    <v>       0.80869330       0.31617472       0.31840600 </v>
    <v>       0.06498562       0.56079849       0.30838975 </v>
    <v>       0.31877656       0.55369396       0.32557780 </v>
    <v>       0.56136236       0.56453019       0.30260327 </v>
    <v>       0.81235101       0.56908916       0.30688200 </v>
    <v>       0.04690988       0.81552071       0.31350985 </v>
    <v>       0.30879813       0.81655186       0.30766505 </v>
    <v>       0.55732802       0.81417931       0.30828270 </v>
    <v>       0.81194573       0.81052376       0.31499518 </v>
    <v>       0.06443561       0.06326693       0.55477429 </v>
    <v>       0.31976617       0.07104308       0.54431720 </v>
    <v>       0.56259681       0.05500066       0.56282178 </v>
    <v>       0.80023106       0.06926145       0.56638802 </v>
    <v>       0.05870449       0.31320817       0.57470201 </v>
    <v>       0.31769620       0.30493206       0.56257737 </v>
    <v>       0.56845452       0.30300809       0.55747784 </v>
    <v>       0.81336507       0.31761983       0.55759369 </v>
    <v>       0.07410703       0.57253693       0.55581052 </v>
    <v>       0.30541771       0.57000549       0.56065356 </v>
    <v>       0.55533964       0.57134118       0.55905529 </v>
    <v>       0.81561111       0.56851699       0.55640331 </v>
    <v>       0.06019513       0.80834743       0.56745965 </v>
    <v>       0.31548113       0.80676212       0.56614078 </v>
    <v>       0.56893172       0.82314370       0.53941779 </v>
    <v>       0.81283018       0.80762074       0.56514550 </v>
    <v>       0.05729316       0.06712422       0.80637202 </v>
    <v>       0.31451424       0.06813179       0.81188887 </v>
    <v>       0.56822800       0.06312217       0.80253068 </v>
    <v>       0.80894915       0.07020107       0.80473049 </v>
    <v>       0.06301232       0.31446366       0.81351854 </v>
    <v>       0.31657736       0.32919648       0.80224458 </v>
    <v>       0.56515905       0.30871957       0.80668290 </v>
    <v>       0.80465745       0.30406191       0.81851612 </v>
    <v>       0.07572237       0.55825731       0.81732387 </v>
    <v>       0.31055995       0.56150478       0.82090631 </v>
    <v>       0.57424424       0.55343808       0.80010988 </v>
    <v>       0.81216712       0.55459142       0.81803705 </v>
    <v>       0.06103964       0.81400551       0.80864645 </v>
    <v>       0.30356871       0.81060360       0.82370856 </v>
    <v>       0.54689155       0.80842585       0.82098880 </v>
    <v>       0.80685181       0.80349621       0.81904378 </v>
   </varray>
  </structure>
  <varray name="forces" >
   <v>      -1.32268577      -0.16857879       0.39259511 </v>
   <v>      -0.40780095       0.67905666       0.70866515 </v>
   <v>      -1.19017994       0.49655851      -0.80892567 </v>
   <v>       1.56149346      -0.88620996       1.02361831 </v>
   <v>      -0.23764787       0.23236369       0.01242621 </v>
   <v>      -2.00254138      -0.74242200       0.39157892 </v>
   <v>      -0.08356800       0.97629447       1.57455089 </v>
   <v>      -0.97795887       0.63363874      -1.34295859 </v>
   <v>       0.89103234       2.36547893      -0.93799934 </v>
   <v>      -0.13579906       1.39086810       0.31364224 </v>
   <v>      -2.84371294      -1.74161678      -2.04084302 </v>
   <v>      -1.83206897       1.98422501       2.27287623 </v>
   <v>      -0.52075556       0.93155261       1.15662007 </v>
   <v>      -0.71854438      -2.01342242      -3.37636369 </v>
   <v>       0.36888424      -0.06400012      -0.93485120 </v>
   <v>      -1.86232085       0.40692826      -0.21150763 </v>
   <v>       0.72960336       0.80458307       0.20735726 </v>
   <v>      -0.39837620       1.19013393       0.62313681 </v>
   <v>      -2.84049010      -1.30395988      -1.10594316 </v>
   <v>      -1.65853214       0.89283306       0.58184453 </v>
   <v>       2.73241815       0.41529454      -1.46127152 </v>
   <v>      -0.12509150       0.00896111       0.00774345 </v>
   <v>      -0.97738609      -1.19144328      -0.25797137 </v>
   <v>       2.25436347      -1.93469107       1.19883496 </v>
   <v>      -2.21080285      -0.71777914      -1.36436355 </v>
   <v>       1.35527836       0.40893616       0.85786104 </v>
   <v>       0.39204961       0.11890279       2.31108019 </v>
   <v>       1.26403385      -1.50030145       0.65944562 </v>
   <v>      -0.04068913       0.53125513      -1.92411004 </v>
   <v>      -0.20984417       0.66683759      -1.66180295 </v>
   <v>      -2.10688240      -1.73704481      -0.84990922 </v>
   <v>       1.54557182      -0.67160798       0.37072076 </v>
   <v>      -0.20308881       0.01927918       0.25376038 </v>
   <v>      -0.48514505      -0.79398999       0.37743077 </v>
   <v>       0.66940685      -1.35500969       0.85172144 </v>
   <v>       1.45001840       0.15012490       0.27205966 </v>
   <v>      -1.49271481       1.49712406      -0.79101970 </v>
   <v>       1.52234955       0.49161216       0.00280011 </v>
   <v>      -2.22826270      -1.64261882      -2.63052911 </v>
   <v>       0.27490753      -0.73555508       0.21162358 </v>
   <v>      -0.83564617       0.95726682       2.53767184 </v>
   <v>      -1.45594975       2.00208499      -1.08019748 </v>
   <v>      -0.87226428       0.91937574       0.01648830 </v>
   <v>      -0.82814187      -0.19426339      -1.58401230 </v>
   <v>       0.02989555       1.22279286       0.60313659 </v>
   <v>       1.59547532       0.20824523       0.98697799 </v>
   <v>      -0.93968861      -1.34391333       1.26429946 </v>
   <v>       0.28693714      -1.34385472       0.75215858 </v>
   <v>      -1.43184030      -1.38095657       0.83379535 </v>
   <v>      -0.12958273      -1.07789264       1.34584495 </v>
   <v>      -3.46255632       0.54223204       0.07362000 </v>
   <v>      -0.27644459       0.48436240      -1.41933542 </v>
   <v>       0.19140222       0.70364334      -1.69287574 </v>
   <v>      -0.29647168       0.04158736       1.08726094 </v>
   <v>      -3.70146088       0.55176345       0.47809506 </v>
   <v>       0.43654224       0.91136990      -0.60597872 </v>
   <v>       0.76457066      -0.53647256       1.29870017 </v>
   <v>       1.48919984      -0.77263608       0.68954644 </v>
   <v>      -0.64885485       0.32368885      -2.15207996 </v>
   <v>       0.73915836       1.43946574      -1.85251101 </v>
   <v>       1.05537830       0.24871930      -2.35362121 </v>
   <v>       1.27246961       0.04398619       0.33237840 </v>
   <v>      -1.46964437      -0.11020234       0.22369360 </v>
   <v>       1.45003446       0.78708315      -2.23536165 </v>
   <v>      -0.13873268      -1.06263419       0.54272382 </v>
   <v>       0.22011282      -1.15694171       0.15120815 </v>
   <v>       0.55583184       1.79095075       0.74032040 </v>
   <v>       0.24545553      -0.81958321      -1.11489958 </v>
   <v>       0.24062306      -2.96540155       1.29334184 </v>
   <v>       2.03575924       0.52340368      -0.57704533 </v>
   <v>       1.17510594      -1.22126601      -1.46902855 </v>
   <v>       0.95324412       1.89143408       1.85416543 </v>
   <v>       0.17073061      -1.17083889      -2.25694443 </v>
   <v>      -0.76729144       0.00234020       0.44282958 </v>
   <v>       2.99717272      -0.42780137       0.22413851 </v>
   <v>      -0.82314032      -1.49210598       0.35681115 </v>
   <v>      -1.13578766      -0.97011942       1.86107383 </v>
   <v>       1.83836868       1.42933634       2.54051792 </v>
   <v>       1.61733343      -0.08597351       0.04694725 </v>
   <v>       1.02013894       0.50028355      -1.14391820 </v>
   <v>      -0.11744290      -0.59995606      -1.68647888 </v>
   <v>       1.13117208      -0.06503100      -0.40829389 </v>
   <v>       1.96797404       0.26461672       1.08221840 </v>
   <v>      -1.34597440       0.14621187      -1.67965028 </v>
   <v>       0.87906854      -1.06582713       1.61103823 </v>
   <v>      -1.59613698       0.16326033      -0.22840830 </v>
   <v>      -1.43927485       2.65912635      -0.66033371 </v>
   <v>      -2.71194367       1.05040431      -0.67268125 </v>
   <v>       1.87328397       1.06144461       0.40544356 </v>
   <v>       0.13884534      -3.48914741       0.14903655 </v>
   <v>       0.49727006       0.51643601       0.00659801 </v>
   <v>      -0.27290678       0.89965478      -0.11463868 </v>
   <v>      -0.22962681       1.17321449       1.56761353 </v>
   <v>       0.02786378       0.09632303       0.13933449 </v>
   <v>       1.49725523       1.94230156       1.57954562 </v>
   <v>      -0.01545036      -0.78664415       0.24097157 </v>
   <v>       1.76335933       0.42037815      -0.19362956 </v>
   <v>       0.56351744       1.21391331      -1.92266399 </v>
   <v>       1.35017589       0.36487203       0.83989392 </v>
   <v>      -1.91810502       0.37558042      -0.12848541 </v>
   <v>      -1.27783510      -1.04821267       0.99716139 </v>
   <v>       0.89742229      -0.52042267       0.25406575 </v>
   <v>       3.56618506       1.37041113       1.73677063 </v>
   <v>       0.68340800      -1.12413626       0.88008464 </v>
   <v>       0.72286448      -1.39213998      -3.03337537 </v>
   <v>      -0.42659419       0.99261707       0.15247538 </v>
   <v>      -1.39114700       0.40457092      -0.06434586 </v>
   <v>      -0.29237233      -0.14914759      -0.50400372 </v>
   <v>      -0.80879105      -1.63235152       1.00218497 </v>
   <v>      -0.00879406      -1.20902995      -0.52038639 </v>
   <v>       0.42494269       2.31593697      -1.98987335 </v>
   <v>      -0.27584827      -0.77740375       0.44804846 </v>
   <v>       1.21218471       1.52564000       0.40630994 </v>
   <v>       1.04864972      -1.19622261      -2.12601387 </v>
   <v>       1.90504548       0.25949917       0.82223804 </v>
   <v>       0.43715983       0.77296065      -0.31739755 </v>
   <v>       0.12726187       0.42336971      -0.72797287 </v>
   <v>      -0.00763049       0.23866971      -3.76073685 </v>
   <v>       1.65043601       0.03533251       1.15048355 </v>
   <v>      -0.50966908      -1.12183666       2.36634786 </v>
   <v>      -0.78473239      -1.84375702       0.00401612 </v>
   <v>      -1.16174753      -0.34628011       0.95971894 </v>
   <v>       2.40633372       0.47261674       1.04160971 </v>
   <v>       0.39160767      -0.21440237       0.55177403 </v>
   <v>       0.20725212       0.69335151       0.31561053 </v>
   <v>      -1.39972384      -0.86546302       0.48590730 </v>
   <v>      -0.35375090      -0.04012224       2.22043935 </v>
   <v>      -0.09100394       0.14967020       1.34886944 </v>
  </varray>
  <varray name="stress" >
   <v>      13.39613908       2.16181623      -0.50588041 </v>
   <v>       2.16181622      16.98953003       8.23437598 </v>
   <v>      -0.50588041       8.23437598      14.01342479 </v>
  </varray>
  <energy>
   <i name="e_fr_energy">   -677.75280415 </i>
   <i name="e_wo_entrp">   -677.75280415 </i>
   <i name="e_0_energy">     -0.00000000 </i>
  </energy>
  <time name="totalsc"> 1651.53 1652.50</time>
  <eigenvalues>
   <array>
    <dimension dim="1">band</dimension>
    <dimension dim="2">kpoint</dimension>
    <dimension dim="3">spin</dimension>
    <field>eigene</field>
    <field>occ</field>
    <set>
     <set comment="spin 1">
      <set comment="kpoint 1">
       <r>   -6.3047    1.0000 </r>
       <r>   -5.6898    1.0000 </r>
       <r>   -5.6638    1.0000 </r>
       <r>   -5.6034    1.0000 </r>
       <r>   -5.5814    1.0000 </r>
       <r>   -5.5474    1.0000 </r>
       <r>   -5.4814    1.0000 </r>
       <r>   -5.4467    1.0000 </r>
       <r>   -5.4038    1.0000 </r>
       <r>   -5.3090    1.0000 </r>
       <r>   -5.2822    1.0000 </r>
       <r>   -5.2523    1.0000 </r>
       <r>   -5.1956    1.0000 </r>
       <r>   -5.1394    1.0000 </r>
       <r>   -5.1078    1.0000 </r>
       <r>   -4.5654    1.0000 </r>
       <r>   -4.4616    1.0000 </r>
       <r>   -4.4409    1.0000 </r>
       <r>   -4.4223    1.0000 </r>
       <r>   -4.3982    1.0000 </r>
       <r>   -4.3656    1.0000 </r>
       <r>   -4.3132    1.0000 </r>
       <r>   -4.2826    1.0000 </r>
       <r>   -4.2587    1.0000 </r>
       <r>   -4.2190    1.0000 </r>
       <r>   -4.1645    1.0000 </r>
       <r>   -4.1384    1.0000 </r>
       <r>   -4.0836    1.0000 </r>
       <r>   -4.0359    1.0000 </r>
       <r>   -4.0266    1.0000 </r>
       <r>   -3.9632    1.0000 </r>
       <r>   -3.8913    1.0000 </r>
       <r>   -3.8099    1.0000 </r>
       <r>   -3.7890    1.0000 </r>
       <r>   -3.7529    1.0000 </r>
       <r>   -3.7142    1.0000 </r>
       <r>   -3.6978    1.0000 </r>
       <r>   -3.6775    1.0000 </r>
       <r>   -3.6556    1.0000 </r>
       <r>   -3.6500    1.0000 </r>
       <r>   -3.5989    1.0000 </r>
       <r>   -3.5670    1.0000 </r>
       <r>   -3.5604    1.0000 </r>
       <r>   -3.5316    1.0000 </r>
       <r>   -3.5035    1.0000 </r>
       <r>   -3.4900    1.0000 </r>
       <r>   -3.4726    1.0000 </r>
       <r>   -3.4407    1.0000 </r>
       <r>   -3.4156    1.0000 </r>
       <r>   -3.3840    1.0000 </r>
       <r>   -3.3615    1.0000 </r>
       <r>   -3.3448    1.0000 </r>
       <r>   -3.3203    1.0000 </r>
       <r>   -3.2951    1.0000 </r>
       <r>   -3.2326    1.0000 </r>
       <r>   -2.4043    1.0000 </r>
       <r>   -2.3049    1.0000 </r>
       <r>   -2.2679    1.0000 </r>
       <r>   -2.2252    1.0000 </r>
       <r>   -2.2023    1.0000 </r>
       <r>   -2.1456    1.0000 </r>
       <r>   -2.1363    1.0000 </r>
       <r>   -2.1059    1.0000 </r>
       <r>   -2.0984    1.0000 </r>
       <r>   -2.0343    1.0000 </r>
       <r>   -2.0183    1.0000 </r>
       <r>   -2.0012    1.0000 </r>
       <r>   -1.9793    1.0000 </r>
       <r>   -1.9403    1.0000 </r>
       <r>   -1.9229    1.0000 </r>
       <r>   -1.8543    1.0000 </r>
       <r>   -1.8488    1.0000 </r>
       <r>   -1.8067    1.0000 </r>
       <r>   -1.4013    1.0000 </r>
       <r>   -1.3603    1.0000 </r>
       <r>   -1.2735    1.0000 </r>
       <r>   -1.1748    1.0000 </r>
       <r>   -1.0570    1.0000 </r>
       <r>   -0.9918    1.0000 </r>
       <r>   -0.9544    1.0000 </r>
       <r>   -0.9324    1.0000 </r>
       <r>   -0.9143    1.0000 </r>
       <r>   -0.8632    1.0000 </r>
       <r>   -0.8531    1.0000 </r>
       <r>   -0.8238    1.0000 </r>
       <r>   -0.8106    1.0000 </r>
       <r>   -0.7892    1.0000 </r>
       <r>   -0.7712    1.0000 </r>
       <r>   -0.7369    1.0000 </r>
       <r>   -0.7090    1.0000 </r>
       <r>   -0.6892    1.0000 </r>
       <r>   -0.6683    1.0000 </r>
       <r>   -0.6454    1.0000 </r>
       <r>   -0.6082    1.0000 </r>
       <r>   -0.5792    1.0000 </r>
       <r>   -0.5699    1.0000 </r>
       <r>   -0.5432    1.0000 </r>
       <r>   -0.4946    1.0000 </r>
       <r>   -0.4821    1.0000 </r>
       <r>   -0.4318    1.0000 </r>
       <r>   -0.3036    1.0000 </r>
       <r>    0.0060    1.0000 </r>
       <r>    0.0378    1.0000 </r>
       <r>    0.0689    1.0000 </r>
       <r>    0.1095    1.0000 </r>
       <r>    0.1112    1.0000 </r>
       <r>    0.1278    1.0000 </r>
       <r>    0.1937    1.0000 </r>
       <r>    0.2107    1.0000 </r>
       <r>    0.2425    1.0000 </r>
       <r>    0.3211    1.0000 </r>
       <r>    0.3495    1.0000 </r>
       <r>    0.3890    1.0000 </r>
       <r>    1.4510    1.0000 </r>
       <r>    1.4762    1.0000 </r>
       <r>    1.4828    1.0000 </r>
       <r>    1.5124    1.0000 </r>
       <r>    1.5295    1.0000 </r>
       <r>    1.5501    1.0000 </r>
       <r>    1.5743    1.0000 </r>
       <r>    1.6125    1.0000 </r>
       <r>    1.6519    1.0000 </r>
       <r>    1.6734    1.0000 </r>
       <r>    1.6874    1.0000 </r>
       <r>    1.6986    1.0000 </r>
       <r>    1.7064    1.0000 </r>
       <r>    1.7172    1.0000 </r>
       <r>    1.7379    1.0000 </r>
       <r>    1.7521    1.0000 </r>
       <r>    1.7749    1.0000 </r>
       <r>    1.7829    1.0000 </r>
       <r>    1.7969    1.0000 </r>
       <r>    1.8146    1.0000 </r>
       <r>    1.8196    1.0000 </r>
       <r>    1.8377    1.0000 </r>
       <r>    1.8481    1.0000 </r>
       <r>    1.8659    1.0000 </r>
       <r>    1.8719    1.0000 </r>
       <r>    1.8902    1.0000 </r>
       <r>    1.9016    1.0000 </r>
       <r>    1.9207    1.0000 </r>
       <r>    1.9257    1.0000 </r>
       <r>    1.9393    1.0000 </r>
       <r>    1.9554    1.0000 </r>
       <r>    1.9754    1.0000 </r>
       <r>    1.9885    1.0000 </r>
       <r>    2.0084    1.0000 </r>
       <r>    2.0146    1.0000 </r>
       <r>    2.0278    1.0000 </r>
       <r>    2.0389    1.0000 </r>
       <r>    2.0494    1.0000 </r>
       <r>    2.0673    1.0000 </r>
       <r>    2.0691    1.0000 </r>
       <r>    2.0964    1.0000 </r>
       <r>    2.1162    1.0000 </r>
       <r>    2.1320    1.0000 </r>
       <r>    2.1440    1.0000 </r>
       <r>    2.1593    1.0000 </r>
       <r>    2.1767    1.0000 </r>
       <r>    2.1956    1.0000 </r>
       <r>    2.2101    1.0000 </r>
       <r>    2.2306    1.0000 </r>
       <r>    2.2420    1.0000 </r>
       <r>    2.2446    1.0000 </r>
       <r>    2.2713    1.0000 </r>
       <r>    2.2817    1.0000 </r>
       <r>    2.3012    1.0000 </r>
       <r>    2.3347    1.0000 </r>
       <r>    2.3476    1.0000 </r>
       <r>    2.3682    1.0000 </r>
       <r>    2.3865    1.0000 </r>
       <r>    2.4192    1.0000 </r>
       <r>    2.4330    1.0000 </r>
       <r>    2.4556    1.0000 </r>
       <r>    2.5330    1.0000 </r>
       <r>    2.7421    1.0000 </r>
       <r>    2.7898    1.0000 </r>
       <r>    2.8220    1.0000 </r>
       <r>    2.8511    1.0000 </r>
       <r>    2.8684    1.0000 </r>
       <r>    2.8960    1.0000 </r>
       <r>    3.1964    1.0000 </r>
       <r>    3.2426    1.0000 </r>
       <r>    3.2571    1.0000 </r>
       <r>    3.2727    1.0000 </r>
       <r>    3.2779    1.0000 </r>
       <r>    3.3094    1.0000 </r>
       <r>    3.3316    1.0000 </r>
       <r>    3.3491    1.0000 </r>
       <r>    3.3661    1.0000 </r>
       <r>    3.3690    1.0000 </r>
       <r>    3.3753    1.0000 </r>
       <r>    3.4002    1.0000 </r>
       <r>    3.4210    1.0000 </r>
       <r>    3.4544    1.0000 </r>
       <r>    3.4715    1.0000 </r>
       <r>    3.4815    1.0000 </r>
       <r>    3.4973    1.0000 </r>
       <r>    3.5133    1.0000 </r>
       <r>    3.5355    1.0000 </r>
       <r>    3.5520    1.0000 </r>
       <r>    3.5714    1.0000 </r>
       <r>    3.5888    1.0000 </r>
       <r>    3.6185    1.0000 </r>
       <r>    3.6273    1.0000 </r>
       <r>    3.6665    1.0000 </r>
       <r>    3.7068    1.0000 </r>
       <r>    3.7343    1.0000 </r>
       <r>    3.7471    1.0000 </r>
       <r>    3.7914    1.0000 </r>
       <r>    3.8083    1.0000 </r>
       <r>    3.8276    1.0000 </r>
       <r>    3.8698    1.0000 </r>
       <r>    3.8923    1.0000 </r>
       <r>    3.8996    1.0000 </r>
       <r>    3.9161    1.0000 </r>
       <r>    3.9913    1.0000 </r>
       <r>    4.1258    1.0000 </r>
       <r>    4.1552    1.0000 </r>
       <r>    4.1933    1.0000 </r>
       <r>    4.2148    1.0000 </r>
       <r>    4.2371    1.0000 </r>
       <r>    4.2723    1.0000 </r>
       <r>    4.2781    1.0000 </r>
       <r>    4.2977    1.0000 </r>
       <r>    4.3496    1.0000 </r>
       <r>    4.3603    1.0000 </r>
       <r>    4.3960    1.0000 </r>
       <r>    4.4318    1.0000 </r>
       <r>    4.4520    1.0000 </r>
       <r>    4.4753    1.0000 </r>
       <r>    4.5004    1.0000 </r>
       <r>    4.5510    1.0000 </r>
       <r>    4.5595    1.0000 </r>
       <r>    4.5957    1.0000 </r>
       <r>    4.6227    1.0000 </r>
       <r>    4.6482    1.0000 </r>
       <r>    4.7122    1.0000 </r>
       <r>    4.7694    1.0000 </r>
       <r>    4.8059    1.0000 </r>
       <r>    4.8157    1.0000 </r>
       <r>    4.8527    1.0000 </r>
       <r>    4.8862    1.0000 </r>
       <r>    4.9393    1.0000 </r>
       <r>    4.9892    1.0000 </r>
       <r>    5.0005    1.0000 </r>
       <r>    5.0470    1.0000 </r>
       <r>    5.0850    1.0000 </r>
       <r>    5.1085    1.0000 </r>
       <r>    5.1635    1.0000 </r>
       <r>    5.1760    1.0000 </r>
       <r>    5.1815    1.0000 </r>
       <r>    5.3930    1.0000 </r>
       <r>    5.6071    1.0000 </r>
       <r>    5.7417    1.0000 </r>
       <r>    5.9061    1.0000 </r>
       <r>    6.1035    0.0000 </r>
       <r>    6.1807    0.0000 </r>
       <r>    6.2337    0.0000 </r>
       <r>    6.2556    0.0000 </r>
       <r>    6.3085    0.0000 </r>
       <r>    6.3793    0.0000 </r>
       <r>    6.5112    0.0000 </r>
       <r>    6.5459    0.0000 </r>
       <r>    6.5688    0.0000 </r>
       <r>    6.6492    0.0000 </r>
       <r>    6.6756    0.0000 </r>
       <r>    6.7246    0.0000 </r>
       <r>    6.7966    0.0000 </r>
       <r>    6.8242    0.0000 </r>
       <r>    6.8509    0.0000 </r>
       <r>    6.8701    0.0000 </r>
       <r>    6.8980    0.0000 </r>
       <r>    6.9040    0.0000 </r>
       <r>    6.9294    0.0000 </r>
       <r>    6.9363    0.0000 </r>
       <r>    6.9628    0.0000 </r>
       <r>    6.9702    0.0000 </r>
       <r>    6.9992    0.0000 </r>
       <r>    7.0252    0.0000 </r>
       <r>    7.0283    0.0000 </r>
       <r>    7.0522    0.0000 </r>
       <r>    7.0664    0.0000 </r>
       <r>    7.0861    0.0000 </r>
       <r>    7.0998    0.0000 </r>
       <r>    7.1091    0.0000 </r>
       <r>    7.1308    0.0000 </r>
       <r>    7.1434    0.0000 </r>
       <r>    7.1841    0.0000 </r>
       <r>    7.1977    0.0000 </r>
       <r>    7.2169    0.0000 </r>
       <r>    7.2589    0.0000 </r>
       <r>    7.2785    0.0000 </r>
       <r>    7.3100    0.0000 </r>
       <r>    7.3294    0.0000 </r>
       <r>    7.3972    0.0000 </r>
       <r>    7.4202    0.0000 </r>
       <r>    7.4500    0.0000 </r>
       <r>    7.4773    0.0000 </r>
       <r>    7.5181    0.0000 </r>
       <r>    7.5373    0.0000 </r>
       <r>    7.5565    0.0000 </r>
       <r>    7.5943    0.0000 </r>
       <r>    7.6246    0.0000 </r>
       <r>    7.7968    0.0000 </r>
       <r>    7.8474    0.0000 </r>
       <r>    7.8889    0.0000 </r>
       <r>    7.9146    0.0000 </r>
       <r>    7.9307    0.0000 </r>
       <r>    7.9611    0.0000 </r>
       <r>    7.9748    0.0000 </r>
       <r>    7.9982    0.0000 </r>
       <r>    8.0233    0.0000 </r>
       <r>    8.0582    0.0000 </r>
       <r>    8.0763    0.0000 </r>
       <r>    8.1152    0.0000 </r>
       <r>    8.1507    0.0000 </r>
       <r>    8.2184    0.0000 </r>
       <r>    8.2442    0.0000 </r>
       <r>    8.5274    0.0000 </r>
       <r>    8.5546    0.0000 </r>
       <r>    8.6129    0.0000 </r>
      </set>
      <set comment="kpoint 2">
       <r>   -6.1356    1.0000 </r>
       <r>   -6.0932    1.0000 </r>
       <r>   -5.7073    1.0000 </r>
       <r>   -5.6255    1.0000 </r>
       <r>   -5.6156    1.0000 </r>
       <r>   -5.5870    1.0000 </r>
       <r>   -5.5602    1.0000 </r>
       <r>   -5.4811    1.0000 </r>
       <r>   -5.2318    1.0000 </r>
       <r>   -5.1762    1.0000 </r>
       <r>   -5.0881    1.0000 </r>
       <r>   -5.0717    1.0000 </r>
       <r>   -5.0440    1.0000 </r>
       <r>   -4.9020    1.0000 </r>
       <r>   -4.7459    1.0000 </r>
[...]
       <r>    -3.1123    36.3983   100.4288 </r>
       <r>    -3.0576    52.8609   103.3202 </r>
       <r>    -3.0029    42.9469   105.6693 </r>
       <r>    -2.9482    40.3498   107.8764 </r>
       <r>    -2.8935    37.5192   109.9286 </r>
       <r>    -2.8388    38.2719   112.0220 </r>
       <r>    -2.7841    30.2098   113.6744 </r>
       <r>    -2.7294    24.2230   114.9993 </r>
       <r>    -2.6747    27.0224   116.4774 </r>
       <r>    -2.6200    58.6337   119.6846 </r>
       <r>    -2.5653    27.9968   121.2160 </r>
       <r>    -2.5106    16.6465   122.1265 </r>
       <r>    -2.4559     7.8706   122.5570 </r>
       <r>    -2.4012     6.5922   122.9176 </r>
       <r>    -2.3465     1.5065   123.0000 </r>
       <r>    -2.2918     8.9966   123.4921 </r>
       <r>    -2.2371     5.4527   123.7904 </r>
       <r>    -2.1824    24.9620   125.1558 </r>
       <r>    -2.1277    27.9486   126.6845 </r>
       <r>    -2.0730    32.9930   128.4891 </r>
       <r>    -2.0183    28.6066   130.0539 </r>
       <r>    -1.9636    28.0069   131.5858 </r>
       <r>    -1.9089    16.6043   132.4940 </r>
       <r>    -1.8542     3.4214   132.6812 </r>
       <r>    -1.7995     9.6889   133.2111 </r>
       <r>    -1.7448     0.7104   133.2500 </r>
       <r>    -1.6901     3.5309   133.4431 </r>
       <r>    -1.6354    16.0806   134.3227 </r>
       <r>    -1.5807    22.3123   135.5432 </r>
       <r>    -1.5260    42.8443   137.8867 </r>
       <r>    -1.4714    38.1629   139.9741 </r>
       <r>    -1.4167    34.0341   141.8357 </r>
       <r>    -1.3620    55.6624   144.8803 </r>
       <r>    -1.3073    56.0436   147.9458 </r>
       <r>    -1.2526    66.0251   151.5572 </r>
       <r>    -1.1979    56.0746   154.6244 </r>
       <r>    -1.1432    60.4216   157.9293 </r>
       <r>    -1.0885    55.2211   160.9498 </r>
       <r>    -1.0338    61.5839   164.3184 </r>
       <r>    -0.9791    51.6957   167.1460 </r>
       <r>    -0.9244    76.5754   171.3345 </r>
       <r>    -0.8697    64.4460   174.8596 </r>
       <r>    -0.8150    55.5005   177.8954 </r>
       <r>    -0.7603    56.8812   181.0067 </r>
       <r>    -0.7056    42.1063   183.3099 </r>
       <r>    -0.6509    48.7614   185.9770 </r>
       <r>    -0.5962    37.0184   188.0019 </r>
       <r>    -0.5415    25.6582   189.4053 </r>
       <r>    -0.4868    19.2202   190.4567 </r>
       <r>    -0.4321    17.7982   191.4302 </r>
       <r>    -0.3774    33.1189   193.2417 </r>
       <r>    -0.3227    53.0735   196.1447 </r>
       <r>    -0.2680    56.7956   199.2513 </r>
       <r>    -0.2133    40.4384   201.4632 </r>
       <r>    -0.1586    59.7179   204.7297 </r>
       <r>    -0.1039    30.3837   206.3916 </r>
       <r>    -0.0492    46.6023   208.9407 </r>
       <r>     0.0055    29.7589   210.5685 </r>
       <r>     0.0602    36.1017   212.5431 </r>
       <r>     0.1149    22.4557   213.7714 </r>
       <r>     0.1696     8.7506   214.2501 </r>
       <r>     0.2243     9.3673   214.7624 </r>
       <r>     0.2790    19.5532   215.8320 </r>
       <r>     0.3337    25.8883   217.2480 </r>
       <r>     0.3884    28.4228   218.8027 </r>
       <r>     0.4431    18.3479   219.8063 </r>
       <r>     0.4978    15.7967   220.6703 </r>
       <r>     0.5525    40.8948   222.9072 </r>
       <r>     0.6072    12.4747   223.5895 </r>
       <r>     0.6619    23.2282   224.8600 </r>
       <r>     0.7166    12.8416   225.5624 </r>
       <r>     0.7713    18.8319   226.5925 </r>
       <r>     0.8260    16.6328   227.5023 </r>
       <r>     0.8807    11.6611   228.1401 </r>
       <r>     0.9354    28.5110   229.6996 </r>
       <r>     0.9901    12.8291   230.4013 </r>
       <r>     1.0448    23.5828   231.6913 </r>
       <r>     1.0994    21.9917   232.8942 </r>
       <r>     1.1541    38.4246   234.9959 </r>
       <r>     1.2088    18.4949   236.0076 </r>
       <r>     1.2635    31.3942   237.7248 </r>
       <r>     1.3182    18.3402   238.7280 </r>
       <r>     1.3729    38.2019   240.8175 </r>
       <r>     1.4276    28.9526   242.4012 </r>
       <r>     1.4823    78.1326   246.6749 </r>
       <r>     1.5370    81.9325   251.1564 </r>
       <r>     1.5917   100.0985   256.6316 </r>
       <r>     1.6464    87.9547   261.4425 </r>
       <r>     1.7011    68.3665   265.1821 </r>
       <r>     1.7558    48.7234   267.8471 </r>
       <r>     1.8105    57.3000   270.9813 </r>
       <r>     1.8652    30.1396   272.6299 </r>
       <r>     1.9199    18.9313   273.6654 </r>
       <r>     1.9746    17.4429   274.6195 </r>
       <r>     2.0293    32.0475   276.3724 </r>
       <r>     2.0840    78.9533   280.6910 </r>
       <r>     2.1387    85.6448   285.3757 </r>
       <r>     2.1934   112.9259   291.5525 </r>
       <r>     2.2481   123.7770   298.3229 </r>
       <r>     2.3028   121.6645   304.9777 </r>
       <r>     2.3575   130.9073   312.1381 </r>
       <r>     2.4122    90.2787   317.0762 </r>
       <r>     2.4669    65.6599   320.6677 </r>
       <r>     2.5216    40.6356   322.8904 </r>
       <r>     2.5763    32.7459   324.6815 </r>
       <r>     2.6310    44.8850   327.1366 </r>
       <r>     2.6857    67.2337   330.8142 </r>
       <r>     2.7404    84.1450   335.4167 </r>
       <r>     2.7951    85.1010   340.0716 </r>
       <r>     2.8498    84.2802   344.6816 </r>
       <r>     2.9045   101.3990   350.2279 </r>
       <r>     2.9592    89.9435   355.1477 </r>
       <r>     3.0139   105.4301   360.9145 </r>
       <r>     3.0686   100.8417   366.4304 </r>
       <r>     3.1233    86.8281   371.1798 </r>
       <r>     3.1780    60.2476   374.4752 </r>
       <r>     3.2327    80.3841   378.8721 </r>
       <r>     3.2874   102.8468   384.4976 </r>
       <r>     3.3421    90.1061   389.4263 </r>
       <r>     3.3968    84.9193   394.0712 </r>
       <r>     3.4515    83.5131   398.6392 </r>
       <r>     3.5062   101.5008   404.1911 </r>
       <r>     3.5609    74.4353   408.2625 </r>
       <r>     3.6155    88.6129   413.1095 </r>
       <r>     3.6702    74.5484   417.1872 </r>
       <r>     3.7249    68.9788   420.9602 </r>
       <r>     3.7796    79.4210   425.3044 </r>
       <r>     3.8343    99.3009   430.7359 </r>
       <r>     3.8890    74.6214   434.8176 </r>
       <r>     3.9437    72.6611   438.7920 </r>
       <r>     3.9984    61.7505   442.1697 </r>
       <r>     4.0531    74.9622   446.2700 </r>
       <r>     4.1078    55.3220   449.2959 </r>
       <r>     4.1625    70.3261   453.1427 </r>
       <r>     4.2172    78.0641   457.4127 </r>
       <r>     4.2719    73.3332   461.4239 </r>
       <r>     4.3266    82.7340   465.9493 </r>
       <r>     4.3813    70.9360   469.8294 </r>
       <r>     4.4360    75.0713   473.9357 </r>
       <r>     4.4907    55.4486   476.9686 </r>
       <r>     4.5454    64.8274   480.5145 </r>
       <r>     4.6001    67.5705   484.2105 </r>
       <r>     4.6548    41.8472   486.4995 </r>
       <r>     4.7095    47.6362   489.1051 </r>
       <r>     4.7642    25.9819   490.5262 </r>
       <r>     4.8189    38.0355   492.6067 </r>
       <r>     4.8736    25.3816   493.9950 </r>
       <r>     4.9283    25.9245   495.4131 </r>
       <r>     4.9830    39.3293   497.5643 </r>
       <r>     5.0377    43.9528   499.9684 </r>
       <r>     5.0924    26.3056   501.4073 </r>
       <r>     5.1471    21.3684   502.5761 </r>
       <r>     5.2018    21.4508   503.7495 </r>
       <r>     5.2565     8.0155   504.1879 </r>
       <r>     5.3112     5.6566   504.4973 </r>
       <r>     5.3659    20.5155   505.6195 </r>
       <r>     5.4206    33.7241   507.4641 </r>
       <r>     5.4753     5.2529   507.7514 </r>
       <r>     5.5300    21.2340   508.9129 </r>
       <r>     5.5847    19.4184   509.9750 </r>
       <r>     5.6394    16.2531   510.8641 </r>
       <r>     5.6941    11.4799   511.4920 </r>
       <r>     5.7488     3.9856   511.7100 </r>
       <r>     5.8035     0.7316   511.7500 </r>
       <r>     5.8582     0.0000   511.7500 </r>
       <r>     5.9129     3.7898   511.9573 </r>
       <r>     5.9676     0.7807   512.0000 </r>
       <r>     6.0223     0.0000   512.0000 </r>
       <r>     6.0770     0.0004   512.0000 </r>
       <r>     6.1316     8.2475   512.4511 </r>
       <r>     6.1863    17.5779   513.4126 </r>
       <r>     6.2410    14.7211   514.2178 </r>
       <r>     6.2957    15.2289   515.0508 </r>
       <r>     6.3504    17.5598   516.0113 </r>
       <r>     6.4051    30.9491   517.7042 </r>
       <r>     6.4598    24.0539   519.0199 </r>
       <r>     6.5145    20.9724   520.1670 </r>
       <r>     6.5692    22.8942   521.4194 </r>
       <r>     6.6239     6.7635   521.7893 </r>
       <r>     6.6786    33.2714   523.6092 </r>
       <r>     6.7333    33.3329   525.4324 </r>
       <r>     6.7880    23.5690   526.7216 </r>
       <r>     6.8427    31.7966   528.4608 </r>
       <r>     6.8974    35.0455   530.3777 </r>
       <r>     6.9521    38.2196   532.4683 </r>
       <r>     7.0068    38.0430   534.5492 </r>
       <r>     7.0615    40.4036   536.7592 </r>
       <r>     7.1162    42.8085   539.1007 </r>
       <r>     7.1709    20.1799   540.2046 </r>
       <r>     7.2256    52.6191   543.0827 </r>
       <r>     7.2803    54.6682   546.0730 </r>
       <r>     7.3350    72.1319   550.0185 </r>
       <r>     7.3897    72.4493   553.9813 </r>
       <r>     7.4444    65.4822   557.5630 </r>
       <r>     7.4991    95.4548   562.7842 </r>
       <r>     7.5538    83.5742   567.3556 </r>
       <r>     7.6085    84.9196   572.0005 </r>
       <r>     7.6632    83.0606   576.5438 </r>
       <r>     7.7179    98.8952   581.9531 </r>
       <r>     7.7726    92.7494   587.0264 </r>
       <r>     7.8273    86.0884   591.7353 </r>
       <r>     7.8820   103.4943   597.3962 </r>
       <r>     7.9367    87.5420   602.1846 </r>
       <r>     7.9914    84.3633   606.7991 </r>
       <r>     8.0461    90.5338   611.7511 </r>
       <r>     8.1008    83.7281   616.3309 </r>
       <r>     8.1555    86.5862   621.0670 </r>
       <r>     8.2102    82.6405   625.5873 </r>
       <r>     8.2649    92.6233   630.6537 </r>
       <r>     8.3196    75.3871   634.7772 </r>
       <r>     8.3743    81.5896   639.2400 </r>
       <r>     8.4290    53.4139   642.1617 </r>
       <r>     8.4837    19.8901   643.2497 </r>
       <r>     8.5384     4.3473   643.4875 </r>
       <r>     8.5931     4.8103   643.7506 </r>
       <r>     8.6478     4.5593   644.0000 </r>
       <r>     8.7024     0.0000   644.0000 </r>
       <r>     8.7571     0.0000   644.0000 </r>
       <r>     8.8118     0.0000   644.0000 </r>
       <r>     8.8665     0.0000   644.0000 </r>
       <r>     8.9212     0.0000   644.0000 </r>
       <r>     8.9759     0.0000   644.0000 </r>
       <r>     9.0306     0.0000   644.0000 </r>
       <r>     9.0853     0.0000   644.0000 </r>
       <r>     9.1400     0.0000   644.0000 </r>
       <r>     9.1947     0.0000   644.0000 </r>
       <r>     9.2494     0.0000   644.0000 </r>
       <r>     9.3041     0.0000   644.0000 </r>
       <r>     9.3588     0.0000   644.0000 </r>
      </set>
     </set>
    </array>
   </total>
  </dos>
 </calculation>
 <structure name="finalpos" >
  <crystal>
   <varray name="basis" >
    <v>       0.00000000      10.93733369      10.93733369 </v>
    <v>      10.93733369       0.00000000      10.93733369 </v>
    <v>      10.93733369      10.93733369       0.00000000 </v>
   </varray>
   <i name="volume">   2616.76295363 </i>
   <varray name="rec_basis" >
    <v>      -0.04571498       0.04571498       0.04571498 </v>
    <v>       0.04571498      -0.04571498       0.04571498 </v>
    <v>       0.04571498       0.04571498      -0.04571498 </v>
   </varray>
  </crystal>
  <varray name="positions" >
   <v>       0.99548205       0.00221221       0.00748970 </v>
   <v>       0.24198352       0.99763136       0.00208198 </v>
   <v>       0.49561344       0.00752652       0.99047826 </v>
   <v>       0.75037861       0.99454008       0.99645187 </v>
   <v>       0.98845873       0.25298080       0.00442118 </v>
   <v>       0.24947611       0.24647116       0.00797037 </v>
   <v>       0.49837866       0.24595120       0.99610174 </v>
   <v>       0.74680251       0.25349170       0.99512836 </v>
   <v>       0.99955954       0.50635750       0.99349237 </v>
   <v>       0.24942866       0.50168333       0.99979875 </v>
   <v>       0.50260623       0.51098643       0.99744797 </v>
   <v>       0.73374301       0.50020066       0.01504364 </v>
   <v>       0.99735398       0.75167314       0.99606894 </v>
   <v>       0.25997821       0.75187117       0.00093755 </v>
   <v>       0.50557028       0.74246530       0.00055354 </v>
   <v>       0.73702493       0.75592183       0.00913765 </v>
   <v>       0.00244104       0.99899247       0.24963267 </v>
   <v>       0.24670023       0.00256275       0.24775203 </v>
   <v>       0.49802472       0.00859879       0.25731174 </v>
   <v>       0.74372937       0.00990678       0.25708035 </v>
   <v>       0.01207409       0.24198484       0.24053804 </v>
   <v>       0.25786295       0.24781278       0.24450966 </v>
   <v>       0.50156733       0.24813535       0.25990970 </v>
   <v>       0.75382688       0.23992334       0.25404640 </v>
   <v>       0.00110451       0.50534843       0.25331650 </v>
   <v>       0.25058354       0.49779238       0.24803164 </v>
   <v>       0.49213455       0.49757131       0.24800546 </v>
   <v>       0.75314577       0.48973653       0.26225467 </v>
   <v>       0.99899984       0.75407006       0.24526554 </v>
   <v>       0.24531151       0.75899059       0.24468380 </v>
   <v>       0.49504042       0.75435299       0.25750279 </v>
   <v>       0.75581887       0.74857226       0.23612128 </v>
   <v>       0.99187507       0.99915064       0.50606881 </v>
   <v>       0.25149553       0.99444301       0.50498609 </v>
   <v>       0.50292279       0.99537902       0.50073920 </v>
   <v>       0.75212467       0.99125448       0.49834054 </v>
   <v>       0.99352166       0.26921076       0.49699349 </v>
   <v>       0.25063553       0.25219889       0.48969794 </v>
   <v>       0.50640408       0.25764853       0.49694467 </v>
   <v>       0.75352152       0.24832731       0.50267081 </v>
   <v>       0.99236582       0.49889272       0.50697871 </v>
   <v>       0.24767243       0.50835285       0.50036324 </v>
   <v>       0.49134368       0.50839653       0.49308406 </v>
   <v>       0.74805177       0.51874714       0.49285399 </v>
   <v>       0.99217333       0.75514706       0.49664753 </v>
   <v>       0.24698562       0.74772543       0.49192069 </v>
   <v>       0.49588906       0.74869727       0.50875781 </v>
   <v>       0.75331177       0.74538897       0.50386353 </v>
   <v>       0.99252559       0.99772503       0.76156392 </v>
   <v>       0.24724403       0.99511887       0.75809089 </v>
   <v>       0.48697399       0.01063905       0.76158301 </v>
   <v>       0.75480427       0.00165847       0.74564881 </v>
   <v>       0.99619359       0.25791739       0.75124042 </v>
   <v>       0.24649891       0.25225188       0.75432252 </v>
   <v>       0.48807725       0.26142338       0.75623788 </v>
   <v>       0.74918090       0.25595842       0.73706424 </v>
   <v>       0.00434341       0.49516150       0.75386233 </v>
   <v>       0.26033155       0.50184148       0.74440402 </v>
   <v>       0.50130741       0.51052906       0.74038198 </v>
   <v>       0.76046280       0.50318357       0.73359185 </v>
   <v>       0.01023254       0.74923331       0.74298952 </v>
   <v>       0.24953576       0.74360157       0.75050258 </v>
   <v>       0.48988888       0.75328040       0.75034452 </v>
   <v>       0.75331877       0.74995868       0.74103068 </v>
   <v>       0.05835856       0.06141284       0.06983552 </v>
   <v>       0.31389699       0.05394246       0.06442152 </v>
   <v>       0.55244158       0.06056276       0.06034496 </v>
   <v>       0.81445963       0.06342944       0.06443328 </v>
   <v>       0.07077331       0.29680106       0.06795686 </v>
   <v>       0.31980503       0.31298381       0.04814118 </v>
   <v>       0.56892814       0.31314110       0.06058612 </v>
   <v>       0.79322207       0.31112260       0.06541073 </v>
   <v>       0.07228933       0.56929169       0.06169162 </v>
   <v>       0.31180933       0.56569636       0.06454201 </v>
   <v>       0.56436538       0.55355197       0.06225088 </v>
   <v>       0.81093917       0.55910137       0.07952781 </v>
   <v>       0.05627033       0.81051922       0.06987688 </v>
   <v>       0.31321589       0.80407423       0.06304610 </v>
   <v>       0.55741006       0.81246094       0.06149899 </v>
   <v>       0.81988799       0.81568323       0.04476484 </v>
   <v>       0.06804787       0.06169004       0.31604552 </v>
   <v>       0.31788796       0.05717444       0.30978978 </v>
   <v>       0.56560678       0.05672348       0.31524285 </v>
   <v>       0.81934582       0.06735671       0.31668335 </v>
   <v>       0.07065429       0.29371185       0.31672784 </v>
   <v>       0.31069846       0.31944691       0.30974482 </v>
   <v>       0.55473983       0.32491836       0.30988778 </v>
   <v>       0.80869330       0.31617472       0.31840600 </v>
   <v>       0.06498562       0.56079849       0.30838975 </v>
   <v>       0.31877656       0.55369396       0.32557780 </v>
   <v>       0.56136236       0.56453019       0.30260327 </v>
   <v>       0.81235101       0.56908916       0.30688200 </v>
   <v>       0.04690988       0.81552071       0.31350985 </v>
   <v>       0.30879813       0.81655186       0.30766505 </v>
   <v>       0.55732802       0.81417931       0.30828270 </v>
   <v>       0.81194573       0.81052376       0.31499518 </v>
   <v>       0.06443561       0.06326693       0.55477429 </v>
   <v>       0.31976617       0.07104308       0.54431720 </v>
   <v>       0.56259681       0.05500066       0.56282178 </v>
   <v>       0.80023106       0.06926145       0.56638802 </v>
   <v>       0.05870449       0.31320817       0.57470201 </v>
   <v>       0.31769620       0.30493206       0.56257737 </v>
   <v>       0.56845452       0.30300809       0.55747784 </v>
   <v>       0.81336507       0.31761983       0.55759369 </v>
   <v>       0.07410703       0.57253693       0.55581052 </v>
   <v>       0.30541771       0.57000549       0.56065356 </v>
   <v>       0.55533964       0.57134118       0.55905529 </v>
   <v>       0.81561111       0.56851699       0.55640331 </v>
   <v>       0.06019513       0.80834743       0.56745965 </v>
   <v>       0.31548113       0.80676212       0.56614078 </v>
   <v>       0.56893172       0.82314370       0.53941779 </v>
   <v>       0.81283018       0.80762074       0.56514550 </v>
   <v>       0.05729316       0.06712422       0.80637202 </v>
   <v>       0.31451424       0.06813179       0.81188887 </v>
   <v>       0.56822800       0.06312217       0.80253068 </v>
   <v>       0.80894915       0.07020107       0.80473049 </v>
   <v>       0.06301232       0.31446366       0.81351854 </v>
   <v>       0.31657736       0.32919648       0.80224458 </v>
   <v>       0.56515905       0.30871957       0.80668290 </v>
   <v>       0.80465745       0.30406191       0.81851612 </v>
   <v>       0.07572237       0.55825731       0.81732387 </v>
   <v>       0.31055995       0.56150478       0.82090631 </v>
   <v>       0.57424424       0.55343808       0.80010988 </v>
   <v>       0.81216712       0.55459142       0.81803705 </v>
   <v>       0.06103964       0.81400551       0.80864645 </v>
   <v>       0.30356871       0.81060360       0.82370856 </v>
   <v>       0.54689155       0.80842585       0.82098880 </v>
   <v>       0.80685181       0.80349621       0.81904378 </v>
  </varray>
 </structure>
</modeling>
