potpaw_PBE@./ARUN.APL1ZEROSTATE         
           1
     0.000000   10.937334   10.937334
    10.937334    0.000000   10.937334
    10.937334   10.937334    0.000000
   Si
 128
Direct configuration=     1
   0.99548205  0.00221221  0.00748970
   0.24198352  0.99763136  0.00208198
   0.49561344  0.00752652  0.99047826
   0.75037861  0.99454008  0.99645187
   0.98845873  0.25298080  0.00442118
   0.24947611  0.24647116  0.00797037
   0.49837866  0.24595120  0.99610174
   0.74680251  0.25349170  0.99512836
   0.99955954  0.50635750  0.99349237
   0.24942866  0.50168333  0.99979875
   0.50260623  0.51098643  0.99744797
   0.73374301  0.50020066  0.01504364
   0.99735398  0.75167314  0.99606894
   0.25997821  0.75187117  0.00093755
   0.50557028  0.74246530  0.00055354
   0.73702493  0.75592183  0.00913765
   0.00244104  0.99899247  0.24963267
   0.24670023  0.00256275  0.24775203
   0.49802472  0.00859879  0.25731174
   0.74372937  0.00990678  0.25708035
   0.01207409  0.24198484  0.24053804
   0.25786295  0.24781278  0.24450966
   0.50156733  0.24813535  0.25990970
   0.75382688  0.23992334  0.25404640
   0.00110451  0.50534843  0.25331650
   0.25058354  0.49779238  0.24803164
   0.49213455  0.49757131  0.24800546
   0.75314577  0.48973653  0.26225467
   0.99899984  0.75407006  0.24526554
   0.24531151  0.75899059  0.24468380
   0.49504042  0.75435299  0.25750279
   0.75581887  0.74857226  0.23612128
   0.99187507  0.99915064  0.50606881
   0.25149553  0.99444301  0.50498609
   0.50292279  0.99537902  0.50073920
   0.75212467  0.99125448  0.49834054
   0.99352166  0.26921076  0.49699349
   0.25063553  0.25219889  0.48969794
   0.50640408  0.25764853  0.49694467
   0.75352152  0.24832731  0.50267081
   0.99236582  0.49889272  0.50697871
   0.24767243  0.50835285  0.50036324
   0.49134368  0.50839653  0.49308406
   0.74805177  0.51874714  0.49285399
   0.99217333  0.75514706  0.49664753
   0.24698562  0.74772543  0.49192069
   0.49588906  0.74869727  0.50875781
   0.75331177  0.74538897  0.50386353
   0.99252559  0.99772503  0.76156392
   0.24724403  0.99511887  0.75809089
   0.48697399  0.01063905  0.76158301
   0.75480427  0.00165847  0.74564881
   0.99619359  0.25791739  0.75124042
   0.24649891  0.25225188  0.75432252
   0.48807725  0.26142338  0.75623788
   0.74918090  0.25595842  0.73706424
   0.00434341  0.49516150  0.75386233
   0.26033155  0.50184148  0.74440402
   0.50130741  0.51052906  0.74038198
   0.76046280  0.50318357  0.73359185
   0.01023254  0.74923331  0.74298952
   0.24953576  0.74360157  0.75050258
   0.48988888  0.75328040  0.75034452
   0.75331877  0.74995868  0.74103068
   0.05835856  0.06141284  0.06983552
   0.31389699  0.05394246  0.06442152
   0.55244158  0.06056276  0.06034496
   0.81445963  0.06342944  0.06443328
   0.07077331  0.29680106  0.06795686
   0.31980503  0.31298381  0.04814118
   0.56892814  0.31314110  0.06058612
   0.79322207  0.31112260  0.06541073
   0.07228933  0.56929169  0.06169162
   0.31180933  0.56569636  0.06454201
   0.56436538  0.55355197  0.06225088
   0.81093917  0.55910137  0.07952781
   0.05627033  0.81051922  0.06987688
   0.31321589  0.80407423  0.06304610
   0.55741006  0.81246094  0.06149899
   0.81988799  0.81568323  0.04476484
   0.06804787  0.06169004  0.31604552
   0.31788796  0.05717444  0.30978978
   0.56560678  0.05672348  0.31524285
   0.81934582  0.06735671  0.31668335
   0.07065429  0.29371185  0.31672784
   0.31069846  0.31944691  0.30974482
   0.55473983  0.32491836  0.30988778
   0.80869330  0.31617472  0.31840600
   0.06498562  0.56079849  0.30838975
   0.31877656  0.55369396  0.32557780
   0.56136236  0.56453019  0.30260327
   0.81235101  0.56908916  0.30688200
   0.04690988  0.81552071  0.31350985
   0.30879813  0.81655186  0.30766505
   0.55732802  0.81417931  0.30828270
   0.81194573  0.81052376  0.31499518
   0.06443561  0.06326693  0.55477429
   0.31976617  0.07104308  0.54431720
   0.56259681  0.05500066  0.56282178
   0.80023106  0.06926145  0.56638802
   0.05870449  0.31320817  0.57470201
   0.31769620  0.30493206  0.56257737
   0.56845452  0.30300809  0.55747784
   0.81336507  0.31761983  0.55759369
   0.07410703  0.57253693  0.55581052
   0.30541771  0.57000549  0.56065356
   0.55533964  0.57134118  0.55905529
   0.81561111  0.56851699  0.55640331
   0.06019513  0.80834743  0.56745965
   0.31548113  0.80676212  0.56614078
   0.56893172  0.82314370  0.53941779
   0.81283018  0.80762074  0.56514550
   0.05729316  0.06712422  0.80637202
   0.31451424  0.06813179  0.81188887
   0.56822800  0.06312217  0.80253068
   0.80894915  0.07020107  0.80473049
   0.06301232  0.31446366  0.81351854
   0.31657736  0.32919648  0.80224458
   0.56515905  0.30871957  0.80668290
   0.80465745  0.30406191  0.81851612
   0.07572237  0.55825731  0.81732387
   0.31055995  0.56150478  0.82090631
   0.57424424  0.55343808  0.80010988
   0.81216712  0.55459142  0.81803705
   0.06103964  0.81400551  0.80864645
   0.30356871  0.81060360  0.82370856
   0.54689155  0.80842585  0.82098880
   0.80685181  0.80349621  0.81904378
