 128 128   0   0
  0.2044346E+02  0.1546773E-08  0.1546773E-08  0.1546773E-08  0.5000000E-15
  1.000000000000000E-004
  CAR 
 potpaw_PBE@./ARUN.APL1ZEROSTATE         
      9.35131257     -7.04244126  301      5.97693157      1.00000000
     -7.042  0.0000E+00  0.0000E+00
     -6.988  0.0000E+00  0.0000E+00
     -6.933  0.0000E+00  0.0000E+00
     -6.879  0.0000E+00  0.0000E+00
     -6.824  0.0000E+00  0.0000E+00
     -6.769  0.0000E+00  0.0000E+00
     -6.715  0.0000E+00  0.0000E+00
     -6.660  0.0000E+00  0.0000E+00
     -6.605  0.0000E+00  0.0000E+00
     -6.551  0.0000E+00  0.0000E+00
     -6.496  0.0000E+00  0.0000E+00
     -6.441  0.0000E+00  0.0000E+00
     -6.387  0.0000E+00  0.0000E+00
     -6.332  0.2001E-05  0.1094E-06
     -6.277  0.4564E+01  0.2494E+00
     -6.223  0.1132E-01  0.2500E+00
     -6.168  0.6104E-03  0.2500E+00
     -6.113  0.1828E+02  0.1249E+01
     -6.059  0.2951E+02  0.2862E+01
     -6.004  0.1175E+02  0.3504E+01
     -5.950  0.4505E+01  0.3750E+01
     -5.895  0.3047E+00  0.3767E+01
     -5.840  0.9885E+01  0.4307E+01
     -5.786  0.1119E+02  0.4918E+01
     -5.731  0.1904E+02  0.5959E+01
     -5.676  0.2883E+02  0.7534E+01
     -5.622  0.4477E+02  0.9981E+01
     -5.567  0.2046E+02  0.1110E+02
     -5.512  0.2506E+02  0.1247E+02
     -5.458  0.1871E+02  0.1349E+02
     -5.403  0.1836E+02  0.1449E+02
     -5.348  0.4562E+01  0.1474E+02
     -5.294  0.8427E+01  0.1520E+02
     -5.239  0.8666E+01  0.1568E+02
     -5.184  0.2505E+02  0.1705E+02
     -5.130  0.3226E+02  0.1881E+02
     -5.075  0.4033E+02  0.2101E+02
     -5.021  0.4746E+02  0.2361E+02
     -4.966  0.3135E+02  0.2532E+02
     -4.911  0.3472E+02  0.2722E+02
     -4.857  0.2477E+02  0.2857E+02
     -4.802  0.2326E+02  0.2984E+02
     -4.747  0.2220E+02  0.3105E+02
     -4.693  0.4638E+02  0.3359E+02
     -4.638  0.4220E+02  0.3590E+02
     -4.583  0.3776E+02  0.3796E+02
     -4.529  0.2504E+02  0.3933E+02
     -4.474  0.3194E+02  0.4107E+02
     -4.419  0.1844E+02  0.4208E+02
     -4.365  0.2293E+02  0.4333E+02
     -4.310  0.2657E+02  0.4479E+02
     -4.256  0.3852E+02  0.4689E+02
     -4.201  0.4129E+02  0.4915E+02
     -4.146  0.6353E+02  0.5262E+02
     -4.092  0.7402E+02  0.5666E+02
     -4.037  0.4809E+02  0.5929E+02
     -3.982  0.5817E+02  0.6247E+02
     -3.928  0.4755E+02  0.6507E+02
     -3.873  0.4236E+02  0.6738E+02
     -3.818  0.6889E+02  0.7115E+02
     -3.764  0.4779E+02  0.7376E+02
     -3.709  0.4391E+02  0.7616E+02
     -3.654  0.4368E+02  0.7855E+02
     -3.600  0.2449E+02  0.7988E+02
     -3.545  0.2576E+02  0.8129E+02
     -3.490  0.4015E+02  0.8348E+02
     -3.436  0.5633E+02  0.8656E+02
     -3.381  0.6876E+02  0.9032E+02
     -3.327  0.4690E+02  0.9288E+02
     -3.272  0.3741E+02  0.9493E+02
     -3.217  0.3311E+02  0.9674E+02
     -3.163  0.2617E+02  0.9817E+02
     -3.108  0.4697E+02  0.1007E+03
     -3.053  0.4918E+02  0.1034E+03
     -2.999  0.4290E+02  0.1058E+03
     -2.944  0.3492E+02  0.1077E+03
     -2.889  0.4080E+02  0.1099E+03
     -2.835  0.3649E+02  0.1119E+03
     -2.780  0.2704E+02  0.1134E+03
     -2.725  0.3051E+02  0.1150E+03
     -2.671  0.3267E+02  0.1168E+03
     -2.616  0.3390E+02  0.1187E+03
     -2.561  0.3369E+02  0.1205E+03
     -2.507  0.2331E+02  0.1218E+03
     -2.452  0.1392E+02  0.1226E+03
     -2.398  0.3570E+01  0.1228E+03
     -2.343  0.4155E+01  0.1230E+03
     -2.288  0.5261E+01  0.1233E+03
     -2.234  0.1357E+02  0.1240E+03
     -2.179  0.1546E+02  0.1249E+03
     -2.124  0.3659E+02  0.1269E+03
     -2.070  0.2443E+02  0.1282E+03
     -2.015  0.3277E+02  0.1300E+03
     -1.960  0.2342E+02  0.1313E+03
     -1.906  0.1388E+02  0.1320E+03
     -1.851  0.1272E+02  0.1327E+03
     -1.796  0.5309E+01  0.1330E+03
     -1.742  0.1909E+01  0.1331E+03
     -1.687  0.3937E+01  0.1333E+03
     -1.633  0.1525E+02  0.1342E+03
     -1.578  0.3715E+02  0.1362E+03
     -1.523  0.3758E+02  0.1382E+03
     -1.469  0.2838E+02  0.1398E+03
     -1.414  0.2504E+02  0.1412E+03
     -1.359  0.4167E+02  0.1434E+03
     -1.305  0.6253E+02  0.1468E+03
     -1.250  0.5958E+02  0.1501E+03
     -1.195  0.6237E+02  0.1535E+03
     -1.141  0.6421E+02  0.1570E+03
     -1.086  0.6923E+02  0.1608E+03
     -1.031  0.6958E+02  0.1646E+03
     -0.977  0.6672E+02  0.1683E+03
     -0.922  0.5983E+02  0.1715E+03
     -0.867  0.6313E+02  0.1750E+03
     -0.813  0.5741E+02  0.1781E+03
     -0.758  0.4914E+02  0.1808E+03
     -0.704  0.4785E+02  0.1834E+03
     -0.649  0.4819E+02  0.1860E+03
     -0.594  0.3710E+02  0.1881E+03
     -0.540  0.2171E+02  0.1893E+03
     -0.485  0.2214E+02  0.1905E+03
     -0.430  0.1700E+02  0.1914E+03
     -0.376  0.3377E+02  0.1932E+03
     -0.321  0.4822E+02  0.1959E+03
     -0.266  0.5745E+02  0.1990E+03
     -0.212  0.4686E+02  0.2016E+03
     -0.157  0.4807E+02  0.2042E+03
     -0.102  0.4481E+02  0.2067E+03
     -0.048  0.5046E+02  0.2094E+03
      0.007  0.3424E+02  0.2113E+03
      0.062  0.2407E+02  0.2126E+03
      0.116  0.1682E+02  0.2135E+03
      0.171  0.9434E+01  0.2140E+03
      0.225  0.9559E+01  0.2146E+03
      0.280  0.2008E+02  0.2157E+03
      0.335  0.2887E+02  0.2172E+03
      0.389  0.2754E+02  0.2187E+03
      0.444  0.2747E+02  0.2202E+03
      0.499  0.1594E+02  0.2211E+03
      0.553  0.1181E+02  0.2218E+03
      0.608  0.3744E+02  0.2238E+03
      0.663  0.2681E+02  0.2253E+03
      0.717  0.1368E+02  0.2260E+03
      0.772  0.2073E+02  0.2271E+03
      0.827  0.1114E+02  0.2277E+03
      0.881  0.1199E-02  0.2278E+03
      0.936  0.9819E+01  0.2283E+03
      0.990  0.2944E+02  0.2299E+03
      1.045  0.2970E+02  0.2315E+03
      1.100  0.3234E+02  0.2333E+03
      1.154  0.2713E+02  0.2348E+03
      1.209  0.1511E+02  0.2356E+03
      1.264  0.3272E+02  0.2374E+03
      1.318  0.2677E+02  0.2388E+03
      1.373  0.3411E+02  0.2407E+03
      1.428  0.5413E+02  0.2437E+03
      1.482  0.6773E+02  0.2474E+03
      1.537  0.6804E+02  0.2511E+03
      1.592  0.9645E+02  0.2564E+03
      1.646  0.7584E+02  0.2605E+03
      1.701  0.7398E+02  0.2645E+03
      1.756  0.4384E+02  0.2669E+03
      1.810  0.4947E+02  0.2696E+03
      1.865  0.4410E+02  0.2721E+03
      1.919  0.2513E+02  0.2734E+03
      1.974  0.2418E+02  0.2747E+03
      2.029  0.3166E+02  0.2765E+03
      2.083  0.6833E+02  0.2802E+03
      2.138  0.9858E+02  0.2856E+03
      2.193  0.1196E+03  0.2921E+03
      2.247  0.1158E+03  0.2985E+03
      2.302  0.1072E+03  0.3043E+03
      2.357  0.1233E+03  0.3111E+03
      2.411  0.8078E+02  0.3155E+03
      2.466  0.7277E+02  0.3194E+03
      2.521  0.4698E+02  0.3220E+03
      2.575  0.3686E+02  0.3240E+03
      2.630  0.5428E+02  0.3270E+03
      2.685  0.5314E+02  0.3299E+03
      2.739  0.9172E+02  0.3349E+03
      2.794  0.9001E+02  0.3398E+03
      2.848  0.9359E+02  0.3449E+03
      2.903  0.9630E+02  0.3502E+03
      2.958  0.1008E+03  0.3557E+03
      3.012  0.9255E+02  0.3608E+03
      3.067  0.1069E+03  0.3666E+03
      3.122  0.7322E+02  0.3706E+03
      3.176  0.6146E+02  0.3740E+03
      3.231  0.8399E+02  0.3786E+03
      3.286  0.1020E+03  0.3841E+03
      3.340  0.9140E+02  0.3891E+03
      3.395  0.8990E+02  0.3941E+03
      3.450  0.9053E+02  0.3990E+03
      3.504  0.9099E+02  0.4040E+03
      3.559  0.8190E+02  0.4084E+03
      3.613  0.8562E+02  0.4131E+03
      3.668  0.6068E+02  0.4164E+03
      3.723  0.7362E+02  0.4205E+03
      3.777  0.8836E+02  0.4253E+03
      3.832  0.8947E+02  0.4302E+03
      3.887  0.9122E+02  0.4352E+03
      3.941  0.7170E+02  0.4391E+03
      3.996  0.5740E+02  0.4422E+03
      4.051  0.6148E+02  0.4456E+03
      4.105  0.7033E+02  0.4494E+03
      4.160  0.6853E+02  0.4532E+03
      4.215  0.8469E+02  0.4578E+03
      4.269  0.6037E+02  0.4611E+03
      4.324  0.7238E+02  0.4651E+03
      4.379  0.7333E+02  0.4691E+03
      4.433  0.8152E+02  0.4735E+03
      4.488  0.7829E+02  0.4778E+03
      4.542  0.4285E+02  0.4801E+03
      4.597  0.6452E+02  0.4837E+03
      4.652  0.5294E+02  0.4866E+03
      4.706  0.3776E+02  0.4886E+03
      4.761  0.2974E+02  0.4902E+03
      4.816  0.3350E+02  0.4921E+03
      4.870  0.2588E+02  0.4935E+03
      4.925  0.4167E+02  0.4958E+03
      4.980  0.3761E+02  0.4978E+03
      5.034  0.4248E+02  0.5001E+03
      5.089  0.2331E+02  0.5014E+03
      5.144  0.3233E+02  0.5032E+03
      5.198  0.1045E+02  0.5037E+03
      5.253  0.3781E+01  0.5040E+03
      5.308  0.1166E+02  0.5046E+03
      5.362  0.1413E+02  0.5054E+03
      5.417  0.1417E+02  0.5061E+03
      5.471  0.2846E+02  0.5077E+03
      5.526  0.1748E+02  0.5087E+03
      5.581  0.2848E+02  0.5102E+03
      5.635  0.5335E+01  0.5105E+03
      5.690  0.9017E+01  0.5110E+03
      5.745  0.4689E+01  0.5112E+03
      5.799  0.9193E+01  0.5117E+03
      5.854  0.5079E-14  0.5118E+03
      5.909  0.1927E+01  0.5119E+03
      5.963  0.2648E+01  0.5120E+03
      6.018  0.0000E+00  0.5120E+03
      6.073  0.3457E-10  0.5120E+03
      6.127  0.3877E+01  0.5122E+03
      6.182  0.1371E+02  0.5130E+03
      6.236  0.2354E+02  0.5142E+03
      6.291  0.4654E+01  0.5145E+03
      6.346  0.3106E+02  0.5162E+03
      6.400  0.1947E+02  0.5173E+03
      6.455  0.2166E+02  0.5184E+03
      6.510  0.2764E+02  0.5200E+03
      6.564  0.2384E+02  0.5213E+03
      6.619  0.8881E+01  0.5217E+03
      6.674  0.2179E+02  0.5229E+03
      6.728  0.1867E+02  0.5240E+03
      6.783  0.4388E+02  0.5264E+03
      6.838  0.2773E+02  0.5279E+03
      6.892  0.3500E+02  0.5298E+03
      6.947  0.3539E+02  0.5317E+03
      7.002  0.5236E+02  0.5346E+03
      7.056  0.3353E+02  0.5364E+03
      7.111  0.3965E+02  0.5386E+03
      7.165  0.2538E+02  0.5400E+03
      7.220  0.2502E+02  0.5413E+03
      7.275  0.5276E+02  0.5442E+03
      7.329  0.6884E+02  0.5480E+03
      7.384  0.9050E+02  0.5529E+03
      7.439  0.7643E+02  0.5571E+03
      7.493  0.9250E+02  0.5622E+03
      7.548  0.8683E+02  0.5669E+03
      7.603  0.8787E+02  0.5717E+03
      7.657  0.7593E+02  0.5758E+03
      7.712  0.8244E+02  0.5804E+03
      7.767  0.9504E+02  0.5855E+03
      7.821  0.8372E+02  0.5901E+03
      7.876  0.1054E+03  0.5959E+03
      7.931  0.1023E+03  0.6015E+03
      7.985  0.1025E+03  0.6071E+03
      8.040  0.8626E+02  0.6118E+03
      8.094  0.7963E+02  0.6161E+03
      8.149  0.5789E+02  0.6193E+03
      8.204  0.8808E+02  0.6241E+03
      8.258  0.9202E+02  0.6291E+03
      8.313  0.7737E+02  0.6334E+03
      8.368  0.7906E+02  0.6377E+03
      8.422  0.6142E+02  0.6410E+03
      8.477  0.4028E+02  0.6432E+03
      8.532  0.1100E+00  0.6433E+03
      8.586  0.7084E+01  0.6436E+03
      8.641  0.6546E+01  0.6440E+03
      8.696  0.0000E+00  0.6440E+03
      8.750  0.0000E+00  0.6440E+03
      8.805  0.0000E+00  0.6440E+03
      8.859  0.0000E+00  0.6440E+03
      8.914  0.0000E+00  0.6440E+03
      8.969  0.0000E+00  0.6440E+03
      9.023  0.0000E+00  0.6440E+03
      9.078  0.0000E+00  0.6440E+03
      9.133  0.0000E+00  0.6440E+03
      9.187  0.0000E+00  0.6440E+03
      9.242  0.0000E+00  0.6440E+03
      9.297  0.0000E+00  0.6440E+03
      9.351  0.0000E+00  0.6440E+03
