 vasp.5.4.4.18Apr17-6-g9f103f2a35 (build Nov 08 2017 09:05:29) complex          
  
 executed on          Intel_17.33 date 2020.07.18  21:39:13
 running on   32 total cores
 distrk:  each k-point on   32 cores,    1 groups
 distr:  one band on NCORES_PER_BAND=  16 cores,    2 groups


--------------------------------------------------------------------------------------------------------


 INCAR:
 POTCAR:   PAW_PBE Si 05Jan2001                   

 ----------------------------------------------------------------------------- 
|                                                                             |
|           W    W    AA    RRRRR   N    N  II  N    N   GGGG   !!!           |
|           W    W   A  A   R    R  NN   N  II  NN   N  G    G  !!!           |
|           W    W  A    A  R    R  N N  N  II  N N  N  G       !!!           |
|           W WW W  AAAAAA  RRRRR   N  N N  II  N  N N  G  GGG   !            |
|           WW  WW  A    A  R   R   N   NN  II  N   NN  G    G                |
|           W    W  A    A  R    R  N    N  II  N    N   GGGG   !!!           |
|                                                                             |
|      For optimal performance we recommend to set                            |
|        NCORE= 4 - approx SQRT( number of cores)                             |
|      NCORE specifies how many cores store one orbital (NPAR=cpu/NCORE).     |
|      This setting can  greatly improve the performance of VASP for DFT.     |
|      The default,   NCORE=1            might be grossly inefficient         |
|      on modern multi-core architectures or massively parallel machines.     |
|      Do your own testing !!!!                                               |
|      Unfortunately you need to use the default for GW and RPA calculations. |
|      (for HF NCORE is supported but not extensively tested yet)             |
|                                                                             |
 ----------------------------------------------------------------------------- 

 POTCAR:   PAW_PBE Si 05Jan2001                   
   VRHFIN =Si: s2p2                                                             
   LEXCH  = PE                                                                  
   EATOM  =   103.0669 eV,    7.5752 Ry                                         
                                                                                
   TITEL  = PAW_PBE Si 05Jan2001                                                
   LULTRA =        F    use ultrasoft PP ?                                      
   IUNSCR =        1    unscreen: 0-lin 1-nonlin 2-no                           
   RPACOR =    1.500    partial core radius                                     
   POMASS =   28.085; ZVAL   =    4.000    mass and valenz                      
   RCORE  =    1.900    outmost cutoff radius                                   
   RWIGS  =    2.480; RWIGS  =    1.312    wigner-seitz radius (au A)           
   ENMAX  =  245.345; ENMIN  =  184.009 eV                                      
   ICORE  =        2    local potential                                         
   LCOR   =        T    correct aug charges                                     
   LPAW   =        T    paw PP                                                  
   EAUG   =  322.069                                                            
   DEXC   =    -.007                                                            
   RMAX   =    2.944    core radius for proj-oper                               
   RAUG   =    1.300    factor for augmentation sphere                          
   RDEP   =    1.993    radius for radial grids                                 
   QCUT   =   -4.246; QGAM   =    8.493    optimization parameters              
                                                                                
   Description                                                                  
     l     E      TYP  RCUT    TYP  RCUT                                        
     0   .000     23  1.900                                                     
     0   .000     23  1.900                                                     
     1   .000     23  1.900                                                     
     1   .000     23  1.900                                                     
     2   .000      7  1.900                                                     
  local pseudopotential read in
  partial core-charges read in
  atomic valenz-charges read in
  non local Contribution for L=           0  read in
    real space projection operators read in
  non local Contribution for L=           0  read in
    real space projection operators read in
  non local Contribution for L=           1  read in
    real space projection operators read in
  non local Contribution for L=           1  read in
    real space projection operators read in
    PAW grid and wavefunctions read in
 
   number of l-projection  operators is LMAX  =           4
   number of lm-projection operators is LMMAX =           8
 

 ----------------------------------------------------------------------------- 
|                                                                             |
|  ADVICE TO THIS USER RUNNING 'VASP/VAMP'   (HEAR YOUR MASTER'S VOICE ...):  |
|                                                                             |
|      You have a (more or less) 'large supercell' and for larger cells       |
|      it might be more efficient to use real space projection operators      |
|      So try LREAL= Auto  in the INCAR   file.                               |
|      Mind: If you want to do a very accurate calculations keep the          |
|      reciprocal projection scheme          (i.e. LREAL=.FALSE.)             |
|                                                                             |
 ----------------------------------------------------------------------------- 

 PAW_PBE Si 05Jan2001                   :
 energy of atom  1       EATOM= -103.0669
 kinetic energy error for atom=    0.0006 (will be added to EATOM!!)
 
 
 POSCAR: kk                                      
  positions in direct lattice
  No initial velocities read in
 exchange correlation table for  LEXCH =        8
   RHO(1)=    0.500       N(1)  =     2000
   RHO(2)=  100.500       N(2)  =     4000
 


--------------------------------------------------------------------------------------------------------


 ion  position               nearest neighbor table
   1  0.006  1.000  0.000-  77 2.40  68 2.41  65 2.44 113 2.54
   2  0.257  0.999  0.989-  66 2.29  65 2.34  78 2.40 114 2.43
   3  0.504  0.997  0.998- 115 2.27  67 2.48  79 2.51  66 2.53
   4  0.746  0.014  0.986- 116 2.26  67 2.27  68 2.56  80 2.69
   5  0.997  0.242  0.997-  65 2.35  72 2.37 117 2.44  69 2.72
   6  0.242  0.244  0.008-  69 2.27  66 2.33 118 2.44  70 2.49
   7  0.500  0.243  0.989- 119 2.26  67 2.32  70 2.47  71 2.70
   8  0.763  0.241  0.995-  68 2.15  72 2.33 120 2.34  71 2.41
   9  0.006  0.502  0.985- 121 2.20  69 2.38  73 2.41  76 2.44
  10  0.251  0.500  0.998- 122 2.31  70 2.32  74 2.37  73 2.47
  11  0.486  0.505  0.997-  74 2.33 123 2.41  71 2.50  75 2.60
  12  0.754  0.492  0.006-  72 2.27  75 2.29  76 2.38 124 2.60
  13  0.002  0.751  0.995-  77 2.31  80 2.36 125 2.37  73 2.42
  14  0.247  0.749  0.001- 126 2.29  74 2.39  77 2.41  78 2.53
  15  0.497  0.752  0.003-  79 2.28  78 2.30  75 2.33 127 2.43
  16  0.750  0.750  0.996-  79 2.28 128 2.40  76 2.41  80 2.50
  17  0.004  0.995  0.247-  93 2.20  65 2.25  84 2.44  81 2.46
  18  0.259  0.005  0.248-  82 2.33  66 2.36  81 2.43  94 2.46
  19  0.502  0.005  0.241-  83 2.19  67 2.22  82 2.36  95 2.41
  20  0.758  0.999  0.250-  84 2.21  68 2.37  96 2.44  83 2.44
  21  0.997  0.243  0.246-  69 2.22  81 2.37  88 2.52  85 2.53
  22  0.257  0.245  0.249-  82 2.26  70 2.29  86 2.37  85 2.42
  23  0.501  0.258  0.245-  71 2.30  87 2.41  86 2.50  83 2.67
  24  0.753  0.255  0.251-  88 2.22  87 2.37  72 2.41  84 2.43
  25  0.011  0.505  0.247-  73 2.28  89 2.29  85 2.36  92 2.51
  26  0.245  0.494  0.256-  74 2.30  86 2.33  89 2.50  90 2.54
  27  0.499  0.503  0.257-  87 2.27  90 2.33  91 2.37  75 2.60
  28  0.742  0.504  0.245-  76 2.26  88 2.28  91 2.40  92 2.42
  29  0.005  0.753  0.244-  89 2.18  77 2.27  96 2.33  93 2.47
  30  0.247  0.751  0.249-  78 2.24  93 2.26  90 2.29  94 2.48
  31  0.504  0.753  0.247-  95 2.22  91 2.22  79 2.32  94 2.32
  32  0.754  0.744  0.253-  80 2.25  92 2.27  96 2.40  95 2.47
  33  0.004  0.997  0.500-  81 2.33 100 2.36  97 2.38 109 2.47
  34  0.252  0.994  0.499-  97 2.27  82 2.33 110 2.37  98 2.46
  35  0.486  0.007  0.500-  98 2.29  99 2.41  83 2.45 111 2.46
  36  0.748  0.011  0.490-  84 2.29  99 2.44 112 2.51 100 2.56
  37  0.001  0.252  0.489-  85 2.36 104 2.36  97 2.45 101 2.49
  38  0.245  0.254  0.502- 102 2.22  86 2.24 101 2.24  98 2.28
  39  0.498  0.254  0.504- 103 2.29  99 2.45  87 2.50 102 2.52
  40  0.749  0.254  0.498-  88 2.35 103 2.36 104 2.39 100 2.40
  41  0.002  0.506  0.499- 105 2.18  89 2.35 108 2.39 101 2.49
  42  0.245  0.506  0.496-  90 2.35 102 2.37 105 2.44 106 2.46
  43  0.500  0.495  0.490-  91 2.23 103 2.33 106 2.36 107 2.60
  44  0.754  0.494  0.495- 104 2.30  92 2.39 107 2.39 108 2.41
  45  0.001  0.746  0.512- 105 2.21 109 2.25 112 2.38  93 2.59
  46  0.250  0.752  0.498- 109 2.28 106 2.31  94 2.35 110 2.40
  47  0.497  0.748  0.501- 111 2.23 110 2.25 107 2.38  95 2.45
  48  0.748  0.745  0.507- 112 2.39 108 2.40  96 2.46 111 2.50
  49  0.008  0.003  0.745- 113 2.20  97 2.34 125 2.46 116 2.49
  50  0.242  0.999  0.756- 113 2.19 114 2.25 126 2.44  98 2.47
  51  0.520  0.996  0.747-  99 2.28 115 2.31 127 2.47 114 2.50
  52  0.750  0.003  0.752- 116 2.29 100 2.31 115 2.33 128 2.66
  53  0.004  0.260  0.737- 101 2.21 117 2.37 113 2.51 120 2.56
  54  0.253  0.247  0.748- 117 2.36 118 2.39 102 2.41 114 2.49
  55  0.504  0.248  0.752- 119 2.21 115 2.36 103 2.38 118 2.52
  56  0.746  0.255  0.741- 104 2.24 119 2.25 116 2.36 120 2.41
  57  0.003  0.488  0.750- 117 2.15 124 2.24 121 2.36 105 2.47
  58  0.250  0.507  0.745- 122 2.31 106 2.37 118 2.41 121 2.43
  59  0.501  0.497  0.743- 107 2.24 122 2.43 123 2.43 119 2.50
  60  0.747  0.499  0.754- 120 2.27 124 2.35 108 2.38 123 2.40
  61  1.000  0.752  0.761- 125 2.23 128 2.23 121 2.47 109 2.47
  62  0.252  0.746  0.762- 126 2.25 125 2.28 122 2.36 110 2.51
  63  0.517  0.742  0.741- 123 2.20 111 2.32 127 2.38 126 2.57
  64  0.747  0.748  0.753- 127 2.18 128 2.27 112 2.39 124 2.39
  65  0.072  0.058  0.069-  17 2.25   2 2.34   5 2.35   1 2.44
  66  0.304  0.060  0.063-   2 2.29   6 2.33  18 2.36   3 2.53
  67  0.568  0.061  0.066-  19 2.22   4 2.27   7 2.32   3 2.48
  68  0.816  0.071  0.062-   8 2.15  20 2.37   1 2.41   4 2.56
  69  0.064  0.316  0.072-  21 2.22   6 2.27   9 2.38   5 2.72
  70  0.306  0.317  0.068-  22 2.29  10 2.32   7 2.47   6 2.49
  71  0.572  0.309  0.063-  23 2.30   8 2.41  11 2.50   7 2.70
  72  0.810  0.312  0.061-  12 2.27   8 2.33   5 2.37  24 2.41
  73  0.056  0.559  0.068-  25 2.28   9 2.41  13 2.42  10 2.47
  74  0.303  0.560  0.074-  26 2.30  11 2.33  10 2.37  14 2.39
  75  0.574  0.568  0.051-  12 2.29  15 2.33  27 2.60  11 2.60
  76  0.813  0.560  0.067-  28 2.26  12 2.38  16 2.41   9 2.44
  77  0.056  0.810  0.064-  29 2.27  13 2.31   1 2.40  14 2.41
  78  0.315  0.811  0.072-  30 2.24  15 2.30   2 2.40  14 2.53
  79  0.569  0.798  0.064-  15 2.28  16 2.28  31 2.32   3 2.51
  80  0.817  0.802  0.074-  32 2.25  13 2.36  16 2.50   4 2.69
  81  0.068  0.057  0.316-  33 2.33  21 2.37  18 2.43  17 2.46
  82  0.316  0.066  0.315-  22 2.26  18 2.33  34 2.33  19 2.36
  83  0.566  0.047  0.308-  19 2.19  20 2.44  35 2.45  23 2.67
  84  0.811  0.063  0.309-  20 2.21  36 2.29  24 2.43  17 2.44
  85  0.066  0.319  0.303-  37 2.36  25 2.36  22 2.42  21 2.53
  86  0.304  0.310  0.325-  38 2.24  26 2.33  22 2.37  23 2.50
  87  0.565  0.323  0.306-  27 2.27  24 2.37  23 2.41  39 2.50
  88  0.799  0.323  0.312-  24 2.22  28 2.28  40 2.35  21 2.52
  89  0.048  0.581  0.313-  29 2.18  25 2.29  41 2.35  26 2.50
  90  0.315  0.570  0.310-  30 2.29  27 2.33  42 2.35  26 2.54
  91  0.553  0.578  0.315-  31 2.22  43 2.23  27 2.37  28 2.40
  92  0.812  0.564  0.306-  32 2.27  44 2.39  28 2.42  25 2.51
  93  0.068  0.821  0.307-  17 2.20  30 2.26  29 2.47  45 2.59
  94  0.321  0.810  0.312-  31 2.32  46 2.35  18 2.46  30 2.48
  95  0.559  0.814  0.307-  31 2.22  19 2.41  47 2.45  32 2.47
  96  0.821  0.806  0.313-  29 2.33  32 2.40  20 2.44  48 2.46
  97  0.072  0.058  0.559-  34 2.27  49 2.34  33 2.38  37 2.45
  98  0.305  0.074  0.560-  38 2.28  35 2.29  34 2.46  50 2.47
  99  0.555  0.060  0.568-  51 2.28  35 2.41  36 2.44  39 2.45
 100  0.817  0.064  0.569-  52 2.31  33 2.36  40 2.40  36 2.56
 101  0.067  0.309  0.562-  53 2.21  38 2.24  37 2.49  41 2.49
 102  0.299  0.318  0.558-  38 2.22  42 2.37  54 2.41  39 2.52
 103  0.562  0.311  0.563-  39 2.29  43 2.33  40 2.36  55 2.38
 104  0.814  0.312  0.564-  56 2.24  44 2.30  37 2.36  40 2.39
 105  0.051  0.572  0.556-  41 2.18  45 2.21  42 2.44  57 2.47
 106  0.315  0.570  0.557-  46 2.31  43 2.36  58 2.37  42 2.46
 107  0.565  0.560  0.566-  59 2.24  47 2.38  44 2.39  43 2.60
 108  0.814  0.555  0.566-  60 2.38  41 2.39  48 2.40  44 2.41
 109  0.070  0.801  0.566-  45 2.25  46 2.28  61 2.47  33 2.47
 110  0.319  0.807  0.564-  47 2.25  34 2.37  46 2.40  62 2.51
 111  0.550  0.812  0.560-  47 2.23  63 2.32  35 2.46  48 2.50
 112  0.814  0.812  0.564-  45 2.38  64 2.39  48 2.39  36 2.51
 113  0.069  0.061  0.799-  50 2.19  49 2.20  53 2.51   1 2.54
 114  0.324  0.051  0.797-  50 2.25   2 2.43  54 2.49  51 2.50
 115  0.566  0.061  0.818-   3 2.27  51 2.31  52 2.33  55 2.36
 116  0.811  0.068  0.807-   4 2.26  52 2.29  56 2.36  49 2.49
 117  0.066  0.317  0.805-  57 2.15  54 2.36  53 2.37   5 2.44
 118  0.304  0.317  0.816-  54 2.39  58 2.41   6 2.44  55 2.52
 119  0.569  0.299  0.810-  55 2.21  56 2.25   7 2.26  59 2.50
 120  0.801  0.320  0.812-  60 2.27   8 2.34  56 2.41  53 2.56
 121  0.058  0.558  0.811-   9 2.20  57 2.36  58 2.43  61 2.47
 122  0.309  0.560  0.816-  10 2.31  58 2.31  62 2.36  59 2.43
 123  0.557  0.569  0.807-  63 2.20  60 2.40  11 2.41  59 2.43
 124  0.826  0.560  0.800-  57 2.24  60 2.35  64 2.39  12 2.60
 125  0.072  0.808  0.808-  61 2.23  62 2.28  13 2.37  49 2.46
 126  0.314  0.805  0.820-  62 2.25  14 2.29  50 2.44  63 2.57
 127  0.575  0.802  0.811-  64 2.18  63 2.38  15 2.43  51 2.47
 128  0.826  0.793  0.807-  61 2.23  64 2.27  16 2.40  52 2.66
 
  LATTYP: Found a face centered cubic cell.
 ALAT       =    21.8746673814
  
  Lattice vectors:
  
 A1 = (   0.0000000000,  10.9373336907,  10.9373336907)
 A2 = (  10.9373336907,   0.0000000000,  10.9373336907)
 A3 = (  10.9373336907,  10.9373336907,   0.0000000000)


Analysis of symmetry for initial positions (statically):
=====================================================================
 Subroutine PRICEL returns:
 Original cell was already a primitive cell.
 

 Routine SETGRP: Setting up the symmetry group for a 
 face centered cubic supercell.


 Subroutine GETGRP returns: Found  1 space group operations
 (whereof  1 operations were pure point group operations)
 out of a pool of 48 trial point group operations.


The static configuration has the point symmetry C_1 .


Analysis of symmetry for dynamics (positions and initial velocities):
=====================================================================
 Subroutine PRICEL returns:
 Original cell was already a primitive cell.
 

 Routine SETGRP: Setting up the symmetry group for a 
 face centered cubic supercell.


 Subroutine GETGRP returns: Found  1 space group operations
 (whereof  1 operations were pure point group operations)
 out of a pool of 48 trial point group operations.


The dynamic configuration has the point symmetry C_1 .


 Subroutine INISYM returns: Found  1 space group operations
 (whereof  1 operations are pure point group operations),
 and found     1 'primitive' translations

 
 
 KPOINTS: KPOINTS File, automatically generated by

Automatic generation of k-mesh.
Space group operators:
 irot       det(A)        alpha          n_x          n_y          n_z        tau_x        tau_y        tau_z
    1     1.000000     0.000001     1.000000     0.000000     0.000000     0.000000     0.000000     0.000000
 
 Subroutine IBZKPT returns following result:
 ===========================================
 
 Found      8 irreducible k-points:
 
 Following reciprocal coordinates:
            Coordinates               Weight
  0.000000  0.000000  0.000000      1.000000
  0.500000  0.000000  0.000000      1.000000
  0.000000  0.500000  0.000000      1.000000
  0.500000  0.500000  0.000000      1.000000
  0.000000  0.000000  0.500000      1.000000
  0.500000  0.000000  0.500000      1.000000
  0.000000  0.500000  0.500000      1.000000
  0.500000  0.500000  0.500000      1.000000
 
 Following cartesian coordinates:
            Coordinates               Weight
  0.000000  0.000000  0.000000      1.000000
 -0.022857  0.022857  0.022857      1.000000
  0.022857 -0.022857  0.022857      1.000000
  0.000000  0.000000  0.045715      1.000000
  0.022857  0.022857 -0.022857      1.000000
  0.000000  0.045715  0.000000      1.000000
  0.045715  0.000000  0.000000      1.000000
  0.022857  0.022857  0.022857      1.000000
 


--------------------------------------------------------------------------------------------------------




 Dimension of arrays:
   k-points           NKPTS =      8   k-points in BZ     NKDIM =      8   number of bands    NBANDS=    322
   number of dos      NEDOS =    301   number of ions     NIONS =    128
   non local maximal  LDIM  =      4   non local SUM 2l+1 LMDIM =      8
   total plane-waves  NPLWV = ******
   max r-space proj   IRMAX =      1   max aug-charges    IRDMAX= 176811
   dimension x,y,z NGX =   120 NGY =  120 NGZ =  120
   dimension x,y,z NGXF=   240 NGYF=  240 NGZF=  240
   support grid    NGXF=   480 NGYF=  480 NGZF=  480
   ions per type =             128
   NGX,Y,Z   is equivalent  to a cutoff of  12.90, 12.90, 12.90 a.u.
   NGXF,Y,Z  is equivalent  to a cutoff of  25.80, 25.80, 25.80 a.u.

 SYSTEM =  potpaw_PBE@./ARUN.APL1ZEROSTATE         
 POSCAR =  kk                                      

 Startparameter for this run:
   NWRITE =      2    write-flag & timer
   PREC   = accura    normal or accurate (medium, high low for compatibility)
   ISTART =      0    job   : 0-new  1-cont  2-samecut
   ICHARG =      2    charge: 1-file 2-atom 10-const
   ISPIN  =      1    spin polarized calculation?
   LNONCOLLINEAR =      F non collinear calculations
   LSORBIT =      F    spin-orbit coupling
   INIWAV =      1    electr: 0-lowe 1-rand  2-diag
   LASPH  =      F    aspherical Exc in radial PAW
   METAGGA=      F    non-selfconsistent MetaGGA calc.

 Electronic Relaxation 1
   ENCUT  =  500.0 eV  36.75 Ry    6.06 a.u.  28.20 28.20 28.20*2*pi/ulx,y,z
   ENINI  =  500.0     initial cutoff
   ENAUG  =  322.1 eV  augmentation charge cutoff
   NELM   =    120;   NELMIN=  4; NELMDL= -5     # of ELM steps 
   EDIFF  = 0.1E-07   stopping-criterion for ELM
   LREAL  =      F    real-space projection
   NLSPLINE    = F    spline interpolate recip. space projectors
   LCOMPAT=      F    compatible to vasp.4.4
   GGA_COMPAT  = T    GGA compatible to vasp.4.4-vasp.4.6
   LMAXPAW     = -100 max onsite density
   LMAXMIX     =    2 max onsite mixed and CHGCAR
   VOSKOWN=      0    Vosko Wilk Nusair interpolation
   ROPT   =    0.00000
 Ionic relaxation
   EDIFFG = 0.1E-06   stopping-criterion for IOM
   NSW    =      0    number of steps for IOM
   NBLOCK =      1;   KBLOCK =      1    inner block; outer block 
   IBRION =     -1    ionic relax: 0-MD 1-quasi-New 2-CG
   NFREE  =      0    steps in history (QN), initial steepest desc. (CG)
   ISIF   =      2    stress and relaxation
   IWAVPR =     10    prediction:  0-non 1-charg 2-wave 3-comb
   ISYM   =      2    0-nonsym 1-usesym 2-fastsym
   LCORR  =      T    Harris-Foulkes like correction to forces

   POTIM  = 0.5000    time-step for ionic-motion
   TEIN   =    0.0    initial temperature
   TEBEG  =    0.0;   TEEND  =   0.0 temperature during run
   SMASS  =  -3.00    Nose mass-parameter (am)
   estimated Nose-frequenzy (Omega)   =  0.10E-29 period in steps =****** mass=  -0.547E-26a.u.
   SCALEE = 1.0000    scale energy and forces
   NPACO  =    256;   APACO  = 16.0  distance and # of slots for P.C.
   PSTRESS=    0.0 pullay stress

  Mass of Ions in am
   POMASS =  28.09
  Ionic Valenz
   ZVAL   =   4.00
  Atomic Wigner-Seitz radii
   RWIGS  =  -1.00
  virtual crystal weights 
   VCA    =   1.00
   NELECT =     512.0000    total number of electrons
   NUPDOWN=      -1.0000    fix difference up-down

 DOS related values:
   EMIN   =  10.00;   EMAX   =-10.00  energy-range for DOS
   EFERMI =   0.00
   ISMEAR =     0;   SIGMA  =   0.01  broadening in eV -4-tet -1-fermi 0-gaus

 Electronic relaxation 2 (details)
   IALGO  =     38    algorithm
   LDIAG  =      T    sub-space diagonalisation (order eigenvalues)
   LSUBROT=      F    optimize rotation matrix (better conditioning)
   TURBO    =      0    0=normal 1=particle mesh
   IRESTART =      0    0=no restart 2=restart with 2 vectors
   NREBOOT  =      0    no. of reboots
   NMIN     =      0    reboot dimension
   EREF     =   0.00    reference energy to select bands
   IMIX   =      4    mixing-type and parameters
     AMIX     =   0.40;   BMIX     =  1.00
     AMIX_MAG =   1.60;   BMIX_MAG =  1.00
     AMIN     =   0.10
     WC   =   100.;   INIMIX=   1;  MIXPRE=   1;  MAXMIX= -45

 Intra band minimization:
   WEIMIN = 0.0000     energy-eigenvalue tresh-hold
   EBREAK =  0.78E-11  absolut break condition
   DEPER  =   0.30     relativ break condition  

   TIME   =   0.40     timestep for ELM

  volume/ion in A,a.u.               =      20.44       137.96
  Fermi-wavevector in a.u.,A,eV,Ry     =   0.950408  1.796010 12.289804  0.903275
  Thomas-Fermi vector in A             =   2.078782
 
 Write flags
   LWAVE        =      F    write WAVECAR
   LDOWNSAMPLE  =      F    k-point downsampling of WAVECAR
   LCHARG       =      F    write CHGCAR
   LVTOT        =      F    write LOCPOT, total local potential
   LVHAR        =      F    write LOCPOT, Hartree potential only
   LELF         =      F    write electronic localiz. function (ELF)
   LORBIT       =      0    0 simple, 1 ext, 2 COOP (PROOUT), +10 PAW based schemes


 Dipole corrections
   LMONO  =      F    monopole corrections only (constant potential shift)
   LDIPOL =      F    correct potential (dipole corrections)
   IDIPOL =      0    1-x, 2-y, 3-z, 4-all directions 
   EPSILON=  1.0000000 bulk dielectric constant

 Exchange correlation treatment:
   GGA     =    --    GGA type
   LEXCH   =     8    internal setting for exchange type
   VOSKOWN=      0    Vosko Wilk Nusair interpolation
   LHFCALC =     F    Hartree Fock is set to
   LHFONE  =     F    Hartree Fock one center treatment
   AEXX    =    0.0000 exact exchange contribution

 Linear response parameters
   LEPSILON=     F    determine dielectric tensor
   LRPA    =     F    only Hartree local field effects (RPA)
   LNABLA  =     F    use nabla operator in PAW spheres
   LVEL    =     F    velocity operator in full k-point grid
   LINTERFAST=   F  fast interpolation
   KINTER  =     0    interpolate to denser k-point grid
   CSHIFT  =0.1000    complex shift for real part using Kramers Kronig
   OMEGAMAX=  -1.0    maximum frequency
   DEG_THRESHOLD= 0.2000000E-02 threshold for treating states as degnerate
   RTIME   =   -0.100 relaxation time in fs
  (WPLASMAI=    0.000 imaginary part of plasma frequency in eV, 0.658/RTIME)
   DFIELD  = 0.0000000 0.0000000 0.0000000 field for delta impulse in time
 
 Orbital magnetization related:
   ORBITALMAG=     F  switch on orbital magnetization
   LCHIMAG   =     F  perturbation theory with respect to B field
   DQ        =  0.001000  dq finite difference perturbation B field
   LLRAUG    =     F  two centre corrections for induced B field



--------------------------------------------------------------------------------------------------------


 Static calculation
 charge density and potential will be updated during run
 non-spin polarized calculation
 Variant of blocked Davidson
 Davidson routine will perform the subspace rotation
 perform sub-space diagonalisation
    after iterative eigenvector-optimisation
 modified Broyden-mixing scheme, WC =      100.0
 initial mixing is a Kerker type mixing with AMIX =  0.4000 and BMIX =      1.0000
 Hartree-type preconditioning will be used
 using additional bands           66
 reciprocal scheme for non local part
 use partial core corrections
 calculate Harris-corrections to forces 
   (improved forces if not selfconsistent)
 use gradient corrections 
 use of overlap-Matrix (Vanderbilt PP)
 Gauss-broadening in eV      SIGMA  =   0.01


--------------------------------------------------------------------------------------------------------


  energy-cutoff  :      500.00
  volume of cell :     2616.76
      direct lattice vectors                 reciprocal lattice vectors
     0.000000000 10.937333691 10.937333691    -0.045714981  0.045714981  0.045714981
    10.937333691  0.000000000 10.937333691     0.045714981 -0.045714981  0.045714981
    10.937333691 10.937333691  0.000000000     0.045714981  0.045714981 -0.045714981

  length of vectors
    15.467725642 15.467725642 15.467725642     0.079180669  0.079180669  0.079180669


 
 k-points in units of 2pi/SCALE and weight: KPOINTS File, automatically generated by
   0.00000000  0.00000000  0.00000000       0.125
  -0.02285749  0.02285749  0.02285749       0.125
   0.02285749 -0.02285749  0.02285749       0.125
   0.00000000  0.00000000  0.04571498       0.125
   0.02285749  0.02285749 -0.02285749       0.125
   0.00000000  0.04571498  0.00000000       0.125
   0.04571498  0.00000000  0.00000000       0.125
   0.02285749  0.02285749  0.02285749       0.125
 
 k-points in reciprocal lattice and weights: KPOINTS File, automatically generated by
   0.00000000  0.00000000  0.00000000       0.125
   0.50000000  0.00000000  0.00000000       0.125
   0.00000000  0.50000000  0.00000000       0.125
   0.50000000  0.50000000  0.00000000       0.125
   0.00000000  0.00000000  0.50000000       0.125
   0.50000000  0.00000000  0.50000000       0.125
   0.00000000  0.50000000  0.50000000       0.125
   0.50000000  0.50000000  0.50000000       0.125
 
 position of ions in fractional coordinates (direct lattice) 
   0.00645043  0.99972676  0.00020504
   0.25663966  0.99942948  0.98947650
   0.50400186  0.99652753  0.99764565
   0.74633823  0.01383781  0.98611889
   0.99701432  0.24249159  0.99689867
   0.24198617  0.24363236  0.00843925
   0.49951899  0.24262643  0.98882421
   0.76325066  0.24070569  0.99519768
   0.00567293  0.50234045  0.98519255
   0.25107692  0.49995054  0.99819224
   0.48617754  0.50546463  0.99691990
   0.75428437  0.49186057  0.00606035
   0.00239541  0.75053058  0.99523658
   0.24683186  0.74897236  0.00094579
   0.49689215  0.75229249  0.00293974
   0.74972164  0.75020497  0.99617552
   0.00352845  0.99516831  0.24676290
   0.25942380  0.00488641  0.24783206
   0.50249949  0.00470608  0.24136522
   0.75839022  0.99934447  0.24986068
   0.99731617  0.24345813  0.24636022
   0.25702340  0.24494149  0.24934834
   0.50114083  0.25795344  0.24494035
   0.75300030  0.25489049  0.25117051
   0.01069056  0.50540566  0.24680443
   0.24486916  0.49375811  0.25607189
   0.49924956  0.50266338  0.25703671
   0.74211160  0.50381321  0.24547013
   0.00509300  0.75258074  0.24376622
   0.24683272  0.75148002  0.24869006
   0.50418923  0.75346221  0.24673591
   0.75421722  0.74383067  0.25266113
   0.00381951  0.99662686  0.50014412
   0.25157014  0.99434282  0.49853795
   0.48606514  0.00723785  0.50005858
   0.74799873  0.01099584  0.48958997
   0.00076453  0.25167095  0.48900239
   0.24452384  0.25408680  0.50169422
   0.49764804  0.25382397  0.50412026
   0.74912982  0.25398179  0.49800351
   0.00202425  0.50614390  0.49869426
   0.24477215  0.50586622  0.49607756
   0.50015897  0.49477035  0.49001416
   0.75408508  0.49411439  0.49526024
   0.00142249  0.74582873  0.51183980
   0.25000649  0.75211098  0.49776063
   0.49706393  0.74792275  0.50081408
   0.74814380  0.74486983  0.50737737
   0.00789879  0.00287029  0.74460835
   0.24183852  0.99872956  0.75592802
   0.52035193  0.99646821  0.74658335
   0.75042743  0.00284742  0.75179171
   0.00377755  0.25973408  0.73683961
   0.25316875  0.24731571  0.74780026
   0.50371308  0.24843885  0.75178498
   0.74628969  0.25520204  0.74094642
   0.00259026  0.48756056  0.75005069
   0.24968804  0.50700280  0.74488158
   0.50070855  0.49687101  0.74266659
   0.74674323  0.49925791  0.75431654
   0.99999108  0.75181808  0.76068800
   0.25209337  0.74641695  0.76242620
   0.51707634  0.74171367  0.74083706
   0.74720564  0.74789251  0.75295894
   0.07219643  0.05839454  0.06890111
   0.30353549  0.05963620  0.06317202
   0.56758372  0.06058540  0.06608557
   0.81553200  0.07051102  0.06236596
   0.06360903  0.31574840  0.07230371
   0.30563637  0.31678045  0.06847719
   0.57229785  0.30894676  0.06305505
   0.80979899  0.31218567  0.06087447
   0.05590742  0.55948166  0.06758259
   0.30263922  0.55975654  0.07418498
   0.57359194  0.56843536  0.05133502
   0.81334326  0.55978710  0.06722882
   0.05610936  0.81023645  0.06413397
   0.31487375  0.81067814  0.07173156
   0.56936421  0.79810078  0.06418705
   0.81670608  0.80231875  0.07422619
   0.06781837  0.05683427  0.31563880
   0.31579642  0.06615175  0.31451883
   0.56633009  0.04694282  0.30821111
   0.81051630  0.06309418  0.30884800
   0.06570309  0.31878285  0.30264555
   0.30393582  0.30969308  0.32458818
   0.56538620  0.32343340  0.30620550
   0.79881226  0.32322131  0.31231553
   0.04838138  0.58079456  0.31311042
   0.31475183  0.57020187  0.31022730
   0.55300824  0.57785203  0.31528913
   0.81248794  0.56421853  0.30640482
   0.06813908  0.82141925  0.30709958
   0.32064272  0.81044677  0.31197668
   0.55878032  0.81397233  0.30699802
   0.82123032  0.80645864  0.31289234
   0.07168022  0.05825503  0.55937256
   0.30455814  0.07368472  0.56046692
   0.55538547  0.06036285  0.56798316
   0.81747704  0.06435364  0.56893375
   0.06718925  0.30865235  0.56233708
   0.29906525  0.31843408  0.55810881
   0.56210260  0.31106663  0.56345699
   0.81409205  0.31228814  0.56368561
   0.05141330  0.57224459  0.55577503
   0.31466860  0.56955206  0.55748810
   0.56513610  0.55995822  0.56559563
   0.81373642  0.55483787  0.56583267
   0.06989344  0.80123144  0.56614364
   0.31912050  0.80673771  0.56382596
   0.55044019  0.81231258  0.55975843
   0.81357386  0.81247531  0.56379156
   0.06924440  0.06078011  0.79917418
   0.32435262  0.05082409  0.79720019
   0.56591708  0.06140523  0.81797256
   0.81097986  0.06816987  0.80713804
   0.06633318  0.31725085  0.80450925
   0.30442800  0.31660667  0.81583890
   0.56914937  0.29933759  0.80981662
   0.80146276  0.31975205  0.81167075
   0.05819476  0.55787775  0.81114982
   0.30876483  0.55988597  0.81554063
   0.55729039  0.56854832  0.80669705
   0.82566335  0.55953772  0.80011223
   0.07237230  0.80803951  0.80769573
   0.31384055  0.80535189  0.81955666
   0.57480728  0.80152321  0.81127061
   0.82611151  0.79258945  0.80740569
 
 position of ions in cartesian coordinates  (Angst):
  10.93658780  0.07279311 11.00489562
  21.75332833 13.62918825 13.73804728
  21.81093759 16.42401996 16.41179071
  10.93686018 18.94846164  8.31429906
  13.55562486 21.80809180 13.55688975
   2.75699122  2.73898638  5.31137189
  13.46878663 16.27850629  8.11709213
  13.51748755 19.23273624 10.98060561
  16.26964486 10.83742642  5.55631190
  16.38568756 13.66367370  8.21423793
  16.43208099 16.22113165 10.84592131
   5.44592724  8.31614390 13.62950302
  19.09403796 10.91143396  8.23500283
   8.20210499  2.71002682 10.89144300
   8.26022695  5.46682820 13.66274921
  19.10074613 19.09545980 16.40519785
  13.58341600  2.73751999 10.92307974
   2.76406626  5.54802662  2.89084902
   2.69136392  8.13589655  5.54747656
  13.66297356 11.02757659 19.22493088
   5.35730669 13.60250367 13.57076250
   5.40621282  5.53835663  5.49015750
   5.50031722  8.16013890  8.30246736
   5.53495806 10.98295124 11.02363790
   8.22717270  2.81630863  5.64471653
   8.20114083  5.47895933  8.07861282
   8.30909340  8.27175530 10.95825623
   8.19516188 10.80151090 13.62709543
  10.89737916  2.72185639  8.28693051
  10.93919387  5.41969798 10.91887958
  10.93950066  8.21311889 13.75535349
  10.89896336 11.01256453 16.38464970
  16.37068361  5.51201838 10.94221575
  16.32813523  8.20418252 13.62696582
   5.54847026 10.78556416  5.39541938
   5.47507402 13.53592056  8.30137684
   8.10099149  5.35674428  2.76097112
   8.26622915  8.16163590  5.45347092
   8.28988894 10.95667412  8.21910014
   8.22471412 13.64031340 10.97136646
  10.99025028  5.47652546  5.55800467
  10.95859350  8.10292047  8.20998234
  10.77091681 10.82985395 10.88187395
  10.82112053 13.66450673 13.65197419
  13.75554037  5.61372089  8.17293597
  13.67026283  8.17857849 10.96049313
  13.65785134 10.91412469 13.61683472
  13.69624546 13.73205401 16.32958830
   8.17542335  8.23042174  0.11778501
  19.19127539 10.91290557 13.56850705
  19.06433650 13.85689392 16.58996806
   8.25374000 16.43027202  8.23881847
  10.89985904  8.10037705  2.88211470
  10.88391547 10.94793204  5.47396554
  10.93978179 13.73180117  8.22653667
  10.89520819 16.26639763 10.95364928
  13.53616725  8.23188515  5.36094308
  13.69227718 10.87793974  8.27618020
  13.55723638 13.59920881 10.91086055
  13.71076204 16.41759151 13.62793024
  16.54278361 19.25713456 19.16012128
  16.50272100 11.09613911 10.92104055
  16.21515200 13.75821856 13.76780638
  16.41531313 16.40780059 16.35238737
   1.39227494  1.54323088  1.42831701
   1.34319441  4.01080235  3.97212990
   1.38544264  6.93065240  6.87049522
   1.45331982  9.60186293  9.69094816
   4.24425536  1.48652293  4.14915873
   4.21369134  4.09180482  6.80758040
   4.06870795  6.94906661  9.63846635
   4.08028321  9.52284614 12.27152053
   6.85841094  1.35065141  6.73071574
   6.93363002  4.12145206  9.43231023
   6.77863552  6.83503470 12.49073364
   6.85788241  9.63111076 15.01838502
   9.56328108  1.31514144  9.47551320
   9.65120936  4.22843129 12.31053666
   9.43112971  6.92936150 14.95642092
   9.58706448  9.74442344 17.70781478
   4.07386230  4.19399903  1.36336753
   4.16352118  6.89396830  4.17749462
   3.88443709  9.56514890  6.70757044
   4.06805572 12.24286082  9.55496927
   6.79676978  4.02875201  4.20525109
   6.93734573  6.87437671  6.71146407
   6.88657080  9.53288929  9.72131655
   6.95107855 12.15277550 12.27205561
   9.77693705  3.95375651  6.88150718
   9.62954759  6.83560528  9.67903397
   9.76858301  9.49685815 12.36859620
   9.52229814 12.23770351 15.05749803
  12.34298700  4.10411044  9.72939630
  12.27631976  6.91916939 12.37110315
  12.26042686  9.46930660 15.01425381
  12.24271527 12.40427803 17.80257733
   6.75519905  6.90203486  1.42114516
   6.93592807  9.46106769  4.13696830
   6.87242998 12.28665759  6.73464477
   6.92647558 15.16363748  9.64487644
   9.52630209  6.88533960  4.11070507
   9.58704210  9.37519878  6.75379625
   9.56495672 12.31062085  9.55014323
   9.58081728 15.06921408 12.31959606
  12.33752695  6.64102129  6.82115442
  12.32681432  9.53906880  9.67101645
  12.31055800 12.36719029 12.30553200
  12.25714767 15.08880745 14.96855365
  14.95543757  6.95654976  9.52778347
  14.99031225  9.65708015 12.31388700
  15.00679851 12.14261284 14.90488181
  15.05269003 15.06470522 17.78464237
   9.40560703  9.49818378  1.42212146
   9.27512455 12.26679738  4.10343290
   9.61804838 15.13606282  6.86123351
   9.57353471 17.69789546  9.61555398
  12.26906455  9.52469432  4.19538656
  12.38593506 12.25273288  6.79246331
  12.13118970 15.08221116  9.49893163
  12.37474864 17.64337946 12.26310051
  14.97351140  9.50831177  6.73819062
  15.04349966 12.29690393  9.50072365
  15.04151743 14.91838576 12.31367363
  14.87094528 17.78165008 15.15040637
  17.67183547  9.62559772  9.62935772
  17.77216703 12.39634354 12.24098117
  17.63966425 15.15999644 15.05338588
  17.49968067 17.86632266 17.70427250
 


--------------------------------------------------------------------------------------------------------


 k-point  1 :   0.0000 0.0000 0.0000  plane waves:   66299
 k-point  2 :   0.5000 0.0000 0.0000  plane waves:   66394
 k-point  3 :   0.0000 0.5000 0.0000  plane waves:   66394
 k-point  4 :   0.5000 0.5000 0.0000  plane waves:   66552
 k-point  5 :   0.0000 0.0000 0.5000  plane waves:   66394
 k-point  6 :   0.5000 0.0000 0.5000  plane waves:   66552
 k-point  7 :   0.0000 0.5000 0.5000  plane waves:   66552
 k-point  8 :   0.5000 0.5000 0.5000  plane waves:   66394

 maximum and minimum number of plane-waves per node :      4207     4110

 maximum number of plane-waves:     66552
 maximum index in each direction: 
   IXMAX=   28   IYMAX=   28   IZMAX=   28
   IXMIN=  -28   IYMIN=  -28   IZMIN=  -28


 parallel 3D FFT for wavefunctions:
    minimum data exchange during FFTs selected (reduces bandwidth)
 parallel 3D FFT for charge:
    minimum data exchange during FFTs selected (reduces bandwidth)


 total amount of memory used by VASP MPI-rank0   221701. kBytes
=======================================================================

   base      :      30000. kBytes
   nonl-proj :      10690. kBytes
   fftplans  :      66746. kBytes
   grid      :      26864. kBytes
   one-center:         24. kBytes
   wavefun   :      87377. kBytes
 
     INWAV:  cpu time    0.0000: real time    0.0003
 Broyden mixing: mesh for mixing (old mesh)
   NGX = 57   NGY = 57   NGZ = 57
  (NGX  =240   NGY  =240   NGZ  =240)
  gives a total of 185193 points

 initial charge density was supplied:
 charge density of overlapping atoms calculated
 number of electron     512.0000000 magnetization 
 keeping initial charge density in first step


--------------------------------------------------------------------------------------------------------


 Maximum index for augmentation-charges         5608 (set IRDMAX)


--------------------------------------------------------------------------------------------------------


 First call to EWALD:  gamma=   0.129
 Maximum number of real-space cells 3x 3x 3
 Maximum number of reciprocal cells 3x 3x 3

    FEWALD:  cpu time    0.0059: real time    0.0059


--------------------------------------- Iteration      1(   1)  ---------------------------------------


    POTLOK:  cpu time    0.4914: real time    0.4997
    SETDIJ:  cpu time    0.5192: real time    0.5192
     EDDAV:  cpu time   70.5824: real time   70.5910
       DOS:  cpu time    0.0031: real time    0.0031
    --------------------------------------------
      LOOP:  cpu time   71.5961: real time   71.6130

 eigenvalue-minimisations  :  5152
 total energy-change (2. order) : 0.1383106E+04  (-0.1908158E+05)
 number of electron     512.0000000 magnetization 
 augmentation part      512.0000000 magnetization 

 Free energy of the ion-electron system (eV)
  ---------------------------------------------------
  alpha Z        PSCENC =       210.77028614
  Ewald energy   TEWEN  =    -14472.38233999
  -Hartree energ DENC   =      -755.99861262
  -exchange      EXHF   =         0.00000000
  -V(xc)+E(xc)   XCENC  =     -1195.35726915
  PAW double counting   =      4221.13331941    -1969.18571412
  entropy T*S    EENTRO =        -0.00188245
  eigenvalues    EBANDS =      2151.64765036
  atomic energy  EATOM  =     13192.48085998
  Solvation  Ediel_sol  =         0.00000000
  ---------------------------------------------------
  free energy    TOTEN  =      1383.10629757 eV

  energy without entropy =     1383.10818003  energy(sigma->0) =     1383.10723880


--------------------------------------------------------------------------------------------------------




--------------------------------------- Iteration      1(   2)  ---------------------------------------


     EDDAV:  cpu time   80.2368: real time   80.2590
       DOS:  cpu time    0.0026: real time    0.0026
    --------------------------------------------
      LOOP:  cpu time   80.2395: real time   80.2616

 eigenvalue-minimisations  :  6104
 total energy-change (2. order) :-0.1920129E+04  (-0.1826136E+04)
 number of electron     512.0000000 magnetization 
 augmentation part      512.0000000 magnetization 

 Free energy of the ion-electron system (eV)
  ---------------------------------------------------
  alpha Z        PSCENC =       210.77028614
  Ewald energy   TEWEN  =    -14472.38233999
  -Hartree energ DENC   =      -755.99861262
  -exchange      EXHF   =         0.00000000
  -V(xc)+E(xc)   XCENC  =     -1195.35726915
  PAW double counting   =      4221.13331941    -1969.18571412
  entropy T*S    EENTRO =        -0.00002920
  eigenvalues    EBANDS =       231.51719036
  atomic energy  EATOM  =     13192.48085998
  Solvation  Ediel_sol  =         0.00000000
  ---------------------------------------------------
  free energy    TOTEN  =      -537.02230918 eV

  energy without entropy =     -537.02227998  energy(sigma->0) =     -537.02229458


--------------------------------------------------------------------------------------------------------




--------------------------------------- Iteration      1(   3)  ---------------------------------------


     EDDAV:  cpu time   82.3220: real time   82.3437
       DOS:  cpu time    0.0010: real time    0.0010
    --------------------------------------------
      LOOP:  cpu time   82.3231: real time   82.3447

 eigenvalue-minimisations  :  6304
 total energy-change (2. order) :-0.1499544E+03  (-0.1469557E+03)
 number of electron     512.0000000 magnetization 
 augmentation part      512.0000000 magnetization 

 Free energy of the ion-electron system (eV)
  ---------------------------------------------------
  alpha Z        PSCENC =       210.77028614
  Ewald energy   TEWEN  =    -14472.38233999
  -Hartree energ DENC   =      -755.99861262
  -exchange      EXHF   =         0.00000000
  -V(xc)+E(xc)   XCENC  =     -1195.35726915
  PAW double counting   =      4221.13331941    -1969.18571412
  entropy T*S    EENTRO =        -0.00000000
  eigenvalues    EBANDS =        81.56278096
  atomic energy  EATOM  =     13192.48085998
  Solvation  Ediel_sol  =         0.00000000
  ---------------------------------------------------
  free energy    TOTEN  =      -686.97668938 eV

  energy without entropy =     -686.97668938  energy(sigma->0) =     -686.97668938


--------------------------------------------------------------------------------------------------------




--------------------------------------- Iteration      1(   4)  ---------------------------------------


     EDDAV:  cpu time   80.6668: real time   80.6947
       DOS:  cpu time    0.0021: real time    0.0021
    --------------------------------------------
      LOOP:  cpu time   80.6690: real time   80.6968

 eigenvalue-minimisations  :  6144
 total energy-change (2. order) :-0.4260613E+01  (-0.4225458E+01)
 number of electron     512.0000000 magnetization 
 augmentation part      512.0000000 magnetization 

 Free energy of the ion-electron system (eV)
  ---------------------------------------------------
  alpha Z        PSCENC =       210.77028614
  Ewald energy   TEWEN  =    -14472.38233999
  -Hartree energ DENC   =      -755.99861262
  -exchange      EXHF   =         0.00000000
  -V(xc)+E(xc)   XCENC  =     -1195.35726915
  PAW double counting   =      4221.13331941    -1969.18571412
  entropy T*S    EENTRO =        -0.00000000
  eigenvalues    EBANDS =        77.30216775
  atomic energy  EATOM  =     13192.48085998
  Solvation  Ediel_sol  =         0.00000000
  ---------------------------------------------------
  free energy    TOTEN  =      -691.23730259 eV

  energy without entropy =     -691.23730259  energy(sigma->0) =     -691.23730259


--------------------------------------------------------------------------------------------------------




--------------------------------------- Iteration      1(   5)  ---------------------------------------


     EDDAV:  cpu time   82.9792: real time   82.9998
       DOS:  cpu time    0.0010: real time    0.0010
    CHARGE:  cpu time    3.2727: real time    3.2729
    MIXING:  cpu time    0.0191: real time    0.0191
    --------------------------------------------
      LOOP:  cpu time   86.2720: real time   86.2929

 eigenvalue-minimisations  :  6352
 total energy-change (2. order) :-0.1496405E+00  (-0.1492214E+00)
 number of electron     511.9999998 magnetization 
 augmentation part      -30.1748071 magnetization 

 Broyden mixing:
  rms(total) = 0.23969E+01    rms(broyden)= 0.23969E+01
  rms(prec ) = 0.29058E+01
  weight for this iteration     100.00

 Free energy of the ion-electron system (eV)
  ---------------------------------------------------
  alpha Z        PSCENC =       210.77028614
  Ewald energy   TEWEN  =    -14472.38233999
  -Hartree energ DENC   =      -755.99861262
  -exchange      EXHF   =         0.00000000
  -V(xc)+E(xc)   XCENC  =     -1195.35726915
  PAW double counting   =      4221.13331941    -1969.18571412
  entropy T*S    EENTRO =        -0.00000000
  eigenvalues    EBANDS =        77.15252730
  atomic energy  EATOM  =     13192.48085998
  Solvation  Ediel_sol  =         0.00000000
  ---------------------------------------------------
  free energy    TOTEN  =      -691.38694304 eV

  energy without entropy =     -691.38694304  energy(sigma->0) =     -691.38694304


--------------------------------------------------------------------------------------------------------




--------------------------------------- Iteration      1(   6)  ---------------------------------------


    POTLOK:  cpu time    0.4910: real time    0.4923
    SETDIJ:  cpu time    0.5085: real time    0.5086
     EDDAV:  cpu time   78.3845: real time   78.3994
       DOS:  cpu time    0.0011: real time    0.0011
    CHARGE:  cpu time    3.2792: real time    3.2793
    MIXING:  cpu time    0.0204: real time    0.0204
    --------------------------------------------
      LOOP:  cpu time   82.6846: real time   82.7010

 eigenvalue-minimisations  :  5920
 total energy-change (2. order) : 0.8450458E+01  (-0.5815849E+00)
 number of electron     511.9999998 magnetization 
 augmentation part      -29.8362385 magnetization 

 Broyden mixing:
  rms(total) = 0.14247E+01    rms(broyden)= 0.14247E+01
  rms(prec ) = 0.17174E+01
  weight for this iteration     100.00

 eigenvalues of (default mixing * dielectric matrix)
  average eigenvalue GAMMA=   2.4327
  2.4327

 Free energy of the ion-electron system (eV)
  ---------------------------------------------------
  alpha Z        PSCENC =       210.77028614
  Ewald energy   TEWEN  =    -14472.38233999
  -Hartree energ DENC   =      -851.17223395
  -exchange      EXHF   =         0.00000000
  -V(xc)+E(xc)   XCENC  =     -1180.70667152
  PAW double counting   =      4465.59318784    -2220.41197148
  entropy T*S    EENTRO =        -0.00000000
  eigenvalues    EBANDS =       172.89239754
  atomic energy  EATOM  =     13192.48085998
  Solvation  Ediel_sol  =         0.00000000
  ---------------------------------------------------
  free energy    TOTEN  =      -682.93648544 eV

  energy without entropy =     -682.93648544  energy(sigma->0) =     -682.93648544


--------------------------------------------------------------------------------------------------------




--------------------------------------- Iteration      1(   7)  ---------------------------------------


    POTLOK:  cpu time    0.4918: real time    0.4924
    SETDIJ:  cpu time    0.5080: real time    0.5080
     EDDAV:  cpu time   78.0338: real time   78.0490
       DOS:  cpu time    0.0011: real time    0.0011
    CHARGE:  cpu time    3.2823: real time    3.2871
    MIXING:  cpu time    0.0113: real time    0.0113
    --------------------------------------------
      LOOP:  cpu time   82.3283: real time   82.3489

 eigenvalue-minimisations  :  5888
 total energy-change (2. order) : 0.3540422E+01  (-0.1129794E+01)
 number of electron     511.9999998 magnetization 
 augmentation part      -29.3822505 magnetization 

 Broyden mixing:
  rms(total) = 0.15523E+00    rms(broyden)= 0.15523E+00
  rms(prec ) = 0.20235E+00
  weight for this iteration     100.00

 eigenvalues of (default mixing * dielectric matrix)
  average eigenvalue GAMMA=   2.1082
  2.1082  2.1082

 Free energy of the ion-electron system (eV)
  ---------------------------------------------------
  alpha Z        PSCENC =       210.77028614
  Ewald energy   TEWEN  =    -14472.38233999
  -Hartree energ DENC   =     -1001.85190992
  -exchange      EXHF   =         0.00000000
  -V(xc)+E(xc)   XCENC  =     -1156.74926429
  PAW double counting   =      4785.57296880    -2548.92936553
  entropy T*S    EENTRO =        -0.00000000
  eigenvalues    EBANDS =       311.69270119
  atomic energy  EATOM  =     13192.48085998
  Solvation  Ediel_sol  =         0.00000000
  ---------------------------------------------------
  free energy    TOTEN  =      -679.39606360 eV

  energy without entropy =     -679.39606360  energy(sigma->0) =     -679.39606360


--------------------------------------------------------------------------------------------------------




--------------------------------------- Iteration      1(   8)  ---------------------------------------


    POTLOK:  cpu time    0.4919: real time    0.4932
    SETDIJ:  cpu time    0.5090: real time    0.5090
     EDDAV:  cpu time   77.0688: real time   77.0832
       DOS:  cpu time    0.0010: real time    0.0010
    CHARGE:  cpu time    3.2713: real time    3.2738
    MIXING:  cpu time    0.0266: real time    0.0266
    --------------------------------------------
      LOOP:  cpu time   81.3686: real time   81.3868

 eigenvalue-minimisations  :  5792
 total energy-change (2. order) :-0.5935208E-01  (-0.1090144E+00)
 number of electron     511.9999998 magnetization 
 augmentation part      -29.4497189 magnetization 

 Broyden mixing:
  rms(total) = 0.63496E-01    rms(broyden)= 0.63496E-01
  rms(prec ) = 0.78748E-01
  weight for this iteration     100.00

 eigenvalues of (default mixing * dielectric matrix)
  average eigenvalue GAMMA=   2.0109
  2.6796  1.6765  1.6765

 Free energy of the ion-electron system (eV)
  ---------------------------------------------------
  alpha Z        PSCENC =       210.77028614
  Ewald energy   TEWEN  =    -14472.38233999
  -Hartree energ DENC   =      -995.33268382
  -exchange      EXHF   =         0.00000000
  -V(xc)+E(xc)   XCENC  =     -1156.87453762
  PAW double counting   =      4738.28335627    -2500.16779819
  entropy T*S    EENTRO =        -0.00000000
  eigenvalues    EBANDS =       303.76744155
  atomic energy  EATOM  =     13192.48085998
  Solvation  Ediel_sol  =         0.00000000
  ---------------------------------------------------
  free energy    TOTEN  =      -679.45541568 eV

  energy without entropy =     -679.45541568  energy(sigma->0) =     -679.45541568


--------------------------------------------------------------------------------------------------------




--------------------------------------- Iteration      1(   9)  ---------------------------------------


    POTLOK:  cpu time    0.4936: real time    0.4949
    SETDIJ:  cpu time    0.5086: real time    0.5087
     EDDAV:  cpu time   79.7232: real time   79.7391
       DOS:  cpu time    0.0011: real time    0.0011
    CHARGE:  cpu time    3.2752: real time    3.2753
    MIXING:  cpu time    0.0185: real time    0.0185
    --------------------------------------------
      LOOP:  cpu time   84.0202: real time   84.0375

 eigenvalue-minimisations  :  6056
 total energy-change (2. order) :-0.2222320E-01  (-0.1091594E-01)
 number of electron     511.9999998 magnetization 
 augmentation part      -29.4556948 magnetization 

 Broyden mixing:
  rms(total) = 0.28702E-01    rms(broyden)= 0.28702E-01
  rms(prec ) = 0.33466E-01
  weight for this iteration     100.00

 eigenvalues of (default mixing * dielectric matrix)
  average eigenvalue GAMMA=   1.7862
  2.5895  1.8296  1.8296  0.8961

 Free energy of the ion-electron system (eV)
  ---------------------------------------------------
  alpha Z        PSCENC =       210.77028614
  Ewald energy   TEWEN  =    -14472.38233999
  -Hartree energ DENC   =     -1001.86596908
  -exchange      EXHF   =         0.00000000
  -V(xc)+E(xc)   XCENC  =     -1155.71998219
  PAW double counting   =      4740.83426091    -2502.78678128
  entropy T*S    EENTRO =        -0.00000000
  eigenvalues    EBANDS =       309.19202662
  atomic energy  EATOM  =     13192.48085998
  Solvation  Ediel_sol  =         0.00000000
  ---------------------------------------------------
  free energy    TOTEN  =      -679.47763888 eV

  energy without entropy =     -679.47763888  energy(sigma->0) =     -679.47763888


--------------------------------------------------------------------------------------------------------




--------------------------------------- Iteration      1(  10)  ---------------------------------------


    POTLOK:  cpu time    0.4905: real time    0.4920
    SETDIJ:  cpu time    0.5077: real time    0.5078
     EDDAV:  cpu time   78.8028: real time   78.8303
       DOS:  cpu time    0.0016: real time    0.0016
    CHARGE:  cpu time    3.2857: real time    3.2864
    MIXING:  cpu time    0.0210: real time    0.0210
    --------------------------------------------
      LOOP:  cpu time   83.1093: real time   83.1390

 eigenvalue-minimisations  :  5960
 total energy-change (2. order) :-0.2579170E-02  (-0.8953716E-03)
 number of electron     511.9999998 magnetization 
 augmentation part      -29.4651869 magnetization 

 Broyden mixing:
  rms(total) = 0.11344E-01    rms(broyden)= 0.11344E-01
  rms(prec ) = 0.13739E-01
  weight for this iteration     100.00

 eigenvalues of (default mixing * dielectric matrix)
  average eigenvalue GAMMA=   1.8487
  2.6543  2.6543  1.5038  1.5038  0.9277

 Free energy of the ion-electron system (eV)
  ---------------------------------------------------
  alpha Z        PSCENC =       210.77028614
  Ewald energy   TEWEN  =    -14472.38233999
  -Hartree energ DENC   =     -1000.70974445
  -exchange      EXHF   =         0.00000000
  -V(xc)+E(xc)   XCENC  =     -1155.89112568
  PAW double counting   =      4733.61402918    -2495.38665555
  entropy T*S    EENTRO =        -0.00000000
  eigenvalues    EBANDS =       308.02447230
  atomic energy  EATOM  =     13192.48085998
  Solvation  Ediel_sol  =         0.00000000
  ---------------------------------------------------
  free energy    TOTEN  =      -679.48021805 eV

  energy without entropy =     -679.48021805  energy(sigma->0) =     -679.48021805


--------------------------------------------------------------------------------------------------------




--------------------------------------- Iteration      1(  11)  ---------------------------------------


    POTLOK:  cpu time    0.4906: real time    0.4921
    SETDIJ:  cpu time    0.5077: real time    0.5078
     EDDAV:  cpu time   77.7928: real time   77.8092
       DOS:  cpu time    0.0012: real time    0.0012
    CHARGE:  cpu time    3.2922: real time    3.2929
    MIXING:  cpu time    0.0158: real time    0.0158
    --------------------------------------------
      LOOP:  cpu time   82.1003: real time   82.1190

 eigenvalue-minimisations  :  5872
 total energy-change (2. order) :-0.1515666E-02  (-0.2381221E-03)
 number of electron     511.9999998 magnetization 
 augmentation part      -29.4676059 magnetization 

 Broyden mixing:
  rms(total) = 0.36316E-02    rms(broyden)= 0.36316E-02
  rms(prec ) = 0.51501E-02
  weight for this iteration     100.00

 eigenvalues of (default mixing * dielectric matrix)
  average eigenvalue GAMMA=   1.7711
  2.8317  2.0330  2.0330  1.5793  1.2728  0.8765

 Free energy of the ion-electron system (eV)
  ---------------------------------------------------
  alpha Z        PSCENC =       210.77028614
  Ewald energy   TEWEN  =    -14472.38233999
  -Hartree energ DENC   =     -1000.73510339
  -exchange      EXHF   =         0.00000000
  -V(xc)+E(xc)   XCENC  =     -1155.88535316
  PAW double counting   =      4729.62756937    -2491.30979622
  entropy T*S    EENTRO =        -0.00000000
  eigenvalues    EBANDS =       307.95214356
  atomic energy  EATOM  =     13192.48085998
  Solvation  Ediel_sol  =         0.00000000
  ---------------------------------------------------
  free energy    TOTEN  =      -679.48173371 eV

  energy without entropy =     -679.48173371  energy(sigma->0) =     -679.48173371


--------------------------------------------------------------------------------------------------------




--------------------------------------- Iteration      1(  12)  ---------------------------------------


    POTLOK:  cpu time    0.4934: real time    0.4940
    SETDIJ:  cpu time    0.5057: real time    0.5057
     EDDAV:  cpu time   80.7536: real time   80.7654
       DOS:  cpu time    0.0011: real time    0.0011
    CHARGE:  cpu time    3.2893: real time    3.2895
    MIXING:  cpu time    0.0176: real time    0.0176
    --------------------------------------------
      LOOP:  cpu time   85.0608: real time   85.0734

 eigenvalue-minimisations  :  6168
 total energy-change (2. order) :-0.8551883E-04  (-0.4675897E-04)
 number of electron     511.9999998 magnetization 
 augmentation part      -29.4657873 magnetization 

 Broyden mixing:
  rms(total) = 0.19465E-02    rms(broyden)= 0.19465E-02
  rms(prec ) = 0.23279E-02
  weight for this iteration     100.00

 eigenvalues of (default mixing * dielectric matrix)
  average eigenvalue GAMMA=   1.8276
  3.1441  2.6962  1.7520  1.7520  0.8927  1.2782  1.2782

 Free energy of the ion-electron system (eV)
  ---------------------------------------------------
  alpha Z        PSCENC =       210.77028614
  Ewald energy   TEWEN  =    -14472.38233999
  -Hartree energ DENC   =     -1001.30438857
  -exchange      EXHF   =         0.00000000
  -V(xc)+E(xc)   XCENC  =     -1155.82258336
  PAW double counting   =      4730.73310198    -2492.45422223
  entropy T*S    EENTRO =        -0.00000000
  eigenvalues    EBANDS =       308.49746681
  atomic energy  EATOM  =     13192.48085998
  Solvation  Ediel_sol  =         0.00000000
  ---------------------------------------------------
  free energy    TOTEN  =      -679.48181923 eV

  energy without entropy =     -679.48181923  energy(sigma->0) =     -679.48181923


--------------------------------------------------------------------------------------------------------




--------------------------------------- Iteration      1(  13)  ---------------------------------------


    POTLOK:  cpu time    0.4938: real time    0.4948
    SETDIJ:  cpu time    0.5067: real time    0.5067
     EDDAV:  cpu time   76.6016: real time   76.6127
       DOS:  cpu time    0.0012: real time    0.0012
    CHARGE:  cpu time    3.1863: real time    3.1865
    MIXING:  cpu time    0.0205: real time    0.0205
    --------------------------------------------
      LOOP:  cpu time   80.8101: real time   80.8224

 eigenvalue-minimisations  :  5760
 total energy-change (2. order) :-0.3010624E-04  (-0.1210957E-04)
 number of electron     511.9999998 magnetization 
 augmentation part      -29.4659603 magnetization 

 Broyden mixing:
  rms(total) = 0.75542E-03    rms(broyden)= 0.75540E-03
  rms(prec ) = 0.97231E-03
  weight for this iteration     100.00

 eigenvalues of (default mixing * dielectric matrix)
  average eigenvalue GAMMA=   1.7809
  3.1341  2.5332  1.9169  1.9169  1.4175  1.4175  0.9554  0.9554

 Free energy of the ion-electron system (eV)
  ---------------------------------------------------
  alpha Z        PSCENC =       210.77028614
  Ewald energy   TEWEN  =    -14472.38233999
  -Hartree energ DENC   =     -1001.26536535
  -exchange      EXHF   =         0.00000000
  -V(xc)+E(xc)   XCENC  =     -1155.83718064
  PAW double counting   =      4730.03912712    -2491.74551333
  entropy T*S    EENTRO =        -0.00000000
  eigenvalues    EBANDS =       308.45827673
  atomic energy  EATOM  =     13192.48085998
  Solvation  Ediel_sol  =         0.00000000
  ---------------------------------------------------
  free energy    TOTEN  =      -679.48184934 eV

  energy without entropy =     -679.48184934  energy(sigma->0) =     -679.48184934


--------------------------------------------------------------------------------------------------------




--------------------------------------- Iteration      1(  14)  ---------------------------------------


    POTLOK:  cpu time    0.4927: real time    0.4939
    SETDIJ:  cpu time    0.5048: real time    0.5048
     EDDAV:  cpu time   80.6431: real time   80.6579
       DOS:  cpu time    0.0011: real time    0.0011
    CHARGE:  cpu time    3.1866: real time    3.1867
    MIXING:  cpu time    0.0241: real time    0.0241
    --------------------------------------------
      LOOP:  cpu time   84.8525: real time   84.8686

 eigenvalue-minimisations  :  6176
 total energy-change (2. order) :-0.8208610E-05  (-0.1315721E-05)
 number of electron     511.9999998 magnetization 
 augmentation part      -29.4656457 magnetization 

 Broyden mixing:
  rms(total) = 0.18193E-03    rms(broyden)= 0.18187E-03
  rms(prec ) = 0.26476E-03
  weight for this iteration     100.00

 eigenvalues of (default mixing * dielectric matrix)
  average eigenvalue GAMMA=   1.7675
  3.2110  2.5985  2.1600  1.6486  1.6486  1.3510  1.3510  1.0122  0.9268

 Free energy of the ion-electron system (eV)
  ---------------------------------------------------
  alpha Z        PSCENC =       210.77028614
  Ewald energy   TEWEN  =    -14472.38233999
  -Hartree energ DENC   =     -1001.35167589
  -exchange      EXHF   =         0.00000000
  -V(xc)+E(xc)   XCENC  =     -1155.82648805
  PAW double counting   =      4730.29689407    -2492.00987856
  entropy T*S    EENTRO =        -0.00000000
  eigenvalues    EBANDS =       308.54048475
  atomic energy  EATOM  =     13192.48085998
  Solvation  Ediel_sol  =         0.00000000
  ---------------------------------------------------
  free energy    TOTEN  =      -679.48185755 eV

  energy without entropy =     -679.48185755  energy(sigma->0) =     -679.48185755


--------------------------------------------------------------------------------------------------------




--------------------------------------- Iteration      1(  15)  ---------------------------------------


    POTLOK:  cpu time    0.4909: real time    0.4922
    SETDIJ:  cpu time    0.5093: real time    0.5093
     EDDAV:  cpu time   81.2475: real time   81.2593
       DOS:  cpu time    0.0010: real time    0.0010
    CHARGE:  cpu time    3.1857: real time    3.1893
    MIXING:  cpu time    0.0161: real time    0.0161
    --------------------------------------------
      LOOP:  cpu time   85.4506: real time   85.4672

 eigenvalue-minimisations  :  6232
 total energy-change (2. order) :-0.2365425E-05  (-0.1692272E-06)
 number of electron     511.9999998 magnetization 
 augmentation part      -29.4655796 magnetization 

 Broyden mixing:
  rms(total) = 0.72659E-04    rms(broyden)= 0.72503E-04
  rms(prec ) = 0.10001E-03
  weight for this iteration     100.00

 eigenvalues of (default mixing * dielectric matrix)
  average eigenvalue GAMMA=   1.7183
  3.2579  2.6137  2.1000  1.7267  1.7267  1.4389  1.4389  1.0749  0.9024  0.9024

 Free energy of the ion-electron system (eV)
  ---------------------------------------------------
  alpha Z        PSCENC =       210.77028614
  Ewald energy   TEWEN  =    -14472.38233999
  -Hartree energ DENC   =     -1001.36867694
  -exchange      EXHF   =         0.00000000
  -V(xc)+E(xc)   XCENC  =     -1155.82580622
  PAW double counting   =      4730.33829720    -2492.05260972
  entropy T*S    EENTRO =        -0.00000000
  eigenvalues    EBANDS =       308.55812962
  atomic energy  EATOM  =     13192.48085998
  Solvation  Ediel_sol  =         0.00000000
  ---------------------------------------------------
  free energy    TOTEN  =      -679.48185991 eV

  energy without entropy =     -679.48185991  energy(sigma->0) =     -679.48185991


--------------------------------------------------------------------------------------------------------




--------------------------------------- Iteration      1(  16)  ---------------------------------------


    POTLOK:  cpu time    0.4904: real time    0.4913
    SETDIJ:  cpu time    0.5071: real time    0.5071
     EDDAV:  cpu time   79.1124: real time   79.1198
       DOS:  cpu time    0.0013: real time    0.0013
    CHARGE:  cpu time    3.3005: real time    3.3007
    MIXING:  cpu time    0.0136: real time    0.0136
    --------------------------------------------
      LOOP:  cpu time   83.4254: real time   83.4337

 eigenvalue-minimisations  :  6000
 total energy-change (2. order) : 0.1818789E-06  (-0.3494011E-07)
 number of electron     511.9999998 magnetization 
 augmentation part      -29.4655685 magnetization 

 Broyden mixing:
  rms(total) = 0.38518E-04    rms(broyden)= 0.38225E-04
  rms(prec ) = 0.53990E-04
  weight for this iteration     100.00

 eigenvalues of (default mixing * dielectric matrix)
  average eigenvalue GAMMA=   1.6877
  3.2885  2.6165  2.0210  2.0210  1.3928  1.3928  1.4480  1.4480  0.9050  1.0156
  1.0156

 Free energy of the ion-electron system (eV)
  ---------------------------------------------------
  alpha Z        PSCENC =       210.77028614
  Ewald energy   TEWEN  =    -14472.38233999
  -Hartree energ DENC   =     -1001.36980929
  -exchange      EXHF   =         0.00000000
  -V(xc)+E(xc)   XCENC  =     -1155.82566784
  PAW double counting   =      4730.33803250    -2492.05213879
  entropy T*S    EENTRO =        -0.00000000
  eigenvalues    EBANDS =       308.55891755
  atomic energy  EATOM  =     13192.48085998
  Solvation  Ediel_sol  =         0.00000000
  ---------------------------------------------------
  free energy    TOTEN  =      -679.48185973 eV

  energy without entropy =     -679.48185973  energy(sigma->0) =     -679.48185973


--------------------------------------------------------------------------------------------------------




--------------------------------------- Iteration      1(  17)  ---------------------------------------


    POTLOK:  cpu time    0.4926: real time    0.4938
    SETDIJ:  cpu time    0.5100: real time    0.5100
     EDDAV:  cpu time   75.6339: real time   75.6547
       DOS:  cpu time    0.0013: real time    0.0013
    CHARGE:  cpu time    3.2899: real time    3.2901
    MIXING:  cpu time    0.0252: real time    0.0252
    --------------------------------------------
      LOOP:  cpu time   79.9528: real time   79.9749

 eigenvalue-minimisations  :  5656
 total energy-change (2. order) : 0.8515235E-07  (-0.5835714E-08)
 number of electron     511.9999998 magnetization 
 augmentation part      -29.4655694 magnetization 

 Broyden mixing:
  rms(total) = 0.16897E-04    rms(broyden)= 0.16218E-04
  rms(prec ) = 0.20943E-04
  weight for this iteration     100.00

 eigenvalues of (default mixing * dielectric matrix)
  average eigenvalue GAMMA=   1.6978
  3.2805  2.6161  2.2918  1.9177  1.9177  1.4198  1.4198  0.9384  0.9683  1.1114
  1.2462  1.2462

 Free energy of the ion-electron system (eV)
  ---------------------------------------------------
  alpha Z        PSCENC =       210.77028614
  Ewald energy   TEWEN  =    -14472.38233999
  -Hartree energ DENC   =     -1001.36958641
  -exchange      EXHF   =         0.00000000
  -V(xc)+E(xc)   XCENC  =     -1155.82564254
  PAW double counting   =      4730.33969616    -2492.05369200
  entropy T*S    EENTRO =        -0.00000000
  eigenvalues    EBANDS =       308.55855900
  atomic energy  EATOM  =     13192.48085998
  Solvation  Ediel_sol  =         0.00000000
  ---------------------------------------------------
  free energy    TOTEN  =      -679.48185965 eV

  energy without entropy =     -679.48185965  energy(sigma->0) =     -679.48185965


--------------------------------------------------------------------------------------------------------




--------------------------------------- Iteration      1(  18)  ---------------------------------------


    POTLOK:  cpu time    0.4940: real time    0.4969
    SETDIJ:  cpu time    0.5057: real time    0.5057
     EDDAV:  cpu time   54.6789: real time   54.6918
       DOS:  cpu time    0.0011: real time    0.0011
    CHARGE:  cpu time    3.2927: real time    3.2928
    MIXING:  cpu time    0.0139: real time    0.0139
    --------------------------------------------
      LOOP:  cpu time   58.9863: real time   59.0023

 eigenvalue-minimisations  :  3568
 total energy-change (2. order) :-0.1642766E-06  (-0.1673916E-08)
 number of electron     511.9999998 magnetization 
 augmentation part      -29.4655641 magnetization 

 Broyden mixing:
  rms(total) = 0.81832E-05    rms(broyden)= 0.66686E-05
  rms(prec ) = 0.86769E-05
  weight for this iteration     100.00
  WARNING: grid for Broyden might be to small

 eigenvalues of (default mixing * dielectric matrix)
  average eigenvalue GAMMA=   1.7160
  3.3160  2.6323  2.6323  2.2764  1.7506  1.7506  1.3329  1.3329  0.9368  0.9497
  1.0375  1.1800  1.1800

 Free energy of the ion-electron system (eV)
  ---------------------------------------------------
  alpha Z        PSCENC =       210.77028614
  Ewald energy   TEWEN  =    -14472.38233999
  -Hartree energ DENC   =     -1001.37068510
  -exchange      EXHF   =         0.00000000
  -V(xc)+E(xc)   XCENC  =     -1155.82552112
  PAW double counting   =      4730.34508919    -2492.05918121
  entropy T*S    EENTRO =        -0.00000000
  eigenvalues    EBANDS =       308.55963230
  atomic energy  EATOM  =     13192.48085998
  Solvation  Ediel_sol  =         0.00000000
  ---------------------------------------------------
  free energy    TOTEN  =      -679.48185981 eV

  energy without entropy =     -679.48185981  energy(sigma->0) =     -679.48185981


--------------------------------------------------------------------------------------------------------




--------------------------------------- Iteration      1(  19)  ---------------------------------------


    POTLOK:  cpu time    0.4913: real time    0.4946
    SETDIJ:  cpu time    0.5051: real time    0.5052
     EDDAV:  cpu time   51.7069: real time   51.7213
       DOS:  cpu time    0.0011: real time    0.0011
    CHARGE:  cpu time    3.2824: real time    3.2838
    MIXING:  cpu time    0.0146: real time    0.0146
    --------------------------------------------
      LOOP:  cpu time   56.0015: real time   56.0206

 eigenvalue-minimisations  :  3272
 total energy-change (2. order) : 0.7249400E-07  (-0.2898447E-09)
 number of electron     511.9999998 magnetization 
 augmentation part      -29.4655650 magnetization 

 Broyden mixing:
  rms(total) = 0.57603E-05    rms(broyden)= 0.32691E-05
  rms(prec ) = 0.46359E-05
  weight for this iteration     100.00
  WARNING: grid for Broyden might be to small

 eigenvalues of (default mixing * dielectric matrix)
  average eigenvalue GAMMA=   1.6620
  3.3237  2.6907  2.3265  2.3265  1.7554  1.7554  1.2584  1.2584  1.3755  1.3755
  1.0203  1.0203  0.9053  0.8757

 Free energy of the ion-electron system (eV)
  ---------------------------------------------------
  alpha Z        PSCENC =       210.77028614
  Ewald energy   TEWEN  =    -14472.38233999
  -Hartree energ DENC   =     -1001.37041656
  -exchange      EXHF   =         0.00000000
  -V(xc)+E(xc)   XCENC  =     -1155.82553016
  PAW double counting   =      4730.34468649    -2492.05871466
  entropy T*S    EENTRO =        -0.00000000
  eigenvalues    EBANDS =       308.55930902
  atomic energy  EATOM  =     13192.48085998
  Solvation  Ediel_sol  =         0.00000000
  ---------------------------------------------------
  free energy    TOTEN  =      -679.48185974 eV

  energy without entropy =     -679.48185974  energy(sigma->0) =     -679.48185974


--------------------------------------------------------------------------------------------------------




--------------------------------------- Iteration      1(  20)  ---------------------------------------


    POTLOK:  cpu time    0.4925: real time    0.4935
    SETDIJ:  cpu time    0.5116: real time    0.5117
     EDDAV:  cpu time   50.5802: real time   50.5923
       DOS:  cpu time    0.0013: real time    0.0013
    CHARGE:  cpu time    3.2858: real time    3.2859
    MIXING:  cpu time    0.0238: real time    0.0238
    --------------------------------------------
      LOOP:  cpu time   54.8953: real time   54.9086

 eigenvalue-minimisations  :  3152
 total energy-change (2. order) :-0.1399167E-07  (-0.5205066E-10)
 number of electron     511.9999998 magnetization 
 augmentation part      -29.4655644 magnetization 

 Broyden mixing:
  rms(total) = 0.51581E-05    rms(broyden)= 0.20280E-05
  rms(prec ) = 0.26791E-05
  weight for this iteration     100.00
  WARNING: grid for Broyden might be to small

 eigenvalues of (default mixing * dielectric matrix)
  average eigenvalue GAMMA=   1.6840
  3.2795  2.6758  2.3702  2.3702  1.9154  1.9154  1.5780  1.3521  1.3521  1.1739
  1.1739  1.2921  0.9210  0.9452  0.9452

 Free energy of the ion-electron system (eV)
  ---------------------------------------------------
  alpha Z        PSCENC =       210.77028614
  Ewald energy   TEWEN  =    -14472.38233999
  -Hartree energ DENC   =     -1001.37049323
  -exchange      EXHF   =         0.00000000
  -V(xc)+E(xc)   XCENC  =     -1155.82552709
  PAW double counting   =      4730.34485005    -2492.05888920
  entropy T*S    EENTRO =        -0.00000000
  eigenvalues    EBANDS =       308.55939359
  atomic energy  EATOM  =     13192.48085998
  Solvation  Ediel_sol  =         0.00000000
  ---------------------------------------------------
  free energy    TOTEN  =      -679.48185975 eV

  energy without entropy =     -679.48185975  energy(sigma->0) =     -679.48185975


--------------------------------------------------------------------------------------------------------




--------------------------------------- Iteration      1(  21)  ---------------------------------------


    POTLOK:  cpu time    0.4881: real time    0.4914
    SETDIJ:  cpu time    0.5089: real time    0.5089
     EDDAV:  cpu time   50.4612: real time   50.4714
       DOS:  cpu time    0.0010: real time    0.0010
    --------------------------------------------
      LOOP:  cpu time   51.4592: real time   51.4726

 eigenvalue-minimisations  :  3152
 total energy-change (2. order) :-0.1473381E-08  (-0.2198831E-10)
 number of electron     511.9999998 magnetization 
 augmentation part      -29.4655644 magnetization 

 Free energy of the ion-electron system (eV)
  ---------------------------------------------------
  alpha Z        PSCENC =       210.77028614
  Ewald energy   TEWEN  =    -14472.38233999
  -Hartree energ DENC   =     -1001.37043897
  -exchange      EXHF   =         0.00000000
  -V(xc)+E(xc)   XCENC  =     -1155.82553246
  PAW double counting   =      4730.34484040    -2492.05888140
  entropy T*S    EENTRO =        -0.00000000
  eigenvalues    EBANDS =       308.55934654
  atomic energy  EATOM  =     13192.48085998
  Solvation  Ediel_sol  =         0.00000000
  ---------------------------------------------------
  free energy    TOTEN  =      -679.48185975 eV

  energy without entropy =     -679.48185975  energy(sigma->0) =     -679.48185975


--------------------------------------------------------------------------------------------------------




 average (electrostatic) potential at core
  the test charge radii are     0.9892
  (the norm of the test charge is              1.0000)
       1 -83.4508       2 -83.5098       3 -83.4827       4 -83.5548       5 -83.4119
       6 -83.3875       7 -83.3824       8 -83.3508       9 -83.5300      10 -83.3859
      11 -83.3814      12 -83.3359      13 -83.4262      14 -83.4886      15 -83.4865
      16 -83.4909      17 -83.5987      18 -83.6005      19 -83.5770      20 -83.5483
      21 -83.5491      22 -83.4929      23 -83.4950      24 -83.4620      25 -83.5748
      26 -83.4639      27 -83.3803      28 -83.4916      29 -83.4378      30 -83.5556
      31 -83.5474      32 -83.5493      33 -83.5525      34 -83.6255      35 -83.5751
      36 -83.4808      37 -83.6094      38 -83.3960      39 -83.4127      40 -83.5050
      41 -83.4649      42 -83.4340      43 -83.5019      44 -83.4418      45 -83.6219
      46 -83.5814      47 -83.5748      48 -83.5392      49 -83.6892      50 -83.5829
      51 -83.7201      52 -83.5473      53 -83.5320      54 -83.5655      55 -83.4697
      56 -83.5521      57 -83.5648      58 -83.5635      59 -83.5258      60 -83.4038
      61 -83.7413      62 -83.6400      63 -83.6326      64 -83.5701      65 -83.4841
      66 -83.4903      67 -83.4249      68 -83.3875      69 -83.3019      70 -83.4705
      71 -83.3598      72 -83.3334      73 -83.4404      74 -83.3878      75 -83.3351
      76 -83.3585      77 -83.3931      78 -83.5400      79 -83.5056      80 -83.5541
      81 -83.6200      82 -83.6263      83 -83.5659      84 -83.5840      85 -83.5383
      86 -83.4825      87 -83.4081      88 -83.5204      89 -83.4771      90 -83.4466
      91 -83.4612      92 -83.4767      93 -83.6696      94 -83.6100      95 -83.6692
      96 -83.5239      97 -83.5477      98 -83.5046      99 -83.5007     100 -83.5574
     101 -83.4574     102 -83.4589     103 -83.4956     104 -83.4880     105 -83.4267
     106 -83.5119     107 -83.4621     108 -83.3806     109 -83.6432     110 -83.6481
     111 -83.5448     112 -83.5073     113 -83.5532     114 -83.7578     115 -83.5767
     116 -83.6305     117 -83.4741     118 -83.6061     119 -83.4583     120 -83.5859
     121 -83.6156     122 -83.5361     123 -83.4071     124 -83.4749     125 -83.7050
     126 -83.5886     127 -83.7062     128 -83.7171
 
 
 
 E-fermi :   5.9769     XC(G=0):  -9.3323     alpha+bet :-11.7321


 k-point     1 :       0.0000    0.0000    0.0000
  band No.  band energies     occupation 
      1      -6.2973      2.00000
      2      -5.6857      2.00000
      3      -5.6464      2.00000
      4      -5.6234      2.00000
      5      -5.5647      2.00000
      6      -5.4947      2.00000
      7      -5.4671      2.00000
      8      -5.4275      2.00000
      9      -5.3579      2.00000
     10      -5.3376      2.00000
     11      -5.3001      2.00000
     12      -5.2506      2.00000
     13      -5.1964      2.00000
     14      -5.1195      2.00000
     15      -5.0449      2.00000
     16      -4.5413      2.00000
     17      -4.4638      2.00000
     18      -4.4066      2.00000
     19      -4.3826      2.00000
     20      -4.3615      2.00000
     21      -4.3130      2.00000
     22      -4.3002      2.00000
     23      -4.2788      2.00000
     24      -4.2177      2.00000
     25      -4.1861      2.00000
     26      -4.1767      2.00000
     27      -4.1197      2.00000
     28      -4.0337      2.00000
     29      -4.0228      2.00000
     30      -3.9828      2.00000
     31      -3.9610      2.00000
     32      -3.8565      2.00000
     33      -3.8370      2.00000
     34      -3.8125      2.00000
     35      -3.7719      2.00000
     36      -3.7396      2.00000
     37      -3.7031      2.00000
     38      -3.6782      2.00000
     39      -3.6750      2.00000
     40      -3.6596      2.00000
     41      -3.6171      2.00000
     42      -3.5850      2.00000
     43      -3.5800      2.00000
     44      -3.5607      2.00000
     45      -3.5214      2.00000
[...]
   0.481E+01 -.225E+01 -.619E+01   -.444E+01 0.145E+01 0.565E+01   -.145E+01 -.852E-01 0.142E+01   0.209E-06 0.434E-07 -.246E-06
   -.121E+01 0.629E+01 -.540E+01   0.119E+01 -.634E+01 0.547E+01   -.238E+00 -.859E-01 0.140E+01   0.824E-06 0.772E-06 -.291E-06
   0.734E+01 0.822E+01 -.154E+01   -.668E+01 -.784E+01 0.142E+01   -.167E+01 -.241E+01 0.189E+00   0.222E-05 0.309E-06 -.842E-06
   -.335E+01 0.444E+01 -.706E+01   0.246E+01 -.505E+01 0.723E+01   0.199E+01 -.458E+00 0.932E+00   0.316E-05 0.228E-05 -.184E-05
   -.455E+01 0.137E+02 -.905E+01   0.426E+01 -.124E+02 0.874E+01   -.342E+00 -.383E+01 0.154E+01   0.681E-06 -.777E-06 0.959E-06
   0.109E+00 0.178E+01 0.212E+01   0.168E+00 -.146E+01 -.226E+01   -.797E+00 -.765E+00 0.217E+00   -.123E-05 0.614E-06 -.139E-05
   -.799E-01 -.359E+01 -.110E+01   0.159E+00 0.258E+01 0.119E+01   -.934E+00 0.117E+01 -.323E+00   -.112E-05 0.157E-05 -.418E-06
   -.928E+01 -.924E+01 -.118E+02   0.856E+01 0.846E+01 0.111E+02   0.326E+01 0.200E+01 0.292E+01   0.371E-06 -.240E-06 -.110E-05
   -.540E+01 -.100E+01 -.412E+01   0.569E+01 0.857E+00 0.240E+01   0.534E+00 0.912E+00 0.343E+01   -.539E-06 0.975E-06 0.165E-05
   0.307E+01 0.526E+01 0.407E+01   -.298E+01 -.473E+01 -.438E+01   -.676E+00 -.447E+00 -.337E+00   -.405E-06 0.123E-05 0.680E-08
   0.105E+02 -.349E+01 -.995E+01   -.993E+01 0.319E+01 0.957E+01   -.213E+01 -.129E+00 0.181E+01   0.273E-05 0.210E-05 -.317E-05
   0.704E+01 -.690E+00 0.119E+02   -.690E+01 0.664E+00 -.114E+02   -.429E+00 0.104E+01 -.194E+01   0.860E-06 0.250E-05 -.480E-06
   0.148E+01 -.118E+02 -.416E+01   -.182E+01 0.108E+02 0.328E+01   -.138E+00 0.296E+01 0.172E+01   0.625E-06 -.136E-05 0.290E-06
   0.174E+01 -.669E+01 0.318E+01   -.142E+01 0.615E+01 -.230E+01   -.197E+01 0.288E+01 -.128E+01   0.153E-05 0.120E-05 0.185E-05
   0.109E+02 0.373E+01 0.371E+01   -.103E+02 -.283E+01 -.376E+01   -.151E+01 -.114E+01 -.138E+01   0.320E-05 -.132E-05 -.130E-06
   0.306E+01 -.270E+01 -.139E+01   -.305E+01 0.236E+01 0.719E+00   -.220E+01 0.756E+00 0.381E+00   0.232E-05 -.194E-05 0.245E-05
   0.653E+01 -.566E+01 0.287E+01   -.585E+01 0.529E+01 -.256E+01   -.165E+01 0.143E+01 -.790E+00   0.714E-06 -.106E-05 -.752E-06
   -.614E+01 -.360E+01 0.124E+02   0.603E+01 0.274E+01 -.106E+02   -.285E+00 0.161E+01 -.448E+01   -.122E-05 0.326E-06 -.117E-05
   -.244E+01 0.839E+01 0.660E+00   0.260E+01 -.817E+01 -.368E+00   0.246E+00 -.149E+01 -.447E+00   -.174E-05 0.237E-05 0.681E-06
   -.694E+01 -.895E+01 -.103E+02   0.611E+01 0.793E+01 0.987E+01   0.182E+01 0.257E+01 0.175E+01   -.127E-05 -.302E-05 -.305E-05
   -.108E+02 0.481E+01 0.369E+01   0.105E+02 -.409E+01 -.322E+01   0.112E+01 -.981E+00 -.752E+00   -.159E-05 0.619E-06 0.174E-05
   -.379E+01 0.678E+01 0.163E+01   0.302E+01 -.647E+01 -.193E+01   0.120E+01 -.158E+01 0.678E-02   0.203E-06 0.247E-05 -.534E-06
   0.231E+01 -.506E+01 0.401E+01   -.268E+01 0.544E+01 -.305E+01   -.204E+00 0.133E+00 -.255E+01   0.134E-05 -.173E-05 -.580E-06
   0.726E+01 0.516E+01 -.149E+01   -.654E+01 -.459E+01 0.204E+01   -.139E+01 -.122E+01 0.933E+00   -.278E-06 0.156E-06 0.180E-06
   0.805E+01 0.523E+01 0.370E+01   -.747E+01 -.485E+01 -.358E+01   -.148E+01 -.196E+01 -.347E+00   -.451E-06 0.136E-06 -.141E-05
   0.238E+01 0.156E+02 0.424E+01   -.214E+01 -.135E+02 -.466E+01   -.400E+00 -.467E+01 0.762E+00   -.162E-05 0.125E-05 0.341E-05
   -.428E+00 -.111E+02 -.971E+01   0.353E+00 0.108E+02 0.914E+01   0.910E+00 0.228E+01 0.225E+01   -.231E-06 -.251E-05 -.183E-05
   -.121E+01 -.347E+01 0.511E+01   0.345E+00 0.299E+01 -.559E+01   0.101E+01 0.938E+00 0.491E+00   0.106E-05 0.879E-06 0.689E-06
   0.690E+01 -.272E+01 -.364E+01   -.640E+01 0.182E+01 0.351E+01   -.169E+01 0.538E-02 0.496E+00   0.110E-05 0.147E-06 -.191E-05
   -.229E+01 -.718E+01 -.246E+01   0.161E+01 0.620E+01 0.286E+01   0.618E+00 0.394E+01 -.380E-01   0.130E-06 0.939E-06 0.393E-06
   0.213E+01 -.480E+01 0.668E+01   -.203E+01 0.445E+01 -.626E+01   -.863E+00 0.320E+00 -.145E+01   0.458E-06 -.912E-06 0.128E-05
   0.547E+01 0.400E+01 -.157E+01   -.507E+01 -.315E+01 0.802E+00   -.200E+01 -.224E+01 0.820E+00   -.888E-06 -.185E-05 -.580E-06
   0.120E+01 0.437E+01 0.232E+01   -.115E+01 -.431E+01 -.216E+01   0.156E-01 -.388E+00 -.884E-01   0.910E-07 0.751E-06 0.890E-06
   -.968E+01 0.143E+01 -.291E+00   0.900E+01 -.179E+01 0.314E+00   0.261E+01 0.286E+00 0.256E+00   -.228E-06 0.671E-06 -.289E-06
   -.770E+01 -.142E+01 0.619E+01   0.661E+01 0.156E+01 -.533E+01   0.219E+01 -.651E+00 -.203E+01   -.314E-06 -.106E-05 -.549E-06
   -.435E+01 0.289E+00 -.150E+02   0.435E+01 -.481E+00 0.140E+02   0.753E+00 0.115E+01 0.301E+01   0.103E-05 -.824E-06 -.285E-06
   -.514E+01 0.109E+02 -.699E+01   0.534E+01 -.110E+02 0.676E+01   0.375E+00 -.667E+00 0.497E+00   -.576E-06 0.138E-05 0.155E-05
   -.188E+02 0.915E+00 0.434E+01   0.171E+02 -.528E+00 -.424E+01   0.522E+01 -.898E-01 -.974E-01   -.145E-05 0.315E-07 -.574E-06
   0.780E+00 -.756E+01 -.952E+01   -.739E+00 0.699E+01 0.857E+01   0.178E+01 0.171E+01 0.219E+01   0.864E-07 -.911E-06 -.512E-06
   0.292E+00 0.464E+01 0.330E+01   -.506E-01 -.408E+01 -.332E+01   -.414E+00 -.105E+01 0.646E+00   0.101E-06 0.320E-06 0.110E-05
   0.610E+01 -.107E+02 -.621E+01   -.543E+01 0.962E+01 0.493E+01   -.125E+01 0.145E+01 0.247E+01   0.747E-07 0.308E-06 -.931E-07
   0.287E+01 -.148E+02 0.900E+01   -.292E+01 0.142E+02 -.841E+01   -.138E+01 0.250E+01 -.278E+01   -.832E-06 -.596E-06 0.882E-06
   0.243E+01 -.386E+01 -.143E+00   -.234E+01 0.364E+01 -.686E-01   -.529E+00 0.911E+00 0.620E+00   0.327E-07 0.222E-07 0.969E-06
   -.138E+02 0.776E+00 -.474E+01   0.125E+02 -.977E+00 0.347E+01   0.293E+01 -.605E+00 0.245E+01   -.192E-05 -.174E-06 0.605E-06
   0.482E+01 -.493E+01 0.438E+01   -.365E+01 0.430E+01 -.385E+01   -.267E+01 0.162E+01 -.309E+00   0.470E-06 0.102E-05 -.111E-05
   0.598E+01 0.465E+01 -.521E+01   -.553E+01 -.348E+01 0.493E+01   -.112E+01 -.185E+01 0.218E+01   -.819E-06 -.218E-05 0.145E-05
   0.401E+01 -.470E+01 -.816E+00   -.384E+01 0.452E+01 0.483E+00   -.492E+00 0.484E+00 0.116E+01   -.809E-07 -.112E-05 0.181E-06
   0.194E+01 -.627E+01 0.112E+02   -.109E+01 0.591E+01 -.105E+02   -.193E+01 0.159E+01 -.229E+01   -.130E-05 -.283E-06 -.507E-06
   -.857E+01 0.221E+00 0.668E+01   0.794E+01 0.307E-01 -.671E+01   0.236E+01 -.253E+00 -.165E+01   -.644E-06 0.145E-06 0.191E-05
   -.679E+01 0.499E+01 -.344E+01   0.671E+01 -.431E+01 0.312E+01   0.208E+01 -.638E+00 0.800E+00   -.363E-06 -.137E-05 0.323E-06
   0.151E+00 -.811E+01 -.154E+02   0.998E-01 0.787E+01 0.139E+02   -.185E+00 0.670E+00 0.326E+01   -.326E-06 -.233E-05 0.709E-06
   -.910E+01 0.109E+02 0.693E+01   0.867E+01 -.100E+02 -.580E+01   0.252E+01 -.232E+01 -.201E+01   0.712E-06 -.416E-06 0.109E-05
   -.871E+01 0.693E+01 -.560E+01   0.845E+01 -.647E+01 0.511E+01   0.323E+01 -.126E+01 0.911E+00   -.878E-06 0.537E-06 0.107E-05
 -----------------------------------------------------------------------------------------------
   -.621E+00 -.169E+00 -.478E+00   0.147E-12 0.105E-12 0.977E-13   0.621E+00 0.169E+00 0.478E+00   0.102E-05 0.144E-06 0.120E-05
 
 
 POSITION                                       TOTAL-FORCE (eV/Angst)
 -----------------------------------------------------------------------------------
     10.93659      0.07279     11.00490        -0.199530     -0.475232      0.024152
     21.75333     13.62919     13.73805        -0.391925      0.071540     -0.428750
     21.81094     16.42402     16.41179         1.047683      0.947245     -1.209820
     10.93686     18.94846      8.31430         0.284602      3.007719     -0.495816
     13.55562     21.80809     13.55689         1.081008      0.551272      1.419570
      2.75699      2.73899      5.31137         0.070298      0.286011      1.467699
     13.46879     16.27851      8.11709         2.351696      1.281161      0.137700
     13.51749     19.23274     10.98061         2.119114     -1.787551      0.793721
     16.26964     10.83743      5.55631         1.975150      1.745721     -1.790843
     16.38569     13.66367      8.21424         1.009191     -0.132128     -0.717932
     16.43208     16.22113     10.84592        -0.356175      1.767001      1.023813
      5.44593      8.31614     13.62950        -0.437096     -0.983448      1.671236
     19.09404     10.91143      8.23500        -0.240951      0.196844     -0.748654
      8.20210      2.71003     10.89144         1.007714      1.023501     -0.285534
      8.26023      5.46683     13.66275        -1.251813     -0.001240      0.170427
     19.10075     19.09546     16.40520        -0.389100      1.349396      0.471081
     13.58342      2.73752     10.92308         2.218325     -0.195143      0.631097
      2.76407      5.54803      2.89085        -0.483729     -0.276228     -1.275375
      2.69136      8.13590      5.54748        -0.218946      0.251237     -2.025319
     13.66297     11.02758     19.22493        -1.053039     -1.324556     -1.778102
      5.35731     13.60250     13.57076         2.181983      0.643887     -0.201573
      5.40621      5.53836      5.49016         1.502530     -0.446538      0.029747
      5.50032      8.16014      8.30247         0.052618      0.741664     -1.335666
      5.53496     10.98295     11.02364        -1.394702     -1.224966     -1.122655
      8.22717      2.81631      5.64472         0.280147     -0.898981     -1.738993
      8.20114      5.47896      8.07861         1.587633      0.065465      0.362612
      8.30909      8.27176     10.95826        -0.346950     -1.324624      1.550749
      8.19516     10.80151     13.62710         1.363834      0.548893      0.269733
     10.89738      2.72186      8.28693         1.687962     -0.193553      1.002586
     10.93919      5.41970     10.91888         0.788398      1.413947      0.833717
     10.93950      8.21312     13.75535        -0.078358     -1.090768     -0.319321
     10.89896     11.01256     16.38465         1.502717     -0.294878     -0.193578
     16.37068      5.51202     10.94222         0.015502      0.617735     -0.392711
     16.32814      8.20418     13.62697         0.325728      0.962875      0.913829
      5.54847     10.78556      5.39542        -1.103588      0.838259      0.290067
      5.47507     13.53592      8.30138         0.690350      1.608159     -1.008070
      8.10099      5.35674      2.76097         0.336736      1.136965      0.232084
      8.26623      8.16164      5.45347        -0.491391      0.121958     -0.484323
      8.28989     10.95667      8.21910        -0.966852     -1.211699     -0.860453
      8.22471     13.64031     10.97137         0.005605      0.442533     -0.165576
     10.99025      5.47653      5.55800        -1.344531     -1.028821     -1.872791
     10.95859      8.10292      8.20998         0.673373      0.001779      0.003451
     10.77092     10.82985     10.88187         2.034200      1.470335      0.288716
     10.82112     13.66451     13.65197         0.910917     -0.199369      0.628138
     13.75554      5.61372      8.17294        -0.213369     -2.280236      0.712502
     13.67026      8.17858     10.96049        -0.125427      0.687242      0.787547
     13.65785     10.91412     13.61683        -1.698759     -0.246681      0.116133
     13.69625     13.73205     16.32959        -0.274384     -0.640170      0.170610
      8.17542      8.23042      0.11779        -0.941046     -1.002772     -1.903108
     19.19128     10.91291     13.56851        -2.502754      0.439325      0.752640
     19.06434     13.85689     16.58997        -0.317785     -0.507739     -1.895382
      8.25374     16.43027      8.23882        -1.270111      0.620367     -1.020275
     10.89986      8.10038      2.88211         0.951583      0.790653     -2.005758
     10.88392     10.94793      5.47397        -0.427978     -0.104843     -0.046625
     10.93978     13.73180      8.22654        -0.353866     -1.714299     -1.347642
     10.89521     16.26640     10.95365         0.302553      1.732386      0.119592
     13.53617      8.23189      5.36094         0.776473     -1.476483      2.525973
     13.69228     10.87794      8.27618        -0.247537     -0.217318     -0.959232
     13.55724     13.59921     10.91086         0.944533      1.115853     -0.883065
     13.71076     16.41759     13.62793         0.247255     -0.712811      0.321222
     16.54278     19.25713     19.16012        -2.794582     -0.353089     -0.263416
     16.50272     11.09614     10.92104        -1.891104     -0.845886      0.147460
     16.21515     13.75822     13.76781         1.924010     -1.490221     -0.091065
     16.41531     16.40780     16.35239        -2.306041      0.938504      1.077814
      1.39227      1.54323      1.42832        -1.264867     -1.563585      0.133652
      1.34319      4.01080      3.97213        -0.363824      1.165853      1.350721
      1.38544      6.93065      6.87050        -1.257251     -2.125952      0.011448
      1.45332      9.60186      9.69095        -2.351398      0.956253     -1.716017
      4.24426      1.48652      4.14916        -1.577792     -2.417570     -0.429639
      4.21369      4.09180      6.80758        -2.052649     -0.131043      0.184483
      4.06871      6.94907      9.63847        -0.728460     -1.950878     -0.095402
      4.08028      9.52285     12.27152        -0.264371      0.972434     -0.200292
      6.85841      1.35065      6.73072        -0.988310     -0.585321      1.615547
      6.93363      4.12145      9.43231        -0.546487     -0.690671      0.525846
      6.77864      6.83503     12.49073         0.455644     -0.424945     -2.334254
      6.85788      9.63111     15.01839        -1.080317     -0.889321      0.869538
      9.56328      1.31514      9.47551        -0.253649     -0.139963      1.466873
      9.65121      4.22843     12.31054        -1.014823     -2.037492      0.071012
      9.43113      6.92936     14.95642         1.098122     -1.066655      1.104632
      9.58706      9.74442     17.70781        -0.633249     -2.539742      1.230233
      4.07386      4.19400      1.36337        -0.519459     -0.445236      0.080343
      4.16352      6.89397      4.17749        -0.855000      0.168608     -0.238278
      3.88444      9.56515      6.70757         2.531685      1.217283      2.247064
      4.06806     12.24286      9.55497         0.825644      0.769893      1.714268
      6.79677      4.02875      4.20525        -0.591574      0.089054     -0.645828
      6.93735      6.87438      6.71146        -1.590512     -0.433215      1.426844
      6.88657      9.53289      9.72132        -0.290230      1.010329     -1.495747
      6.95108     12.15278     12.27206        -0.482383      1.943193      0.839225
      9.77694      3.95376      6.88151        -1.652009      2.331428     -0.402897
      9.62955      6.83561      9.67903        -0.949389     -0.240672     -1.434318
      9.76858      9.49686     12.36860        -2.190074      0.411320     -0.291081
      9.52230     12.23770     15.05750        -0.961381      1.064459     -0.486026
     12.34299      4.10411      9.72940        -0.392343      0.744649     -2.652496
     12.27632      6.91917     12.37110         0.398157     -1.280529     -0.154875
     12.26043      9.46931     15.01425         0.997543      1.543371      1.275091
     12.24272     12.40428     17.80258         0.830086     -0.254108     -0.284801
      6.75520      6.90203      1.42115         0.435154     -1.263753     -0.297712
      6.93593      9.46107      4.13697        -0.578929      0.506409     -1.588432
      6.87243     12.28666      6.73464        -0.670000     -0.639323      1.481998
      6.92648     15.16364      9.64488        -0.894171     -1.586769     -0.229240
      9.52630      6.88534      4.11071        -0.159023     -2.614068      0.346527
      9.58704      9.37520      6.75380         0.834026      2.037283      1.679569
      9.56496     12.31062      9.55014         0.141830      0.455569      0.010044
      9.58082     15.06921     12.31960        -1.184536     -0.898628      0.366711
     12.33753      6.64102      6.82115        -0.062540      2.955153      0.363040
     12.32681      9.53907      9.67102        -0.756272     -0.034274     -1.029943
     12.31056     12.36719     12.30553        -1.606560     -1.385288      0.048951
     12.25715     15.08881     14.96855         0.061328     -0.328410      0.072429
     14.95544      6.95655      9.52778         1.930969     -0.073627      0.279369
     14.99031      9.65708     12.31389         1.106419     -0.509246     -1.173481
     15.00680     12.14261     14.90488         0.751961      0.953783      2.066533
     15.05269     15.06471     17.78464         0.574622     -0.710413      0.266358
      9.40561      9.49818      1.42212         3.525550      0.297508     -0.001842
      9.27512     12.26680      4.10343         1.824540      1.137503      1.234038
      9.61805     15.13606      6.86123        -0.172436     -0.479594      0.622384
      9.57353     17.69790      9.61555        -0.580746      0.387039      1.182116
     12.26906      9.52469      4.19539        -1.431725      1.896298     -2.188497
     12.38594     12.25273      6.79246        -0.439473      0.685128      0.409097
     12.13119     15.08221      9.49893         1.618376     -0.805042      1.171989
     12.37475     17.64338     12.26310        -1.504569      0.981299      0.219130
     14.97351      9.50831      6.73819        -0.664887     -0.677209      1.902001
     15.04350     12.29690      9.50072        -0.319765      0.303729      0.829311
     15.04152     14.91839     12.31367        -1.070952      1.227377     -1.552798
     14.87095     17.78165     15.15041         1.738589     -0.001848     -1.684130
     17.67184      9.62560      9.62936         1.998127      0.050192      0.485959
     17.77217     12.39634     12.24098         0.066120      0.433306      1.796294
     17.63966     15.16000     15.05339         2.095198     -1.402616     -0.880037
     17.49968     17.86632     17.70427         2.970694     -0.803861      0.427399
 -----------------------------------------------------------------------------------
    total drift:                                0.000007      0.000014      0.000005


--------------------------------------------------------------------------------------------------------



  FREE ENERGIE OF THE ION-ELECTRON SYSTEM (eV)
  ---------------------------------------------------
  free  energy   TOTEN  =      -679.48185975 eV

  energy  without entropy=     -679.48185975  energy(sigma->0) =     -679.48185975
 


--------------------------------------------------------------------------------------------------------


    POTLOK:  cpu time    0.9988: real time    0.9988


--------------------------------------------------------------------------------------------------------


     LOOP+:  cpu time 1735.3442: real time 1735.7473
    4ORBIT:  cpu time    0.0000: real time    0.0000

 total amount of memory used by VASP MPI-rank0   221701. kBytes
=======================================================================

   base      :      30000. kBytes
   nonl-proj :      10690. kBytes
   fftplans  :      66746. kBytes
   grid      :      26864. kBytes
   one-center:         24. kBytes
   wavefun   :      87377. kBytes
 
  
  
 General timing and accounting informations for this job:
 ========================================================
  
                  Total CPU time used (sec):     1759.328
                            User time (sec):     1758.020
                          System time (sec):        1.308
                         Elapsed time (sec):     1760.755
  
                   Maximum memory used (kb):      338316.
                   Average memory used (kb):           0.
  
                          Minor page faults:       129090
                          Major page faults:            0
                 Voluntary context switches:         1391
