<?xml version="1.0" encoding="ISO-8859-1"?>
<modeling>
 <generator>
  <i name="program" type="string">vasp </i>
  <i name="version" type="string">5.4.4.18Apr17-6-g9f103f2a35  </i>
  <i name="subversion" type="string">(build Nov 08 2017 09:05:29) complex            parallel </i>
  <i name="platform" type="string">Intel_17.33 </i>
  <i name="date" type="string">2020 07 18 </i>
  <i name="time" type="string">21:39:13 </i>
 </generator>
 <incar>
  <i type="string" name="SYSTEM">potpaw_PBE@./ARUN.APL1ZEROSTATE</i>
  <i type="string" name="PREC">accurate</i>
  <i type="string" name="ALGO">Normal</i>
  <i type="int" name="NSIM">     4</i>
  <i type="logical" name="ADDGRID"> T  </i>
  <i type="int" name="NELM">   120</i>
  <i type="int" name="NELMIN">     4</i>
  <i name="EDIFF">      0.00000001</i>
  <i type="int" name="NSW">     0</i>
  <i type="int" name="ISYM">     2</i>
  <i name="ENMAX">    500.00000000</i>
  <i type="logical" name="LREAL"> F  </i>
  <i type="logical" name="LPLANE"> T  </i>
  <i type="int" name="ISMEAR">     0</i>
  <i name="SIGMA">      0.01000000</i>
  <i type="logical" name="LWAVE"> F  </i>
  <i type="logical" name="LCHARG"> F  </i>
  <i type="logical" name="LELF"> F  </i>
  <i type="logical" name="LAECHG"> F  </i>
  <v type="int" name="KPOINT_BSE">    -1     0     0     0</v>
  <i type="int" name="NELM">   120</i>
 </incar>
 <structure name="primitive_cell" >
  <crystal>
   <varray name="basis" >
    <v>       0.00000000      10.93733369      10.93733369 </v>
    <v>      10.93733369       0.00000000      10.93733369 </v>
    <v>      10.93733369      10.93733369       0.00000000 </v>
   </varray>
   <i name="volume">   2616.76295363 </i>
   <varray name="rec_basis" >
    <v>      -0.04571498       0.04571498       0.04571498 </v>
    <v>       0.04571498      -0.04571498       0.04571498 </v>
    <v>       0.04571498       0.04571498      -0.04571498 </v>
   </varray>
  </crystal>
  <varray name="positions" >
   <v>       0.00645043      -0.00027324       0.00020504 </v>
   <v>       0.05610936      -0.18976355       0.06413397 </v>
   <v>      -0.18446800       0.07051102       0.06236596 </v>
   <v>       0.07219643       0.05839454       0.06890111 </v>
   <v>       0.06924440       0.06078011      -0.20082582 </v>
   <v>      -0.00298568       0.24249159      -0.00310133 </v>
   <v>       0.24183852      -0.00127044      -0.24407198 </v>
   <v>      -0.23674934       0.24070569      -0.00480232 </v>
   <v>       0.00352845      -0.00483169       0.24676290 </v>
   <v>       0.25663966      -0.00057052      -0.01052350 </v>
   <v>       0.00509300      -0.24741926       0.24376622 </v>
   <v>       0.24683186      -0.25102764       0.00094579 </v>
   <v>      -0.24160978      -0.00065553       0.24986068 </v>
   <v>       0.00789879       0.00287029      -0.25539165 </v>
   <v>       0.00239541      -0.24946942      -0.00476342 </v>
   <v>      -0.25366177       0.01383781      -0.01388111 </v>
   <v>       0.00377755       0.25973408      -0.26316039 </v>
   <v>       0.06813908      -0.17858075       0.30709958 </v>
   <v>      -0.18948370       0.06309418       0.30884800 </v>
   <v>       0.31384055      -0.19464811      -0.18044334 </v>
   <v>      -0.19020101       0.31218567       0.06087447 </v>
   <v>       0.31487375      -0.18932186       0.07173156 </v>
   <v>       0.32435262       0.05082409      -0.20279981 </v>
   <v>      -0.17876968      -0.19354136       0.31289234 </v>
   <v>       0.06633318       0.31725085      -0.19549075 </v>
   <v>      -0.18329392      -0.19768125       0.07422619 </v>
   <v>       0.07237230      -0.19196049      -0.19230427 </v>
   <v>      -0.18902014       0.06816987      -0.19286196 </v>
   <v>      -0.19853724       0.31975205      -0.18832925 </v>
   <v>       0.24683272      -0.24851998       0.24869006 </v>
   <v>       0.25209337      -0.25358305      -0.23757380 </v>
   <v>       0.25316875       0.24731571      -0.25219974 </v>
   <v>      -0.24699970       0.25489049       0.25117051 </v>
   <v>      -0.24578278      -0.25616933       0.25266113 </v>
   <v>      -0.25371031       0.25520204      -0.25905358 </v>
   <v>       0.30353549       0.05963620       0.06317202 </v>
   <v>       0.04838138      -0.41920544       0.31311042 </v>
   <v>       0.30263922      -0.44024346       0.07418498 </v>
   <v>      -0.42770215       0.30894676       0.06305505 </v>
   <v>       0.30455814       0.07368472      -0.43953308 </v>
   <v>       0.06781837       0.05683427       0.31563880 </v>
   <v>       0.06718925       0.30865235      -0.43766292 </v>
   <v>      -0.43366991       0.04694282       0.30821111 </v>
   <v>      -0.43241628       0.06058540       0.06608557 </v>
   <v>       0.07168022       0.05825503      -0.44062744 </v>
   <v>       0.05590742      -0.44051834       0.06758259 </v>
   <v>       0.06360903       0.31574840       0.07230371 </v>
   <v>      -0.00268383       0.24345813       0.24636022 </v>
   <v>       0.24198617       0.24363236       0.00843925 </v>
   <v>       0.00259026       0.48756056      -0.24994931 </v>
   <v>       0.49689215      -0.24770751       0.00293974 </v>
   <v>      -0.00000892      -0.24818192      -0.23931200 </v>
   <v>       0.01069056      -0.49459434       0.24680443 </v>
   <v>      -0.25200127       0.01099584       0.48958997 </v>
   <v>      -0.24571563       0.49186057       0.00606035 </v>
   <v>       0.24452384       0.25408680      -0.49830578 </v>
   <v>       0.25107692       0.49995054      -0.00180776 </v>
   <v>      -0.25325677       0.49925791      -0.24568346 </v>
   <v>       0.24486916       0.49375811       0.25607189 </v>
   <v>      -0.24957257       0.00284742      -0.24820829 </v>
   <v>      -0.49750051       0.00470608       0.24136522 </v>
   <v>       0.25157014      -0.00565718       0.49853795 </v>
   <v>       0.25942380       0.00488641       0.24783206 </v>
   <v>      -0.49885917       0.25795344       0.24494035 </v>
   <v>      -0.25027836      -0.24979503      -0.00382448 </v>
   <v>      -0.25185620      -0.25513017      -0.49262263 </v>
   <v>       0.00142249      -0.25417127      -0.48816020 </v>
   <v>       0.49951899       0.24262643      -0.01117579 </v>
   <v>      -0.47964807      -0.00353179      -0.25341665 </v>
   <v>      -0.48292366      -0.25828633      -0.25916294 </v>
   <v>       0.00076453       0.25167095       0.48900239 </v>
   <v>       0.30442800       0.31660667      -0.18416110 </v>
   <v>       0.29906525       0.31843408      -0.44189119 </v>
   <v>       0.31475183      -0.42979813       0.31022730 </v>
   <v>      -0.17433665      -0.44046228      -0.19988777 </v>
   <v>       0.32064272      -0.18955323       0.31197668 </v>
   <v>       0.30876483      -0.44011403      -0.18445937 </v>
   <v>      -0.18642614      -0.18752469      -0.43620844 </v>
   <v>      -0.43085063       0.29933759      -0.19018338 </v>
   <v>      -0.18590795       0.31228814      -0.43631439 </v>
   <v>      -0.18751206      -0.43578147       0.30640482 </v>
   <v>       0.31912050      -0.19326229      -0.43617404 </v>
   <v>      -0.20118774       0.32322131       0.31231553 </v>
   <v>      -0.43461380       0.32343340       0.30620550 </v>
   <v>      -0.42519272      -0.19847679      -0.18872939 </v>
   <v>      -0.44121968      -0.18602767       0.30699802 </v>
   <v>      -0.17388849      -0.20741055      -0.19259431 </v>
   <v>       0.48617754      -0.49453537      -0.00308010 </v>
   <v>       0.48606514       0.00723785      -0.49994142 </v>
   <v>      -0.49599814      -0.00347247      -0.00235435 </v>
   <v>       0.00567293      -0.49765955      -0.01480745 </v>
   <v>       0.00202425      -0.49385610       0.49869426 </v>
   <v>       0.00381951      -0.00337314      -0.49985588 </v>
   <v>      -0.44461453       0.06036285      -0.43201684 </v>
   <v>       0.05141330      -0.42775541      -0.44422497 </v>
   <v>       0.05819476      -0.44212225      -0.18885018 </v>
   <v>      -0.44955981      -0.18768742      -0.44024157 </v>
   <v>      -0.44270961      -0.43145168      -0.19330295 </v>
   <v>      -0.18252296       0.06435364      -0.43106625 </v>
   <v>      -0.18626358      -0.44516213      -0.43416733 </v>
   <v>      -0.43063579      -0.20189922       0.06418705 </v>
   <v>      -0.43408292       0.06140523      -0.18202744 </v>
   <v>      -0.18665674      -0.44021290       0.06722882 </v>
   <v>      -0.42640806      -0.43156464       0.05133502 </v>
   <v>       0.06989344      -0.19876856      -0.43385636 </v>
   <v>       0.24477215      -0.49413378       0.49607756 </v>
   <v>       0.25000649      -0.24788902       0.49776063 </v>
   <v>       0.49764804       0.25382397      -0.49587974 </v>
   <v>      -0.49581077      -0.24653779       0.24673591 </v>
   <v>      -0.49628692       0.24843885      -0.24821502 </v>
   <v>      -0.25788840      -0.49618679       0.24547013 </v>
   <v>       0.49924956      -0.49733662       0.25703671 </v>
   <v>       0.49706393      -0.25207725      -0.49918592 </v>
   <v>       0.24968804      -0.49299720      -0.25511842 </v>
   <v>      -0.25087018       0.25398179       0.49800351 </v>
   <v>      -0.24591492       0.49411439       0.49526024 </v>
   <v>      -0.49929145       0.49687101      -0.25733341 </v>
   <v>       0.30393582       0.30969308       0.32458818 </v>
   <v>       0.30563637       0.31678045       0.06847719 </v>
   <v>       0.06570309       0.31878285       0.30264555 </v>
   <v>       0.31579642       0.06615175       0.31451883 </v>
   <v>      -0.25279436      -0.25210749      -0.24704106 </v>
   <v>       0.25702340       0.24494149       0.24934834 </v>
   <v>      -0.44699176      -0.42214797       0.31528913 </v>
   <v>       0.31466860      -0.43044794      -0.44251190 </v>
   <v>      -0.43789740       0.31106663      -0.43654301 </v>
   <v>      -0.43486390      -0.44004178      -0.43440437 </v>
   <v>      -0.49984103       0.49477035       0.49001416 </v>
  </varray>
 </structure>
 <varray name="primitive_index" >
  <v type="int" >        1 </v>
  <v type="int" >       77 </v>
  <v type="int" >       68 </v>
  <v type="int" >       65 </v>
  <v type="int" >      113 </v>
  <v type="int" >        5 </v>
  <v type="int" >       50 </v>
  <v type="int" >        8 </v>
  <v type="int" >       17 </v>
  <v type="int" >        2 </v>
  <v type="int" >       29 </v>
  <v type="int" >       14 </v>
  <v type="int" >       20 </v>
  <v type="int" >       49 </v>
  <v type="int" >       13 </v>
  <v type="int" >        4 </v>
  <v type="int" >       53 </v>
  <v type="int" >       93 </v>
  <v type="int" >       84 </v>
  <v type="int" >      126 </v>
  <v type="int" >       72 </v>
  <v type="int" >       78 </v>
  <v type="int" >      114 </v>
  <v type="int" >       96 </v>
  <v type="int" >      117 </v>
  <v type="int" >       80 </v>
  <v type="int" >      125 </v>
  <v type="int" >      116 </v>
  <v type="int" >      120 </v>
  <v type="int" >       30 </v>
  <v type="int" >       62 </v>
  <v type="int" >       54 </v>
  <v type="int" >       24 </v>
  <v type="int" >       32 </v>
  <v type="int" >       56 </v>
  <v type="int" >       66 </v>
  <v type="int" >       89 </v>
  <v type="int" >       74 </v>
  <v type="int" >       71 </v>
  <v type="int" >       98 </v>
  <v type="int" >       81 </v>
  <v type="int" >      101 </v>
  <v type="int" >       83 </v>
  <v type="int" >       67 </v>
  <v type="int" >       97 </v>
  <v type="int" >       73 </v>
  <v type="int" >       69 </v>
  <v type="int" >       21 </v>
  <v type="int" >        6 </v>
  <v type="int" >       57 </v>
  <v type="int" >       15 </v>
  <v type="int" >       61 </v>
  <v type="int" >       25 </v>
  <v type="int" >       36 </v>
  <v type="int" >       12 </v>
  <v type="int" >       38 </v>
  <v type="int" >       10 </v>
  <v type="int" >       60 </v>
  <v type="int" >       26 </v>
  <v type="int" >       52 </v>
  <v type="int" >       19 </v>
  <v type="int" >       34 </v>
  <v type="int" >       18 </v>
  <v type="int" >       23 </v>
  <v type="int" >       16 </v>
  <v type="int" >       48 </v>
  <v type="int" >       45 </v>
  <v type="int" >        7 </v>
  <v type="int" >       51 </v>
  <v type="int" >       63 </v>
  <v type="int" >       37 </v>
  <v type="int" >      118 </v>
  <v type="int" >      102 </v>
  <v type="int" >       90 </v>
  <v type="int" >      124 </v>
  <v type="int" >       94 </v>
  <v type="int" >      122 </v>
  <v type="int" >      112 </v>
  <v type="int" >      119 </v>
  <v type="int" >      104 </v>
  <v type="int" >       92 </v>
  <v type="int" >      110 </v>
  <v type="int" >       88 </v>
  <v type="int" >       87 </v>
  <v type="int" >      127 </v>
  <v type="int" >       95 </v>
  <v type="int" >      128 </v>
  <v type="int" >       11 </v>
  <v type="int" >       35 </v>
  <v type="int" >        3 </v>
  <v type="int" >        9 </v>
  <v type="int" >       41 </v>
  <v type="int" >       33 </v>
  <v type="int" >       99 </v>
  <v type="int" >      105 </v>
  <v type="int" >      121 </v>
  <v type="int" >      111 </v>
  <v type="int" >      123 </v>
  <v type="int" >      100 </v>
  <v type="int" >      108 </v>
  <v type="int" >       79 </v>
  <v type="int" >      115 </v>
  <v type="int" >       76 </v>
  <v type="int" >       75 </v>
  <v type="int" >      109 </v>
  <v type="int" >       42 </v>
  <v type="int" >       46 </v>
  <v type="int" >       39 </v>
  <v type="int" >       31 </v>
  <v type="int" >       55 </v>
  <v type="int" >       28 </v>
  <v type="int" >       27 </v>
  <v type="int" >       47 </v>
  <v type="int" >       58 </v>
  <v type="int" >       40 </v>
  <v type="int" >       44 </v>
  <v type="int" >       59 </v>
  <v type="int" >       86 </v>
  <v type="int" >       70 </v>
  <v type="int" >       85 </v>
  <v type="int" >       82 </v>
  <v type="int" >       64 </v>
  <v type="int" >       22 </v>
  <v type="int" >       91 </v>
  <v type="int" >      106 </v>
  <v type="int" >      103 </v>
  <v type="int" >      107 </v>
  <v type="int" >       43 </v>
 </varray>
 <kpoints>
  <generation param="Gamma">
   <v type="int" name="divisions">       2        2        2 </v>
   <v name="usershift">      0.00000000       0.00000000       0.00000000 </v>
   <v name="genvec1">      0.50000000       0.00000000       0.00000000 </v>
   <v name="genvec2">      0.00000000       0.50000000       0.00000000 </v>
   <v name="genvec3">      0.00000000       0.00000000       0.50000000 </v>
   <v name="shift">      0.00000000       0.00000000       0.00000000 </v>
  </generation>
  <varray name="kpointlist" >
   <v>       0.00000000       0.00000000       0.00000000 </v>
   <v>       0.50000000       0.00000000       0.00000000 </v>
   <v>       0.00000000       0.50000000       0.00000000 </v>
   <v>       0.50000000       0.50000000       0.00000000 </v>
   <v>       0.00000000       0.00000000       0.50000000 </v>
   <v>       0.50000000       0.00000000       0.50000000 </v>
   <v>       0.00000000       0.50000000       0.50000000 </v>
   <v>       0.50000000       0.50000000       0.50000000 </v>
  </varray>
  <varray name="weights" >
   <v>       0.12500000 </v>
   <v>       0.12500000 </v>
   <v>       0.12500000 </v>
   <v>       0.12500000 </v>
   <v>       0.12500000 </v>
   <v>       0.12500000 </v>
   <v>       0.12500000 </v>
   <v>       0.12500000 </v>
  </varray>
 </kpoints>
 <parameters>
  <separator name="general" >
   <i type="string" name="SYSTEM">potpaw_PBE@./ARUN.APL1ZEROSTATE</i>
   <i type="logical" name="LCOMPAT"> F  </i>
  </separator>
  <separator name="electronic" >
   <i type="string" name="PREC">accura</i>
   <i name="ENMAX">    500.00000000</i>
   <i name="ENAUG">    322.06900000</i>
   <i name="EDIFF">      0.00000001</i>
   <i type="int" name="IALGO">    38</i>
   <i type="int" name="IWAVPR">    10</i>
   <i type="int" name="NBANDS">   322</i>
   <i name="NELECT">    512.00000000</i>
   <i type="int" name="TURBO">     0</i>
   <i type="int" name="IRESTART">     0</i>
   <i type="int" name="NREBOOT">     0</i>
   <i type="int" name="NMIN">     0</i>
   <i name="EREF">      0.00000000</i>
   <separator name="electronic smearing" >
    <i type="int" name="ISMEAR">     0</i>
    <i name="SIGMA">      0.01000000</i>
    <i name="KSPACING">      0.50000000</i>
    <i type="logical" name="KGAMMA"> T  </i>
   </separator>
   <separator name="electronic projectors" >
    <i type="logical" name="LREAL"> F  </i>
    <v name="ROPT">      0.00000000</v>
    <i type="int" name="LMAXPAW">  -100</i>
    <i type="int" name="LMAXMIX">     2</i>
    <i type="logical" name="NLSPLINE"> F  </i>
   </separator>
   <separator name="electronic startup" >
    <i type="int" name="ISTART">     0</i>
    <i type="int" name="ICHARG">     2</i>
    <i type="int" name="INIWAV">     1</i>
   </separator>
   <separator name="electronic spin" >
    <i type="int" name="ISPIN">     1</i>
    <i type="logical" name="LNONCOLLINEAR"> F  </i>
    <v name="MAGMOM">      1.00000000      1.00000000      1.00000000      1.00000000      1.00000000      1.00000000      1.00000000      1.00000000      1.00000000      1.00000000      1.00000000      1.00000000      1.00000000      1.00000000      1.00000000      1.00000000      1.00000000      1.00000000      1.00000000      1.00000000
      1.00000000      1.00000000      1.00000000      1.00000000      1.00000000      1.00000000      1.00000000      1.00000000      1.00000000      1.00000000      1.00000000      1.00000000      1.00000000      1.00000000      1.00000000      1.00000000      1.00000000      1.00000000      1.00000000      1.00000000
      1.00000000      1.00000000      1.00000000      1.00000000      1.00000000      1.00000000      1.00000000      1.00000000      1.00000000      1.00000000      1.00000000      1.00000000      1.00000000      1.00000000      1.00000000      1.00000000      1.00000000      1.00000000      1.00000000      1.00000000
      1.00000000      1.00000000      1.00000000      1.00000000      1.00000000      1.00000000      1.00000000      1.00000000      1.00000000      1.00000000      1.00000000      1.00000000      1.00000000      1.00000000      1.00000000      1.00000000      1.00000000      1.00000000      1.00000000      1.00000000
      1.00000000      1.00000000      1.00000000      1.00000000      1.00000000      1.00000000      1.00000000      1.00000000      1.00000000      1.00000000      1.00000000      1.00000000      1.00000000      1.00000000      1.00000000      1.00000000      1.00000000      1.00000000      1.00000000      1.00000000
      1.00000000      1.00000000      1.00000000      1.00000000      1.00000000      1.00000000      1.00000000      1.00000000      1.00000000      1.00000000      1.00000000      1.00000000      1.00000000      1.00000000      1.00000000      1.00000000      1.00000000      1.00000000      1.00000000      1.00000000
      1.00000000      1.00000000      1.00000000      1.00000000      1.00000000      1.00000000      1.00000000      1.00000000</v>
    <i name="NUPDOWN">     -1.00000000</i>
    <i type="logical" name="LSORBIT"> F  </i>
    <v name="SAXIS">      0.00000000      0.00000000      1.00000000</v>
    <i type="logical" name="LSPIRAL"> F  </i>
    <v name="QSPIRAL">      0.00000000      0.00000000      0.00000000</v>
    <i type="logical" name="LZEROZ"> F  </i>
   </separator>
   <separator name="electronic exchange-correlation" >
    <i type="logical" name="LASPH"> F  </i>
    <i type="logical" name="LMETAGGA"> F  </i>
   </separator>
   <separator name="electronic convergence" >
    <i type="int" name="NELM">   120</i>
    <i type="int" name="NELMDL">    -5</i>
    <i type="int" name="NELMIN">     4</i>
    <i name="ENINI">    500.00000000</i>
    <separator name="electronic convergence detail" >
     <i type="logical" name="LDIAG"> T  </i>
     <i type="logical" name="LSUBROT"> F  </i>
     <i name="WEIMIN">      0.00000000</i>
     <i name="EBREAK">      0.00000000</i>
     <i name="DEPER">      0.30000000</i>
     <i type="int" name="NRMM">     4</i>
     <i name="TIME">      0.40000000</i>
    </separator>
   </separator>
   <separator name="electronic mixer" >
    <i name="AMIX">      0.40000000</i>
    <i name="BMIX">      1.00000000</i>
    <i name="AMIN">      0.10000000</i>
    <i name="AMIX_MAG">      1.60000000</i>
    <i name="BMIX_MAG">      1.00000000</i>
    <separator name="electronic mixer details" >
     <i type="int" name="IMIX">     4</i>
     <i type="logical" name="MIXFIRST"> F  </i>
     <i type="int" name="MAXMIX">   -45</i>
     <i name="WC">    100.00000000</i>
     <i type="int" name="INIMIX">     1</i>
     <i type="int" name="MIXPRE">     1</i>
     <i type="int" name="MREMOVE">     5</i>
    </separator>
   </separator>
   <separator name="electronic dipolcorrection" >
    <i type="logical" name="LDIPOL"> F  </i>
    <i type="logical" name="LMONO"> F  </i>
    <i type="int" name="IDIPOL">     0</i>
    <i name="EPSILON">      1.00000000</i>
    <v name="DIPOL">   -100.00000000   -100.00000000   -100.00000000</v>
    <i name="EFIELD">      0.00000000</i>
   </separator>
  </separator>
  <separator name="grids" >
   <i type="int" name="NGX">   120</i>
   <i type="int" name="NGY">   120</i>
   <i type="int" name="NGZ">   120</i>
   <i type="int" name="NGXF">   240</i>
   <i type="int" name="NGYF">   240</i>
   <i type="int" name="NGZF">   240</i>
   <i type="logical" name="ADDGRID"> T  </i>
  </separator>
  <separator name="ionic" >
   <i type="int" name="NSW">     0</i>
   <i type="int" name="IBRION">    -1</i>
   <i type="int" name="MDALGO">     0</i>
   <i type="int" name="ISIF">     2</i>
   <i name="PSTRESS">      0.00000000</i>
   <i name="EDIFFG">      0.00000010</i>
   <i type="int" name="NFREE">     0</i>
   <i name="POTIM">      0.50000000</i>
   <i name="SMASS">     -3.00000000</i>
   <i name="SCALEE">      1.00000000</i>
  </separator>
  <separator name="ionic md" >
   <i name="TEBEG">      0.00010000</i>
   <i name="TEEND">      0.00010000</i>
   <i type="int" name="NBLOCK">     1</i>
   <i type="int" name="KBLOCK">     1</i>
   <i type="int" name="NPACO">   256</i>
   <i name="APACO">     16.00000000</i>
  </separator>
  <separator name="symmetry" >
   <i type="int" name="ISYM">     2</i>
   <i name="SYMPREC">      0.00001000</i>
  </separator>
  <separator name="dos" >
   <i type="int" name="LORBIT">     0</i>
   <v name="RWIGS">     -1.00000000</v>
   <i type="int" name="NEDOS">   301</i>
   <i name="EMIN">     10.00000000</i>
   <i name="EMAX">    -10.00000000</i>
   <i name="EFERMI">      0.00000000</i>
  </separator>
  <separator name="writing" >
   <i type="int" name="NWRITE">     2</i>
   <i type="logical" name="LWAVE"> F  </i>
   <i type="logical" name="LDOWNSAMPLE"> F  </i>
   <i type="logical" name="LCHARG"> F  </i>
   <i type="logical" name="LPARD"> F  </i>
   <i type="logical" name="LVTOT"> F  </i>
   <i type="logical" name="LVHAR"> F  </i>
   <i type="logical" name="LELF"> F  </i>
   <i type="logical" name="LOPTICS"> F  </i>
   <v name="STM">      0.00000000      0.00000000      0.00000000      0.00000000      0.00000000      0.00000000      0.00000000</v>
  </separator>
  <separator name="performance" >
   <i type="int" name="NPAR">     2</i>
   <i type="int" name="NSIM">     4</i>
   <i type="int" name="NBLK">    -1</i>
   <i type="logical" name="LPLANE"> T  </i>
   <i type="logical" name="LSCALAPACK"> T  </i>
   <i type="logical" name="LSCAAWARE"> F  </i>
   <i type="logical" name="LSCALU"> F  </i>
   <i type="logical" name="LASYNC"> F  </i>
   <i type="logical" name="LORBITALREAL"> F  </i>
  </separator>
  <separator name="miscellaneous" >
   <i type="int" name="IDIOT">     3</i>
   <i type="int" name="ISPECIAL">     0</i>
   <i type="logical" name="LMUSIC"> F  </i>
   <v name="POMASS">     28.08500000</v>
   <v name="DARWINR">      0.00000000</v>
   <v name="DARWINV">      1.00000000</v>
   <i type="logical" name="LCORR"> T  </i>
  </separator>
  <i type="logical" name="GGA_COMPAT"> T  </i>
  <i type="logical" name="LBERRY"> F  </i>
  <i type="int" name="ICORELEVEL">     0</i>
  <i type="logical" name="LDAU"> F  </i>
  <i type="int" name="I_CONSTRAINED_M">     0</i>
  <separator name="electronic exchange-correlation" >
   <i type="string" name="GGA">--</i>
   <i type="int" name="VOSKOWN">     0</i>
   <i type="logical" name="LHFCALC"> F  </i>
   <i type="string" name="PRECFOCK"></i>
   <i type="logical" name="LSYMGRAD"> F  </i>
   <i type="logical" name="LHFONE"> F  </i>
   <i type="logical" name="LRHFCALC"> F  </i>
   <i type="logical" name="LTHOMAS"> F  </i>
   <i type="logical" name="LMODELHF"> F  </i>
   <i name="ENCUT4O">     -1.00000000</i>
   <i type="int" name="EXXOEP">     0</i>
   <i type="int" name="FOURORBIT">     0</i>
   <i name="AEXX">      0.00000000</i>
   <i name="HFALPHA">      0.00000000</i>
   <i name="MCALPHA">      0.00000000</i>
   <i name="ALDAX">      1.00000000</i>
   <i name="AGGAX">      1.00000000</i>
   <i name="ALDAC">      1.00000000</i>
   <i name="AGGAC">      1.00000000</i>
   <i type="int" name="NKREDX">     1</i>
   <i type="int" name="NKREDY">     1</i>
   <i type="int" name="NKREDZ">     1</i>
   <i type="logical" name="SHIFTRED"> F  </i>
   <i type="logical" name="ODDONLY"> F  </i>
   <i type="logical" name="EVENONLY"> F  </i>
   <i type="int" name="LMAXFOCK">     0</i>
   <i type="int" name="NMAXFOCKAE">     0</i>
   <i type="logical" name="LFOCKAEDFT"> F  </i>
   <i name="HFSCREEN">      0.00000000</i>
   <i name="HFSCREENC">      0.00000000</i>
   <i type="int" name="NBANDSGWLOW">     0</i>
  </separator>
  <separator name="vdW DFT" >
   <i type="logical" name="LUSE_VDW"> F  </i>
   <i name="Zab_VDW">     -0.84910000</i>
   <i name="PARAM1">      0.12340000</i>
   <i name="PARAM2">      1.00000000</i>
   <i name="PARAM3">      0.00000000</i>
  </separator>
  <separator name="model GW" >
   <i type="int" name="MODEL_GW">     0</i>
   <i name="MODEL_EPS0">     12.26607635</i>
   <i name="MODEL_ALPHA">      1.00000000</i>
  </separator>
  <separator name="linear response parameters" >
   <i type="logical" name="LEPSILON"> F  </i>
   <i type="logical" name="LRPA"> F  </i>
   <i type="logical" name="LNABLA"> F  </i>
   <i type="logical" name="LVEL"> F  </i>
   <i type="int" name="KINTER">     0</i>
   <i name="CSHIFT">      0.10000000</i>
   <i name="OMEGAMAX">     -1.00000000</i>
   <i name="DEG_THRESHOLD">      0.00200000</i>
   <i name="RTIME">     -0.10000000</i>
   <i name="WPLASMAI">      0.00000000</i>
   <v name="DFIELD">      0.00000000      0.00000000      0.00000000</v>
   <v name="WPLASMA">      0.00000000      0.00000000      0.00000000      0.00000000      0.00000000      0.00000000      0.00000000      0.00000000      0.00000000</v>
  </separator>
  <separator name="orbital magnetization" >
   <i type="logical" name="NUCIND"> F  </i>
   <v name="MAGPOS">      0.00000000      0.00000000      0.00000000</v>
   <i type="logical" name="LNICSALL"> T  </i>
   <i type="logical" name="ORBITALMAG"> F  </i>
   <i type="logical" name="LMAGBLOCH"> F  </i>
   <i type="logical" name="LCHIMAG"> F  </i>
   <i type="logical" name="LGAUGE"> T  </i>
   <i type="int" name="MAGATOM">     0</i>
   <v name="MAGDIPOL">      0.00000000      0.00000000      0.00000000</v>
   <v name="AVECCONST">      0.00000000      0.00000000      0.00000000</v>
  </separator>
  <separator name="response functions" >
   <i type="logical" name="LADDER"> F  </i>
   <i type="logical" name="LRPAFORCE"> F  </i>
   <i type="logical" name="LFXC"> F  </i>
   <i type="logical" name="LHARTREE"> T  </i>
   <i type="int" name="IBSE">     0</i>
   <v type="int" name="KPOINT">    -1     0     0     0</v>
   <i type="logical" name="LTCTE"> F  </i>
   <i type="logical" name="LTETE"> F  </i>
   <i type="logical" name="LTRIPLET"> F  </i>
   <i type="logical" name="LFXCEPS"> F  </i>
   <i type="logical" name="LFXHEG"> F  </i>
   <i type="int" name="NATURALO">     2</i>
   <i type="logical" name="L2ORDER"> F  </i>
   <i type="logical" name="LMP2LT"> F  </i>
   <i type="logical" name="LUSEW"> F  </i>
   <i name="ENCUTGW">     -2.00000000</i>
   <i name="ENCUTGWSOFT">     -2.00000000</i>
   <i name="ENCUTLF">     -1.00000000</i>
   <i type="int" name="LMAXMP2">    -1</i>
   <i name="SCISSOR">      0.00000000</i>
   <i type="int" name="NOMEGA">     0</i>
   <i type="int" name="NOMEGAR">     0</i>
   <i type="int" name="NBANDSGW">    -1</i>
   <i type="int" name="NBANDSO">    -1</i>
   <i type="int" name="NBANDSV">    -1</i>
   <i type="int" name="NELM">   120</i>
   <i type="int" name="NELMHF">     1</i>
   <i type="int" name="DIM">     3</i>
   <i type="int" name="ANTIRES">     0</i>
   <i name="OMEGAMAX">    -30.00000000</i>
   <i name="OMEGAMIN">    -30.00000000</i>
   <i name="OMEGATL">   -200.00000000</i>
   <i type="int" name="OMEGAGRID">   140</i>
   <i name="CSHIFT">     -0.10000000</i>
   <i type="logical" name="SELFENERGY"> F  </i>
   <i type="logical" name="LSPECTRAL"> F  </i>
   <i type="logical" name="LSPECTRALGW"> F  </i>
   <i type="logical" name="LSINGLES"> F  </i>
   <i type="logical" name="LFERMIGW"> F  </i>
   <i type="logical" name="ODDONLYGW"> F  </i>
   <i type="logical" name="EVENONLYGW"> F  </i>
   <i type="int" name="NKREDLFX">     1</i>
   <i type="int" name="NKREDLFY">     1</i>
   <i type="int" name="NKREDLFZ">     1</i>
   <i type="int" name="MAXMEM">  2800</i>
   <i type="int" name="TELESCOPE">     0</i>
   <i type="int" name="TAUPAR">     1</i>
   <i type="int" name="OMEGAPAR">    -1</i>
   <i name="LAMBDA">      1.00000000</i>
  </separator>
  <separator name="External order field" >
   <i name="OFIELD_KAPPA">      0.00000000</i>
   <v name="OFIELD_K">      0.00000000      0.00000000      0.00000000</v>
   <i name="OFIELD_Q6_NEAR">      0.00000000</i>
   <i name="OFIELD_Q6_FAR">      0.00000000</i>
   <i name="OFIELD_A">      0.00000000</i>
  </separator>
 </parameters>
 <atominfo>
  <atoms>     128 </atoms>
  <types>       1 </types>
  <array name="atoms" >
   <dimension dim="1">ion</dimension>
   <field type="string">element</field>
   <field type="int">atomtype</field>
   <set>
    <rc><c>Si</c><c>   1</c></rc>
    <rc><c>Si</c><c>   1</c></rc>
    <rc><c>Si</c><c>   1</c></rc>
    <rc><c>Si</c><c>   1</c></rc>
    <rc><c>Si</c><c>   1</c></rc>
    <rc><c>Si</c><c>   1</c></rc>
    <rc><c>Si</c><c>   1</c></rc>
    <rc><c>Si</c><c>   1</c></rc>
    <rc><c>Si</c><c>   1</c></rc>
    <rc><c>Si</c><c>   1</c></rc>
    <rc><c>Si</c><c>   1</c></rc>
    <rc><c>Si</c><c>   1</c></rc>
    <rc><c>Si</c><c>   1</c></rc>
    <rc><c>Si</c><c>   1</c></rc>
    <rc><c>Si</c><c>   1</c></rc>
    <rc><c>Si</c><c>   1</c></rc>
    <rc><c>Si</c><c>   1</c></rc>
    <rc><c>Si</c><c>   1</c></rc>
    <rc><c>Si</c><c>   1</c></rc>
    <rc><c>Si</c><c>   1</c></rc>
    <rc><c>Si</c><c>   1</c></rc>
    <rc><c>Si</c><c>   1</c></rc>
    <rc><c>Si</c><c>   1</c></rc>
    <rc><c>Si</c><c>   1</c></rc>
    <rc><c>Si</c><c>   1</c></rc>
    <rc><c>Si</c><c>   1</c></rc>
    <rc><c>Si</c><c>   1</c></rc>
    <rc><c>Si</c><c>   1</c></rc>
    <rc><c>Si</c><c>   1</c></rc>
    <rc><c>Si</c><c>   1</c></rc>
    <rc><c>Si</c><c>   1</c></rc>
    <rc><c>Si</c><c>   1</c></rc>
    <rc><c>Si</c><c>   1</c></rc>
    <rc><c>Si</c><c>   1</c></rc>
    <rc><c>Si</c><c>   1</c></rc>
    <rc><c>Si</c><c>   1</c></rc>
    <rc><c>Si</c><c>   1</c></rc>
    <rc><c>Si</c><c>   1</c></rc>
    <rc><c>Si</c><c>   1</c></rc>
    <rc><c>Si</c><c>   1</c></rc>
    <rc><c>Si</c><c>   1</c></rc>
    <rc><c>Si</c><c>   1</c></rc>
    <rc><c>Si</c><c>   1</c></rc>
    <rc><c>Si</c><c>   1</c></rc>
    <rc><c>Si</c><c>   1</c></rc>
    <rc><c>Si</c><c>   1</c></rc>
    <rc><c>Si</c><c>   1</c></rc>
    <rc><c>Si</c><c>   1</c></rc>
    <rc><c>Si</c><c>   1</c></rc>
    <rc><c>Si</c><c>   1</c></rc>
    <rc><c>Si</c><c>   1</c></rc>
    <rc><c>Si</c><c>   1</c></rc>
    <rc><c>Si</c><c>   1</c></rc>
    <rc><c>Si</c><c>   1</c></rc>
    <rc><c>Si</c><c>   1</c></rc>
    <rc><c>Si</c><c>   1</c></rc>
    <rc><c>Si</c><c>   1</c></rc>
    <rc><c>Si</c><c>   1</c></rc>
    <rc><c>Si</c><c>   1</c></rc>
    <rc><c>Si</c><c>   1</c></rc>
    <rc><c>Si</c><c>   1</c></rc>
    <rc><c>Si</c><c>   1</c></rc>
    <rc><c>Si</c><c>   1</c></rc>
    <rc><c>Si</c><c>   1</c></rc>
    <rc><c>Si</c><c>   1</c></rc>
    <rc><c>Si</c><c>   1</c></rc>
    <rc><c>Si</c><c>   1</c></rc>
    <rc><c>Si</c><c>   1</c></rc>
    <rc><c>Si</c><c>   1</c></rc>
    <rc><c>Si</c><c>   1</c></rc>
    <rc><c>Si</c><c>   1</c></rc>
    <rc><c>Si</c><c>   1</c></rc>
    <rc><c>Si</c><c>   1</c></rc>
    <rc><c>Si</c><c>   1</c></rc>
    <rc><c>Si</c><c>   1</c></rc>
    <rc><c>Si</c><c>   1</c></rc>
    <rc><c>Si</c><c>   1</c></rc>
    <rc><c>Si</c><c>   1</c></rc>
    <rc><c>Si</c><c>   1</c></rc>
    <rc><c>Si</c><c>   1</c></rc>
    <rc><c>Si</c><c>   1</c></rc>
    <rc><c>Si</c><c>   1</c></rc>
    <rc><c>Si</c><c>   1</c></rc>
    <rc><c>Si</c><c>   1</c></rc>
    <rc><c>Si</c><c>   1</c></rc>
    <rc><c>Si</c><c>   1</c></rc>
    <rc><c>Si</c><c>   1</c></rc>
    <rc><c>Si</c><c>   1</c></rc>
    <rc><c>Si</c><c>   1</c></rc>
    <rc><c>Si</c><c>   1</c></rc>
    <rc><c>Si</c><c>   1</c></rc>
    <rc><c>Si</c><c>   1</c></rc>
    <rc><c>Si</c><c>   1</c></rc>
    <rc><c>Si</c><c>   1</c></rc>
    <rc><c>Si</c><c>   1</c></rc>
    <rc><c>Si</c><c>   1</c></rc>
    <rc><c>Si</c><c>   1</c></rc>
    <rc><c>Si</c><c>   1</c></rc>
    <rc><c>Si</c><c>   1</c></rc>
    <rc><c>Si</c><c>   1</c></rc>
    <rc><c>Si</c><c>   1</c></rc>
    <rc><c>Si</c><c>   1</c></rc>
    <rc><c>Si</c><c>   1</c></rc>
    <rc><c>Si</c><c>   1</c></rc>
    <rc><c>Si</c><c>   1</c></rc>
    <rc><c>Si</c><c>   1</c></rc>
    <rc><c>Si</c><c>   1</c></rc>
    <rc><c>Si</c><c>   1</c></rc>
    <rc><c>Si</c><c>   1</c></rc>
    <rc><c>Si</c><c>   1</c></rc>
    <rc><c>Si</c><c>   1</c></rc>
    <rc><c>Si</c><c>   1</c></rc>
    <rc><c>Si</c><c>   1</c></rc>
    <rc><c>Si</c><c>   1</c></rc>
    <rc><c>Si</c><c>   1</c></rc>
    <rc><c>Si</c><c>   1</c></rc>
    <rc><c>Si</c><c>   1</c></rc>
    <rc><c>Si</c><c>   1</c></rc>
    <rc><c>Si</c><c>   1</c></rc>
    <rc><c>Si</c><c>   1</c></rc>
    <rc><c>Si</c><c>   1</c></rc>
    <rc><c>Si</c><c>   1</c></rc>
    <rc><c>Si</c><c>   1</c></rc>
    <rc><c>Si</c><c>   1</c></rc>
    <rc><c>Si</c><c>   1</c></rc>
    <rc><c>Si</c><c>   1</c></rc>
    <rc><c>Si</c><c>   1</c></rc>
    <rc><c>Si</c><c>   1</c></rc>
   </set>
  </array>
  <array name="atomtypes" >
   <dimension dim="1">type</dimension>
   <field type="int">atomspertype</field>
   <field type="string">element</field>
   <field>mass</field>
   <field>valence</field>
   <field type="string">pseudopotential</field>
   <set>
    <rc><c> 128</c><c>Si</c><c>     28.08500000</c><c>      4.00000000</c><c> PAW_PBE Si 05Jan2001                   </c></rc>
   </set>
  </array>
 </atominfo>
 <structure name="initialpos" >
  <crystal>
   <varray name="basis" >
    <v>       0.00000000      10.93733369      10.93733369 </v>
    <v>      10.93733369       0.00000000      10.93733369 </v>
    <v>      10.93733369      10.93733369       0.00000000 </v>
   </varray>
   <i name="volume">   2616.76295363 </i>
   <varray name="rec_basis" >
    <v>      -0.04571498       0.04571498       0.04571498 </v>
    <v>       0.04571498      -0.04571498       0.04571498 </v>
    <v>       0.04571498       0.04571498      -0.04571498 </v>
   </varray>
  </crystal>
  <varray name="positions" >
   <v>       0.00645043       0.99972676       0.00020504 </v>
   <v>       0.25663966       0.99942948       0.98947650 </v>
   <v>       0.50400186       0.99652753       0.99764565 </v>
   <v>       0.74633823       0.01383781       0.98611889 </v>
   <v>       0.99701432       0.24249159       0.99689867 </v>
   <v>       0.24198617       0.24363236       0.00843925 </v>
   <v>       0.49951899       0.24262643       0.98882421 </v>
   <v>       0.76325066       0.24070569       0.99519768 </v>
   <v>       0.00567293       0.50234045       0.98519255 </v>
   <v>       0.25107692       0.49995054       0.99819224 </v>
   <v>       0.48617754       0.50546463       0.99691990 </v>
   <v>       0.75428437       0.49186057       0.00606035 </v>
   <v>       0.00239541       0.75053058       0.99523658 </v>
   <v>       0.24683186       0.74897236       0.00094579 </v>
   <v>       0.49689215       0.75229249       0.00293974 </v>
   <v>       0.74972164       0.75020497       0.99617552 </v>
   <v>       0.00352845       0.99516831       0.24676290 </v>
   <v>       0.25942380       0.00488641       0.24783206 </v>
   <v>       0.50249949       0.00470608       0.24136522 </v>
   <v>       0.75839022       0.99934447       0.24986068 </v>
   <v>       0.99731617       0.24345813       0.24636022 </v>
   <v>       0.25702340       0.24494149       0.24934834 </v>
   <v>       0.50114083       0.25795344       0.24494035 </v>
   <v>       0.75300030       0.25489049       0.25117051 </v>
   <v>       0.01069056       0.50540566       0.24680443 </v>
   <v>       0.24486916       0.49375811       0.25607189 </v>
   <v>       0.49924956       0.50266338       0.25703671 </v>
   <v>       0.74211160       0.50381321       0.24547013 </v>
   <v>       0.00509300       0.75258074       0.24376622 </v>
   <v>       0.24683272       0.75148002       0.24869006 </v>
   <v>       0.50418923       0.75346221       0.24673591 </v>
   <v>       0.75421722       0.74383067       0.25266113 </v>
   <v>       0.00381951       0.99662686       0.50014412 </v>
   <v>       0.25157014       0.99434282       0.49853795 </v>
   <v>       0.48606514       0.00723785       0.50005858 </v>
   <v>       0.74799873       0.01099584       0.48958997 </v>
   <v>       0.00076453       0.25167095       0.48900239 </v>
   <v>       0.24452384       0.25408680       0.50169422 </v>
   <v>       0.49764804       0.25382397       0.50412026 </v>
   <v>       0.74912982       0.25398179       0.49800351 </v>
   <v>       0.00202425       0.50614390       0.49869426 </v>
   <v>       0.24477215       0.50586622       0.49607756 </v>
   <v>       0.50015897       0.49477035       0.49001416 </v>
   <v>       0.75408508       0.49411439       0.49526024 </v>
   <v>       0.00142249       0.74582873       0.51183980 </v>
   <v>       0.25000649       0.75211098       0.49776063 </v>
   <v>       0.49706393       0.74792275       0.50081408 </v>
   <v>       0.74814380       0.74486983       0.50737737 </v>
   <v>       0.00789879       0.00287029       0.74460835 </v>
   <v>       0.24183852       0.99872956       0.75592802 </v>
   <v>       0.52035193       0.99646821       0.74658335 </v>
   <v>       0.75042743       0.00284742       0.75179171 </v>
   <v>       0.00377755       0.25973408       0.73683961 </v>
   <v>       0.25316875       0.24731571       0.74780026 </v>
   <v>       0.50371308       0.24843885       0.75178498 </v>
   <v>       0.74628969       0.25520204       0.74094642 </v>
   <v>       0.00259026       0.48756056       0.75005069 </v>
   <v>       0.24968804       0.50700280       0.74488158 </v>
   <v>       0.50070855       0.49687101       0.74266659 </v>
   <v>       0.74674323       0.49925791       0.75431654 </v>
   <v>       0.99999108       0.75181808       0.76068800 </v>
   <v>       0.25209337       0.74641695       0.76242620 </v>
   <v>       0.51707634       0.74171367       0.74083706 </v>
   <v>       0.74720564       0.74789251       0.75295894 </v>
   <v>       0.07219643       0.05839454       0.06890111 </v>
   <v>       0.30353549       0.05963620       0.06317202 </v>
   <v>       0.56758372       0.06058540       0.06608557 </v>
   <v>       0.81553200       0.07051102       0.06236596 </v>
   <v>       0.06360903       0.31574840       0.07230371 </v>
   <v>       0.30563637       0.31678045       0.06847719 </v>
   <v>       0.57229785       0.30894676       0.06305505 </v>
   <v>       0.80979899       0.31218567       0.06087447 </v>
   <v>       0.05590742       0.55948166       0.06758259 </v>
   <v>       0.30263922       0.55975654       0.07418498 </v>
   <v>       0.57359194       0.56843536       0.05133502 </v>
   <v>       0.81334326       0.55978710       0.06722882 </v>
   <v>       0.05610936       0.81023645       0.06413397 </v>
   <v>       0.31487375       0.81067814       0.07173156 </v>
   <v>       0.56936421       0.79810078       0.06418705 </v>
   <v>       0.81670608       0.80231875       0.07422619 </v>
   <v>       0.06781837       0.05683427       0.31563880 </v>
   <v>       0.31579642       0.06615175       0.31451883 </v>
   <v>       0.56633009       0.04694282       0.30821111 </v>
   <v>       0.81051630       0.06309418       0.30884800 </v>
   <v>       0.06570309       0.31878285       0.30264555 </v>
   <v>       0.30393582       0.30969308       0.32458818 </v>
   <v>       0.56538620       0.32343340       0.30620550 </v>
   <v>       0.79881226       0.32322131       0.31231553 </v>
   <v>       0.04838138       0.58079456       0.31311042 </v>
   <v>       0.31475183       0.57020187       0.31022730 </v>
   <v>       0.55300824       0.57785203       0.31528913 </v>
   <v>       0.81248794       0.56421853       0.30640482 </v>
   <v>       0.06813908       0.82141925       0.30709958 </v>
   <v>       0.32064272       0.81044677       0.31197668 </v>
   <v>       0.55878032       0.81397233       0.30699802 </v>
   <v>       0.82123032       0.80645864       0.31289234 </v>
   <v>       0.07168022       0.05825503       0.55937256 </v>
   <v>       0.30455814       0.07368472       0.56046692 </v>
   <v>       0.55538547       0.06036285       0.56798316 </v>
   <v>       0.81747704       0.06435364       0.56893375 </v>
   <v>       0.06718925       0.30865235       0.56233708 </v>
   <v>       0.29906525       0.31843408       0.55810881 </v>
   <v>       0.56210260       0.31106663       0.56345699 </v>
   <v>       0.81409205       0.31228814       0.56368561 </v>
   <v>       0.05141330       0.57224459       0.55577503 </v>
   <v>       0.31466860       0.56955206       0.55748810 </v>
   <v>       0.56513610       0.55995822       0.56559563 </v>
   <v>       0.81373642       0.55483787       0.56583267 </v>
   <v>       0.06989344       0.80123144       0.56614364 </v>
   <v>       0.31912050       0.80673771       0.56382596 </v>
   <v>       0.55044019       0.81231258       0.55975843 </v>
   <v>       0.81357386       0.81247531       0.56379156 </v>
   <v>       0.06924440       0.06078011       0.79917418 </v>
   <v>       0.32435262       0.05082409       0.79720019 </v>
   <v>       0.56591708       0.06140523       0.81797256 </v>
   <v>       0.81097986       0.06816987       0.80713804 </v>
   <v>       0.06633318       0.31725085       0.80450925 </v>
   <v>       0.30442800       0.31660667       0.81583890 </v>
   <v>       0.56914937       0.29933759       0.80981662 </v>
   <v>       0.80146276       0.31975205       0.81167075 </v>
   <v>       0.05819476       0.55787775       0.81114982 </v>
   <v>       0.30876483       0.55988597       0.81554063 </v>
   <v>       0.55729039       0.56854832       0.80669705 </v>
   <v>       0.82566335       0.55953772       0.80011223 </v>
   <v>       0.07237230       0.80803951       0.80769573 </v>
   <v>       0.31384055       0.80535189       0.81955666 </v>
   <v>       0.57480728       0.80152321       0.81127061 </v>
   <v>       0.82611151       0.79258945       0.80740569 </v>
  </varray>
 </structure>
 <calculation>
  <scstep>
   <time name="dav">   70.58   70.59</time>
   <time name="total">   71.60   71.61</time>
   <energy>
    <i name="alphaZ">    210.77028614 </i>
    <i name="ewald"> -14472.38233999 </i>
    <i name="hartreedc">   -755.99861262 </i>
    <i name="XCdc">  -1195.35726915 </i>
    <i name="pawpsdc">   4221.13331941 </i>
    <i name="pawaedc">  -1969.18571412 </i>
    <i name="eentropy">     -0.00188245 </i>
    <i name="bandstr">   2151.64765036 </i>
    <i name="atom">  13192.48085998 </i>
    <i name="e_fr_energy">   1383.10629757 </i>
    <i name="e_wo_entrp">   1383.10818003 </i>
    <i name="e_0_energy">   1383.10723880 </i>
   </energy>
  </scstep>
  <scstep>
   <time name="dav">   80.24   80.26</time>
   <time name="total">   80.24   80.26</time>
   <energy>
    <i name="e_fr_energy">   -537.02230918 </i>
    <i name="e_wo_entrp">   -537.02227998 </i>
    <i name="e_0_energy">   -537.02229458 </i>
   </energy>
  </scstep>
  <scstep>
   <time name="dav">   82.32   82.34</time>
   <time name="total">   82.32   82.34</time>
   <energy>
    <i name="e_fr_energy">   -686.97668938 </i>
    <i name="e_wo_entrp">   -686.97668938 </i>
    <i name="e_0_energy">   -686.97668938 </i>
   </energy>
  </scstep>
  <scstep>
   <time name="dav">   80.67   80.69</time>
   <time name="total">   80.67   80.70</time>
   <energy>
    <i name="e_fr_energy">   -691.23730259 </i>
    <i name="e_wo_entrp">   -691.23730259 </i>
    <i name="e_0_energy">   -691.23730259 </i>
   </energy>
  </scstep>
  <scstep>
   <time name="dav">   82.98   83.00</time>
   <time name="total">   86.27   86.29</time>
   <energy>
    <i name="e_fr_energy">   -691.38694304 </i>
    <i name="e_wo_entrp">   -691.38694304 </i>
    <i name="e_0_energy">   -691.38694304 </i>
   </energy>
  </scstep>
  <scstep>
   <time name="dav">   78.38   78.40</time>
   <time name="total">   82.68   82.70</time>
   <energy>
    <i name="e_fr_energy">   -682.93648544 </i>
    <i name="e_wo_entrp">   -682.93648544 </i>
    <i name="e_0_energy">   -682.93648544 </i>
   </energy>
  </scstep>
  <scstep>
   <time name="dav">   78.03   78.05</time>
   <time name="total">   82.33   82.35</time>
   <energy>
    <i name="e_fr_energy">   -679.39606360 </i>
    <i name="e_wo_entrp">   -679.39606360 </i>
    <i name="e_0_energy">   -679.39606360 </i>
   </energy>
  </scstep>
  <scstep>
   <time name="dav">   77.07   77.08</time>
   <time name="total">   81.37   81.39</time>
   <energy>
    <i name="e_fr_energy">   -679.45541568 </i>
    <i name="e_wo_entrp">   -679.45541568 </i>
    <i name="e_0_energy">   -679.45541568 </i>
   </energy>
  </scstep>
  <scstep>
   <time name="dav">   79.72   79.74</time>
   <time name="total">   84.02   84.04</time>
   <energy>
    <i name="e_fr_energy">   -679.47763888 </i>
    <i name="e_wo_entrp">   -679.47763888 </i>
    <i name="e_0_energy">   -679.47763888 </i>
   </energy>
  </scstep>
  <scstep>
   <time name="dav">   78.80   78.83</time>
   <time name="total">   83.11   83.14</time>
   <energy>
    <i name="e_fr_energy">   -679.48021805 </i>
    <i name="e_wo_entrp">   -679.48021805 </i>
    <i name="e_0_energy">   -679.48021805 </i>
   </energy>
  </scstep>
  <scstep>
   <time name="dav">   77.79   77.81</time>
   <time name="total">   82.10   82.12</time>
   <energy>
    <i name="e_fr_energy">   -679.48173371 </i>
    <i name="e_wo_entrp">   -679.48173371 </i>
    <i name="e_0_energy">   -679.48173371 </i>
   </energy>
  </scstep>
  <scstep>
   <time name="dav">   80.75   80.77</time>
   <time name="total">   85.06   85.07</time>
   <energy>
    <i name="e_fr_energy">   -679.48181923 </i>
    <i name="e_wo_entrp">   -679.48181923 </i>
    <i name="e_0_energy">   -679.48181923 </i>
   </energy>
  </scstep>
  <scstep>
   <time name="dav">   76.60   76.61</time>
   <time name="total">   80.81   80.82</time>
   <energy>
    <i name="e_fr_energy">   -679.48184934 </i>
    <i name="e_wo_entrp">   -679.48184934 </i>
    <i name="e_0_energy">   -679.48184934 </i>
   </energy>
  </scstep>
  <scstep>
   <time name="dav">   80.64   80.66</time>
   <time name="total">   84.85   84.87</time>
   <energy>
    <i name="e_fr_energy">   -679.48185755 </i>
    <i name="e_wo_entrp">   -679.48185755 </i>
    <i name="e_0_energy">   -679.48185755 </i>
   </energy>
  </scstep>
  <scstep>
   <time name="dav">   81.25   81.26</time>
   <time name="total">   85.45   85.47</time>
   <energy>
    <i name="e_fr_energy">   -679.48185991 </i>
    <i name="e_wo_entrp">   -679.48185991 </i>
    <i name="e_0_energy">   -679.48185991 </i>
   </energy>
  </scstep>
  <scstep>
   <time name="dav">   79.11   79.12</time>
   <time name="total">   83.43   83.43</time>
   <energy>
    <i name="e_fr_energy">   -679.48185973 </i>
    <i name="e_wo_entrp">   -679.48185973 </i>
    <i name="e_0_energy">   -679.48185973 </i>
   </energy>
  </scstep>
  <scstep>
   <time name="dav">   75.63   75.65</time>
   <time name="total">   79.95   79.97</time>
   <energy>
    <i name="e_fr_energy">   -679.48185965 </i>
    <i name="e_wo_entrp">   -679.48185965 </i>
    <i name="e_0_energy">   -679.48185965 </i>
   </energy>
  </scstep>
  <scstep>
   <time name="dav">   54.68   54.69</time>
   <time name="total">   58.99   59.00</time>
   <energy>
    <i name="e_fr_energy">   -679.48185981 </i>
    <i name="e_wo_entrp">   -679.48185981 </i>
    <i name="e_0_energy">   -679.48185981 </i>
   </energy>
  </scstep>
  <scstep>
   <time name="dav">   51.71   51.72</time>
   <time name="total">   56.00   56.02</time>
   <energy>
    <i name="e_fr_energy">   -679.48185974 </i>
    <i name="e_wo_entrp">   -679.48185974 </i>
    <i name="e_0_energy">   -679.48185974 </i>
   </energy>
  </scstep>
  <scstep>
   <time name="dav">   50.58   50.59</time>
   <time name="total">   54.90   54.91</time>
   <energy>
    <i name="e_fr_energy">   -679.48185975 </i>
    <i name="e_wo_entrp">   -679.48185975 </i>
    <i name="e_0_energy">   -679.48185975 </i>
   </energy>
  </scstep>
  <scstep>
   <time name="dav">   50.46   50.47</time>
   <time name="total">   51.46   51.47</time>
   <energy>
    <i name="alphaZ">    210.77028614 </i>
    <i name="ewald"> -14472.38233999 </i>
    <i name="hartreedc">  -1001.37043897 </i>
    <i name="XCdc">  -1155.82553246 </i>
    <i name="pawpsdc">   4730.34484040 </i>
    <i name="pawaedc">  -2492.05888140 </i>
    <i name="eentropy">     -0.00000000 </i>
    <i name="bandstr">    308.55934654 </i>
    <i name="atom">  13192.48085998 </i>
    <i name="e_fr_energy">   -679.48185975 </i>
    <i name="e_wo_entrp">   -679.48185975 </i>
    <i name="e_0_energy">   -679.48185975 </i>
   </energy>
  </scstep>
  <structure>
   <crystal>
    <varray name="basis" >
     <v>       0.00000000      10.93733369      10.93733369 </v>
     <v>      10.93733369       0.00000000      10.93733369 </v>
     <v>      10.93733369      10.93733369       0.00000000 </v>
    </varray>
    <i name="volume">   2616.76295363 </i>
    <varray name="rec_basis" >
     <v>      -0.04571498       0.04571498       0.04571498 </v>
     <v>       0.04571498      -0.04571498       0.04571498 </v>
     <v>       0.04571498       0.04571498      -0.04571498 </v>
    </varray>
   </crystal>
   <varray name="positions" >
    <v>       0.00645043       0.99972676       0.00020504 </v>
    <v>       0.25663966       0.99942948       0.98947650 </v>
    <v>       0.50400186       0.99652753       0.99764565 </v>
    <v>       0.74633823       0.01383781       0.98611889 </v>
    <v>       0.99701432       0.24249159       0.99689867 </v>
    <v>       0.24198617       0.24363236       0.00843925 </v>
    <v>       0.49951899       0.24262643       0.98882421 </v>
    <v>       0.76325066       0.24070569       0.99519768 </v>
    <v>       0.00567293       0.50234045       0.98519255 </v>
    <v>       0.25107692       0.49995054       0.99819224 </v>
    <v>       0.48617754       0.50546463       0.99691990 </v>
    <v>       0.75428437       0.49186057       0.00606035 </v>
    <v>       0.00239541       0.75053058       0.99523658 </v>
    <v>       0.24683186       0.74897236       0.00094579 </v>
    <v>       0.49689215       0.75229249       0.00293974 </v>
    <v>       0.74972164       0.75020497       0.99617552 </v>
    <v>       0.00352845       0.99516831       0.24676290 </v>
    <v>       0.25942380       0.00488641       0.24783206 </v>
    <v>       0.50249949       0.00470608       0.24136522 </v>
    <v>       0.75839022       0.99934447       0.24986068 </v>
    <v>       0.99731617       0.24345813       0.24636022 </v>
    <v>       0.25702340       0.24494149       0.24934834 </v>
    <v>       0.50114083       0.25795344       0.24494035 </v>
    <v>       0.75300030       0.25489049       0.25117051 </v>
    <v>       0.01069056       0.50540566       0.24680443 </v>
    <v>       0.24486916       0.49375811       0.25607189 </v>
    <v>       0.49924956       0.50266338       0.25703671 </v>
    <v>       0.74211160       0.50381321       0.24547013 </v>
    <v>       0.00509300       0.75258074       0.24376622 </v>
    <v>       0.24683272       0.75148002       0.24869006 </v>
    <v>       0.50418923       0.75346221       0.24673591 </v>
    <v>       0.75421722       0.74383067       0.25266113 </v>
    <v>       0.00381951       0.99662686       0.50014412 </v>
    <v>       0.25157014       0.99434282       0.49853795 </v>
    <v>       0.48606514       0.00723785       0.50005858 </v>
    <v>       0.74799873       0.01099584       0.48958997 </v>
    <v>       0.00076453       0.25167095       0.48900239 </v>
    <v>       0.24452384       0.25408680       0.50169422 </v>
    <v>       0.49764804       0.25382397       0.50412026 </v>
    <v>       0.74912982       0.25398179       0.49800351 </v>
    <v>       0.00202425       0.50614390       0.49869426 </v>
    <v>       0.24477215       0.50586622       0.49607756 </v>
    <v>       0.50015897       0.49477035       0.49001416 </v>
    <v>       0.75408508       0.49411439       0.49526024 </v>
    <v>       0.00142249       0.74582873       0.51183980 </v>
    <v>       0.25000649       0.75211098       0.49776063 </v>
    <v>       0.49706393       0.74792275       0.50081408 </v>
    <v>       0.74814380       0.74486983       0.50737737 </v>
    <v>       0.00789879       0.00287029       0.74460835 </v>
    <v>       0.24183852       0.99872956       0.75592802 </v>
    <v>       0.52035193       0.99646821       0.74658335 </v>
    <v>       0.75042743       0.00284742       0.75179171 </v>
    <v>       0.00377755       0.25973408       0.73683961 </v>
    <v>       0.25316875       0.24731571       0.74780026 </v>
    <v>       0.50371308       0.24843885       0.75178498 </v>
    <v>       0.74628969       0.25520204       0.74094642 </v>
    <v>       0.00259026       0.48756056       0.75005069 </v>
    <v>       0.24968804       0.50700280       0.74488158 </v>
    <v>       0.50070855       0.49687101       0.74266659 </v>
    <v>       0.74674323       0.49925791       0.75431654 </v>
    <v>       0.99999108       0.75181808       0.76068800 </v>
    <v>       0.25209337       0.74641695       0.76242620 </v>
    <v>       0.51707634       0.74171367       0.74083706 </v>
    <v>       0.74720564       0.74789251       0.75295894 </v>
    <v>       0.07219643       0.05839454       0.06890111 </v>
    <v>       0.30353549       0.05963620       0.06317202 </v>
    <v>       0.56758372       0.06058540       0.06608557 </v>
    <v>       0.81553200       0.07051102       0.06236596 </v>
    <v>       0.06360903       0.31574840       0.07230371 </v>
    <v>       0.30563637       0.31678045       0.06847719 </v>
    <v>       0.57229785       0.30894676       0.06305505 </v>
    <v>       0.80979899       0.31218567       0.06087447 </v>
    <v>       0.05590742       0.55948166       0.06758259 </v>
    <v>       0.30263922       0.55975654       0.07418498 </v>
    <v>       0.57359194       0.56843536       0.05133502 </v>
    <v>       0.81334326       0.55978710       0.06722882 </v>
    <v>       0.05610936       0.81023645       0.06413397 </v>
    <v>       0.31487375       0.81067814       0.07173156 </v>
    <v>       0.56936421       0.79810078       0.06418705 </v>
    <v>       0.81670608       0.80231875       0.07422619 </v>
    <v>       0.06781837       0.05683427       0.31563880 </v>
    <v>       0.31579642       0.06615175       0.31451883 </v>
    <v>       0.56633009       0.04694282       0.30821111 </v>
    <v>       0.81051630       0.06309418       0.30884800 </v>
    <v>       0.06570309       0.31878285       0.30264555 </v>
    <v>       0.30393582       0.30969308       0.32458818 </v>
    <v>       0.56538620       0.32343340       0.30620550 </v>
    <v>       0.79881226       0.32322131       0.31231553 </v>
    <v>       0.04838138       0.58079456       0.31311042 </v>
    <v>       0.31475183       0.57020187       0.31022730 </v>
    <v>       0.55300824       0.57785203       0.31528913 </v>
    <v>       0.81248794       0.56421853       0.30640482 </v>
    <v>       0.06813908       0.82141925       0.30709958 </v>
    <v>       0.32064272       0.81044677       0.31197668 </v>
    <v>       0.55878032       0.81397233       0.30699802 </v>
    <v>       0.82123032       0.80645864       0.31289234 </v>
    <v>       0.07168022       0.05825503       0.55937256 </v>
    <v>       0.30455814       0.07368472       0.56046692 </v>
    <v>       0.55538547       0.06036285       0.56798316 </v>
    <v>       0.81747704       0.06435364       0.56893375 </v>
    <v>       0.06718925       0.30865235       0.56233708 </v>
    <v>       0.29906525       0.31843408       0.55810881 </v>
    <v>       0.56210260       0.31106663       0.56345699 </v>
    <v>       0.81409205       0.31228814       0.56368561 </v>
    <v>       0.05141330       0.57224459       0.55577503 </v>
    <v>       0.31466860       0.56955206       0.55748810 </v>
    <v>       0.56513610       0.55995822       0.56559563 </v>
    <v>       0.81373642       0.55483787       0.56583267 </v>
    <v>       0.06989344       0.80123144       0.56614364 </v>
    <v>       0.31912050       0.80673771       0.56382596 </v>
    <v>       0.55044019       0.81231258       0.55975843 </v>
    <v>       0.81357386       0.81247531       0.56379156 </v>
    <v>       0.06924440       0.06078011       0.79917418 </v>
    <v>       0.32435262       0.05082409       0.79720019 </v>
    <v>       0.56591708       0.06140523       0.81797256 </v>
    <v>       0.81097986       0.06816987       0.80713804 </v>
    <v>       0.06633318       0.31725085       0.80450925 </v>
    <v>       0.30442800       0.31660667       0.81583890 </v>
    <v>       0.56914937       0.29933759       0.80981662 </v>
    <v>       0.80146276       0.31975205       0.81167075 </v>
    <v>       0.05819476       0.55787775       0.81114982 </v>
    <v>       0.30876483       0.55988597       0.81554063 </v>
    <v>       0.55729039       0.56854832       0.80669705 </v>
    <v>       0.82566335       0.55953772       0.80011223 </v>
    <v>       0.07237230       0.80803951       0.80769573 </v>
    <v>       0.31384055       0.80535189       0.81955666 </v>
    <v>       0.57480728       0.80152321       0.81127061 </v>
    <v>       0.82611151       0.79258945       0.80740569 </v>
   </varray>
  </structure>
  <varray name="forces" >
   <v>      -0.19953011      -0.47523224       0.02415219 </v>
   <v>      -0.39192459       0.07154025      -0.42874979 </v>
   <v>       1.04768283       0.94724515      -1.20982001 </v>
   <v>       0.28460249       3.00771871      -0.49581558 </v>
   <v>       1.08100753       0.55127167       1.41956954 </v>
   <v>       0.07029764       0.28601056       1.46769858 </v>
   <v>       2.35169554       1.28116102       0.13770049 </v>
   <v>       2.11911410      -1.78755118       0.79372059 </v>
   <v>       1.97514997       1.74572104      -1.79084303 </v>
   <v>       1.00919133      -0.13212823      -0.71793182 </v>
   <v>      -0.35617517       1.76700141       1.02381258 </v>
   <v>      -0.43709584      -0.98344801       1.67123562 </v>
   <v>      -0.24095079       0.19684426      -0.74865416 </v>
   <v>       1.00771367       1.02350080      -0.28553362 </v>
   <v>      -1.25181261      -0.00123972       0.17042721 </v>
   <v>      -0.38909980       1.34939647       0.47108141 </v>
   <v>       2.21832474      -0.19514327       0.63109657 </v>
   <v>      -0.48372916      -0.27622840      -1.27537528 </v>
   <v>      -0.21894612       0.25123750      -2.02531927 </v>
   <v>      -1.05303875      -1.32455619      -1.77810161 </v>
   <v>       2.18198262       0.64388701      -0.20157280 </v>
   <v>       1.50253042      -0.44653846       0.02974711 </v>
   <v>       0.05261787       0.74166395      -1.33566641 </v>
   <v>      -1.39470196      -1.22496564      -1.12265469 </v>
   <v>       0.28014684      -0.89898079      -1.73899330 </v>
   <v>       1.58763325       0.06546484       0.36261237 </v>
   <v>      -0.34695045      -1.32462374       1.55074874 </v>
   <v>       1.36383440       0.54889292       0.26973304 </v>
   <v>       1.68796155      -0.19355310       1.00258644 </v>
   <v>       0.78839797       1.41394686       0.83371719 </v>
   <v>      -0.07835807      -1.09076789      -0.31932138 </v>
   <v>       1.50271729      -0.29487848      -0.19357768 </v>
   <v>       0.01550243       0.61773496      -0.39271072 </v>
   <v>       0.32572794       0.96287520       0.91382865 </v>
   <v>      -1.10358840       0.83825874       0.29006733 </v>
   <v>       0.69034959       1.60815862      -1.00806983 </v>
   <v>       0.33673563       1.13696464       0.23208449 </v>
   <v>      -0.49139051       0.12195844      -0.48432307 </v>
   <v>      -0.96685228      -1.21169898      -0.86045318 </v>
   <v>       0.00560452       0.44253340      -0.16557562 </v>
   <v>      -1.34453147      -1.02882104      -1.87279125 </v>
   <v>       0.67337318       0.00177916       0.00345097 </v>
   <v>       2.03420044       1.47033452       0.28871631 </v>
   <v>       0.91091710      -0.19936908       0.62813817 </v>
   <v>      -0.21336900      -2.28023636       0.71250177 </v>
   <v>      -0.12542663       0.68724176       0.78754735 </v>
   <v>      -1.69875854      -0.24668132       0.11613309 </v>
   <v>      -0.27438399      -0.64016998       0.17061007 </v>
   <v>      -0.94104594      -1.00277211      -1.90310805 </v>
   <v>      -2.50275439       0.43932460       0.75263962 </v>
   <v>      -0.31778470      -0.50773852      -1.89538244 </v>
   <v>      -1.27011118       0.62036743      -1.02027535 </v>
   <v>       0.95158301       0.79065313      -2.00575835 </v>
   <v>      -0.42797772      -0.10484278      -0.04662526 </v>
   <v>      -0.35386551      -1.71429877      -1.34764243 </v>
   <v>       0.30255330       1.73238646       0.11959183 </v>
   <v>       0.77647289      -1.47648272       2.52597261 </v>
   <v>      -0.24753667      -0.21731784      -0.95923179 </v>
   <v>       0.94453346       1.11585328      -0.88306549 </v>
   <v>       0.24725517      -0.71281070       0.32122153 </v>
   <v>      -2.79458224      -0.35308852      -0.26341612 </v>
   <v>      -1.89110354      -0.84588634       0.14746021 </v>
   <v>       1.92400963      -1.49022132      -0.09106478 </v>
   <v>      -2.30604075       0.93850371       1.07781412 </v>
   <v>      -1.26486718      -1.56358501       0.13365173 </v>
   <v>      -0.36382420       1.16585301       1.35072068 </v>
   <v>      -1.25725133      -2.12595152       0.01144807 </v>
   <v>      -2.35139841       0.95625341      -1.71601656 </v>
   <v>      -1.57779222      -2.41756961      -0.42963869 </v>
   <v>      -2.05264880      -0.13104265       0.18448256 </v>
   <v>      -0.72846025      -1.95087756      -0.09540210 </v>
   <v>      -0.26437090       0.97243446      -0.20029192 </v>
   <v>      -0.98831033      -0.58532113       1.61554687 </v>
   <v>      -0.54648690      -0.69067118       0.52584595 </v>
   <v>       0.45564407      -0.42494481      -2.33425380 </v>
   <v>      -1.08031658      -0.88932128       0.86953819 </v>
   <v>      -0.25364879      -0.13996307       1.46687277 </v>
   <v>      -1.01482331      -2.03749179       0.07101208 </v>
   <v>       1.09812197      -1.06665546       1.10463192 </v>
   <v>      -0.63324946      -2.53974213       1.23023331 </v>
   <v>      -0.51945922      -0.44523601       0.08034283 </v>
   <v>      -0.85500005       0.16860844      -0.23827763 </v>
   <v>       2.53168497       1.21728308       2.24706362 </v>
   <v>       0.82564372       0.76989268       1.71426757 </v>
   <v>      -0.59157438       0.08905389      -0.64582790 </v>
   <v>      -1.59051223      -0.43321471       1.42684445 </v>
   <v>      -0.29023016       1.01032921      -1.49574701 </v>
   <v>      -0.48238337       1.94319324       0.83922547 </v>
   <v>      -1.65200932       2.33142822      -0.40289664 </v>
   <v>      -0.94938860      -0.24067184      -1.43431789 </v>
   <v>      -2.19007392       0.41132022      -0.29108123 </v>
   <v>      -0.96138141       1.06445903      -0.48602597 </v>
   <v>      -0.39234262       0.74464875      -2.65249602 </v>
   <v>       0.39815684      -1.28052905      -0.15487517 </v>
   <v>       0.99754328       1.54337071       1.27509137 </v>
   <v>       0.83008637      -0.25410789      -0.28480124 </v>
   <v>       0.43515429      -1.26375252      -0.29771207 </v>
   <v>      -0.57892898       0.50640927      -1.58843207 </v>
   <v>      -0.67000028      -0.63932312       1.48199801 </v>
   <v>      -0.89417140      -1.58676870      -0.22923987 </v>
   <v>      -0.15902295      -2.61406834       0.34652725 </v>
   <v>       0.83402583       2.03728295       1.67956938 </v>
   <v>       0.14182952       0.45556914       0.01004424 </v>
   <v>      -1.18453617      -0.89862845       0.36671123 </v>
   <v>      -0.06253969       2.95515257       0.36304011 </v>
   <v>      -0.75627169      -0.03427357      -1.02994349 </v>
   <v>      -1.60655990      -1.38528850       0.04895109 </v>
   <v>       0.06132781      -0.32841040       0.07242877 </v>
   <v>       1.93096934      -0.07362684       0.27936856 </v>
   <v>       1.10641889      -0.50924592      -1.17348060 </v>
   <v>       0.75196066       0.95378329       2.06653306 </v>
   <v>       0.57462227      -0.71041285       0.26635798 </v>
   <v>       3.52555012       0.29750775      -0.00184177 </v>
   <v>       1.82454007       1.13750307       1.23403824 </v>
   <v>      -0.17243592      -0.47959418       0.62238434 </v>
   <v>      -0.58074579       0.38703919       1.18211627 </v>
   <v>      -1.43172497       1.89629792      -2.18849666 </v>
   <v>      -0.43947321       0.68512791       0.40909715 </v>
   <v>       1.61837580      -0.80504175       1.17198877 </v>
   <v>      -1.50456867       0.98129894       0.21912991 </v>
   <v>      -0.66488713      -0.67720868       1.90200117 </v>
   <v>      -0.31976527       0.30372856       0.82931126 </v>
   <v>      -1.07095214       1.22737731      -1.55279828 </v>
   <v>       1.73858927      -0.00184808      -1.68412975 </v>
   <v>       1.99812707       0.05019191       0.48595891 </v>
   <v>       0.06611993       0.43330638       1.79629407 </v>
   <v>       2.09519848      -1.40261583      -0.88003726 </v>
   <v>       2.97069405      -0.80386084       0.42739874 </v>
  </varray>
  <varray name="stress" >
   <v>      11.60232550       4.45423268      -0.59860677 </v>
   <v>       4.45423268      12.03086129      -3.80754737 </v>
   <v>      -0.59860678      -3.80754738      13.32761902 </v>
  </varray>
  <energy>
   <i name="e_fr_energy">   -679.48185975 </i>
   <i name="e_wo_entrp">   -679.48185975 </i>
   <i name="e_0_energy">     -0.00000000 </i>
  </energy>
  <time name="totalsc"> 1735.34 1735.75</time>
  <eigenvalues>
   <array>
    <dimension dim="1">band</dimension>
    <dimension dim="2">kpoint</dimension>
    <dimension dim="3">spin</dimension>
    <field>eigene</field>
    <field>occ</field>
    <set>
     <set comment="spin 1">
      <set comment="kpoint 1">
       <r>   -6.2973    1.0000 </r>
       <r>   -5.6857    1.0000 </r>
       <r>   -5.6464    1.0000 </r>
       <r>   -5.6234    1.0000 </r>
       <r>   -5.5647    1.0000 </r>
       <r>   -5.4947    1.0000 </r>
       <r>   -5.4671    1.0000 </r>
       <r>   -5.4275    1.0000 </r>
       <r>   -5.3579    1.0000 </r>
       <r>   -5.3376    1.0000 </r>
       <r>   -5.3001    1.0000 </r>
       <r>   -5.2506    1.0000 </r>
       <r>   -5.1964    1.0000 </r>
       <r>   -5.1195    1.0000 </r>
       <r>   -5.0449    1.0000 </r>
       <r>   -4.5413    1.0000 </r>
       <r>   -4.4638    1.0000 </r>
       <r>   -4.4066    1.0000 </r>
       <r>   -4.3826    1.0000 </r>
       <r>   -4.3615    1.0000 </r>
       <r>   -4.3130    1.0000 </r>
       <r>   -4.3002    1.0000 </r>
       <r>   -4.2788    1.0000 </r>
       <r>   -4.2177    1.0000 </r>
       <r>   -4.1861    1.0000 </r>
       <r>   -4.1767    1.0000 </r>
       <r>   -4.1197    1.0000 </r>
       <r>   -4.0337    1.0000 </r>
       <r>   -4.0228    1.0000 </r>
       <r>   -3.9828    1.0000 </r>
       <r>   -3.9610    1.0000 </r>
       <r>   -3.8565    1.0000 </r>
       <r>   -3.8370    1.0000 </r>
       <r>   -3.8125    1.0000 </r>
       <r>   -3.7719    1.0000 </r>
       <r>   -3.7396    1.0000 </r>
       <r>   -3.7031    1.0000 </r>
       <r>   -3.6782    1.0000 </r>
       <r>   -3.6750    1.0000 </r>
       <r>   -3.6596    1.0000 </r>
       <r>   -3.6171    1.0000 </r>
       <r>   -3.5850    1.0000 </r>
       <r>   -3.5800    1.0000 </r>
       <r>   -3.5607    1.0000 </r>
       <r>   -3.5214    1.0000 </r>
       <r>   -3.4771    1.0000 </r>
       <r>   -3.4639    1.0000 </r>
       <r>   -3.4486    1.0000 </r>
       <r>   -3.4186    1.0000 </r>
       <r>   -3.3941    1.0000 </r>
       <r>   -3.3733    1.0000 </r>
       <r>   -3.3433    1.0000 </r>
       <r>   -3.3004    1.0000 </r>
       <r>   -3.2289    1.0000 </r>
       <r>   -3.1986    1.0000 </r>
       <r>   -2.3518    1.0000 </r>
       <r>   -2.3270    1.0000 </r>
       <r>   -2.2770    1.0000 </r>
       <r>   -2.2209    1.0000 </r>
       <r>   -2.1702    1.0000 </r>
       <r>   -2.1589    1.0000 </r>
       <r>   -2.1135    1.0000 </r>
       <r>   -2.0733    1.0000 </r>
       <r>   -2.0581    1.0000 </r>
       <r>   -2.0447    1.0000 </r>
       <r>   -2.0182    1.0000 </r>
       <r>   -2.0113    1.0000 </r>
       <r>   -1.9983    1.0000 </r>
       <r>   -1.9464    1.0000 </r>
       <r>   -1.8966    1.0000 </r>
       <r>   -1.8730    1.0000 </r>
       <r>   -1.8264    1.0000 </r>
       <r>   -1.7403    1.0000 </r>
       <r>   -1.3891    1.0000 </r>
       <r>   -1.3052    1.0000 </r>
       <r>   -1.2794    1.0000 </r>
       <r>   -1.2492    1.0000 </r>
       <r>   -1.0319    1.0000 </r>
       <r>   -0.9873    1.0000 </r>
       <r>   -0.9414    1.0000 </r>
       <r>   -0.9142    1.0000 </r>
       <r>   -0.8993    1.0000 </r>
       <r>   -0.8573    1.0000 </r>
       <r>   -0.8468    1.0000 </r>
       <r>   -0.8233    1.0000 </r>
       <r>   -0.7920    1.0000 </r>
       <r>   -0.7830    1.0000 </r>
       <r>   -0.7499    1.0000 </r>
       <r>   -0.7287    1.0000 </r>
       <r>   -0.6910    1.0000 </r>
       <r>   -0.6883    1.0000 </r>
       <r>   -0.6739    1.0000 </r>
       <r>   -0.6566    1.0000 </r>
       <r>   -0.6079    1.0000 </r>
       <r>   -0.5899    1.0000 </r>
       <r>   -0.5746    1.0000 </r>
       <r>   -0.5180    1.0000 </r>
       <r>   -0.5086    1.0000 </r>
       <r>   -0.4583    1.0000 </r>
       <r>   -0.4431    1.0000 </r>
       <r>   -0.4000    1.0000 </r>
       <r>    0.0079    1.0000 </r>
       <r>    0.0271    1.0000 </r>
       <r>    0.0844    1.0000 </r>
       <r>    0.1269    1.0000 </r>
       <r>    0.1469    1.0000 </r>
       <r>    0.1789    1.0000 </r>
       <r>    0.2139    1.0000 </r>
       <r>    0.2298    1.0000 </r>
       <r>    0.2853    1.0000 </r>
       <r>    0.2976    1.0000 </r>
       <r>    0.3293    1.0000 </r>
       <r>    0.3606    1.0000 </r>
       <r>    1.4260    1.0000 </r>
       <r>    1.4423    1.0000 </r>
       <r>    1.5078    1.0000 </r>
       <r>    1.5196    1.0000 </r>
       <r>    1.5503    1.0000 </r>
       <r>    1.5514    1.0000 </r>
       <r>    1.5918    1.0000 </r>
       <r>    1.6009    1.0000 </r>
       <r>    1.6326    1.0000 </r>
       <r>    1.6620    1.0000 </r>
       <r>    1.6769    1.0000 </r>
       <r>    1.6924    1.0000 </r>
       <r>    1.7093    1.0000 </r>
       <r>    1.7212    1.0000 </r>
       <r>    1.7529    1.0000 </r>
       <r>    1.7550    1.0000 </r>
       <r>    1.7661    1.0000 </r>
       <r>    1.7768    1.0000 </r>
       <r>    1.7985    1.0000 </r>
       <r>    1.8117    1.0000 </r>
       <r>    1.8238    1.0000 </r>
       <r>    1.8301    1.0000 </r>
       <r>    1.8410    1.0000 </r>
       <r>    1.8569    1.0000 </r>
       <r>    1.8719    1.0000 </r>
       <r>    1.8853    1.0000 </r>
       <r>    1.9015    1.0000 </r>
       <r>    1.9083    1.0000 </r>
       <r>    1.9319    1.0000 </r>
       <r>    1.9544    1.0000 </r>
       <r>    1.9603    1.0000 </r>
       <r>    1.9805    1.0000 </r>
       <r>    2.0026    1.0000 </r>
       <r>    2.0103    1.0000 </r>
       <r>    2.0185    1.0000 </r>
       <r>    2.0426    1.0000 </r>
       <r>    2.0484    1.0000 </r>
       <r>    2.0716    1.0000 </r>
       <r>    2.0792    1.0000 </r>
       <r>    2.0883    1.0000 </r>
       <r>    2.1085    1.0000 </r>
       <r>    2.1225    1.0000 </r>
       <r>    2.1442    1.0000 </r>
       <r>    2.1487    1.0000 </r>
       <r>    2.1596    1.0000 </r>
       <r>    2.1635    1.0000 </r>
       <r>    2.1840    1.0000 </r>
       <r>    2.2148    1.0000 </r>
       <r>    2.2362    1.0000 </r>
       <r>    2.2512    1.0000 </r>
       <r>    2.2577    1.0000 </r>
       <r>    2.2857    1.0000 </r>
       <r>    2.3130    1.0000 </r>
       <r>    2.3218    1.0000 </r>
       <r>    2.3287    1.0000 </r>
       <r>    2.3310    1.0000 </r>
       <r>    2.3481    1.0000 </r>
       <r>    2.4145    1.0000 </r>
       <r>    2.4317    1.0000 </r>
       <r>    2.4589    1.0000 </r>
       <r>    2.4978    1.0000 </r>
       <r>    2.5850    1.0000 </r>
       <r>    2.7690    1.0000 </r>
       <r>    2.7900    1.0000 </r>
       <r>    2.8023    1.0000 </r>
       <r>    2.8099    1.0000 </r>
       <r>    2.8460    1.0000 </r>
       <r>    2.8798    1.0000 </r>
       <r>    3.1794    1.0000 </r>
       <r>    3.2159    1.0000 </r>
       <r>    3.2523    1.0000 </r>
       <r>    3.2652    1.0000 </r>
       <r>    3.2871    1.0000 </r>
       <r>    3.3210    1.0000 </r>
       <r>    3.3324    1.0000 </r>
       <r>    3.3544    1.0000 </r>
       <r>    3.3722    1.0000 </r>
       <r>    3.3795    1.0000 </r>
       <r>    3.3946    1.0000 </r>
       <r>    3.3984    1.0000 </r>
       <r>    3.4170    1.0000 </r>
       <r>    3.4222    1.0000 </r>
       <r>    3.4572    1.0000 </r>
       <r>    3.4737    1.0000 </r>
       <r>    3.4921    1.0000 </r>
       <r>    3.5306    1.0000 </r>
       <r>    3.5458    1.0000 </r>
       <r>    3.5664    1.0000 </r>
       <r>    3.5838    1.0000 </r>
       <r>    3.6015    1.0000 </r>
       <r>    3.6219    1.0000 </r>
       <r>    3.6614    1.0000 </r>
       <r>    3.6792    1.0000 </r>
       <r>    3.7169    1.0000 </r>
       <r>    3.7235    1.0000 </r>
       <r>    3.7282    1.0000 </r>
       <r>    3.7553    1.0000 </r>
       <r>    3.7942    1.0000 </r>
       <r>    3.8040    1.0000 </r>
       <r>    3.8454    1.0000 </r>
       <r>    3.8608    1.0000 </r>
       <r>    3.8973    1.0000 </r>
       <r>    3.9252    1.0000 </r>
       <r>    3.9559    1.0000 </r>
       <r>    4.1648    1.0000 </r>
       <r>    4.1861    1.0000 </r>
       <r>    4.1991    1.0000 </r>
       <r>    4.2578    1.0000 </r>
       <r>    4.2622    1.0000 </r>
       <r>    4.2951    1.0000 </r>
       <r>    4.3179    1.0000 </r>
       <r>    4.3202    1.0000 </r>
       <r>    4.3281    1.0000 </r>
       <r>    4.3549    1.0000 </r>
       <r>    4.3813    1.0000 </r>
       <r>    4.4257    1.0000 </r>
       <r>    4.4373    1.0000 </r>
       <r>    4.4625    1.0000 </r>
       <r>    4.4794    1.0000 </r>
       <r>    4.5146    1.0000 </r>
       <r>    4.5612    1.0000 </r>
       <r>    4.6035    1.0000 </r>
       <r>    4.6311    1.0000 </r>
       <r>    4.7212    1.0000 </r>
       <r>    4.7488    1.0000 </r>
       <r>    4.7805    1.0000 </r>
       <r>    4.7951    1.0000 </r>
       <r>    4.8003    1.0000 </r>
       <r>    4.8810    1.0000 </r>
       <r>    4.8975    1.0000 </r>
       <r>    4.9224    1.0000 </r>
       <r>    4.9688    1.0000 </r>
       <r>    5.0108    1.0000 </r>
       <r>    5.0201    1.0000 </r>
       <r>    5.0643    1.0000 </r>
       <r>    5.0927    1.0000 </r>
       <r>    5.1397    1.0000 </r>
       <r>    5.1752    1.0000 </r>
       <r>    5.2620    1.0000 </r>
       <r>    5.3097    1.0000 </r>
       <r>    5.6752    1.0000 </r>
       <r>    5.7657    1.0000 </r>
       <r>    5.9100    1.0000 </r>
       <r>    6.1805    0.0000 </r>
       <r>    6.1985    0.0000 </r>
       <r>    6.2259    0.0000 </r>
       <r>    6.2466    0.0000 </r>
       <r>    6.3119    0.0000 </r>
       <r>    6.3194    0.0000 </r>
       <r>    6.5395    0.0000 </r>
       <r>    6.5768    0.0000 </r>
       <r>    6.6085    0.0000 </r>
       <r>    6.6622    0.0000 </r>
       <r>    6.6679    0.0000 </r>
       <r>    6.7200    0.0000 </r>
       <r>    6.7874    0.0000 </r>
       <r>    6.8428    0.0000 </r>
       <r>    6.8734    0.0000 </r>
       <r>    6.8834    0.0000 </r>
       <r>    6.8977    0.0000 </r>
       <r>    6.9240    0.0000 </r>
       <r>    6.9308    0.0000 </r>
       <r>    6.9554    0.0000 </r>
       <r>    6.9689    0.0000 </r>
       <r>    6.9752    0.0000 </r>
       <r>    6.9996    0.0000 </r>
       <r>    7.0189    0.0000 </r>
       <r>    7.0285    0.0000 </r>
       <r>    7.0604    0.0000 </r>
       <r>    7.0686    0.0000 </r>
       <r>    7.0811    0.0000 </r>
       <r>    7.0985    0.0000 </r>
       <r>    7.1073    0.0000 </r>
       <r>    7.1494    0.0000 </r>
       <r>    7.1580    0.0000 </r>
       <r>    7.1889    0.0000 </r>
       <r>    7.2026    0.0000 </r>
       <r>    7.2267    0.0000 </r>
       <r>    7.2470    0.0000 </r>
       <r>    7.2782    0.0000 </r>
       <r>    7.3139    0.0000 </r>
       <r>    7.3362    0.0000 </r>
       <r>    7.3447    0.0000 </r>
       <r>    7.4361    0.0000 </r>
       <r>    7.4508    0.0000 </r>
       <r>    7.4926    0.0000 </r>
       <r>    7.5067    0.0000 </r>
       <r>    7.5245    0.0000 </r>
       <r>    7.5564    0.0000 </r>
       <r>    7.5828    0.0000 </r>
       <r>    7.6504    0.0000 </r>
       <r>    7.8480    0.0000 </r>
       <r>    7.8770    0.0000 </r>
       <r>    7.9090    0.0000 </r>
       <r>    7.9280    0.0000 </r>
       <r>    7.9347    0.0000 </r>
       <r>    7.9586    0.0000 </r>
       <r>    7.9693    0.0000 </r>
       <r>    7.9889    0.0000 </r>
       <r>    8.0270    0.0000 </r>
       <r>    8.0403    0.0000 </r>
       <r>    8.0949    0.0000 </r>
       <r>    8.0989    0.0000 </r>
       <r>    8.1584    0.0000 </r>
       <r>    8.1868    0.0000 </r>
       <r>    8.2510    0.0000 </r>
       <r>    8.5460    0.0000 </r>
       <r>    8.5851    0.0000 </r>
       <r>    8.6061    0.0000 </r>
      </set>
      <set comment="kpoint 2">
       <r>   -6.1333    1.0000 </r>
       <r>   -6.0807    1.0000 </r>
       <r>   -5.6488    1.0000 </r>
       <r>   -5.6393    1.0000 </r>
       <r>   -5.6298    1.0000 </r>
       <r>   -5.6034    1.0000 </r>
       <r>   -5.5385    1.0000 </r>
[...]
       <r>    -3.1079    46.9694   100.7335 </r>
       <r>    -3.0533    49.1753   103.4208 </r>
       <r>    -2.9986    42.9032   105.7652 </r>
       <r>    -2.9440    34.9172   107.6733 </r>
       <r>    -2.8894    40.8004   109.9029 </r>
       <r>    -2.8347    36.4900   111.8969 </r>
       <r>    -2.7801    27.0390   113.3745 </r>
       <r>    -2.7254    30.5067   115.0416 </r>
       <r>    -2.6708    32.6726   116.8270 </r>
       <r>    -2.6161    33.9036   118.6797 </r>
       <r>    -2.5615    33.6888   120.5207 </r>
       <r>    -2.5068    23.3077   121.7944 </r>
       <r>    -2.4522    13.9166   122.5549 </r>
       <r>    -2.3975     3.5702   122.7500 </r>
       <r>    -2.3429     4.1548   122.9770 </r>
       <r>    -2.2883     5.2611   123.2645 </r>
       <r>    -2.2336    13.5709   124.0061 </r>
       <r>    -2.1790    15.4613   124.8510 </r>
       <r>    -2.1243    36.5925   126.8507 </r>
       <r>    -2.0697    24.4320   128.1858 </r>
       <r>    -2.0150    32.7712   129.9766 </r>
       <r>    -1.9604    23.4159   131.2562 </r>
       <r>    -1.9057    13.8825   132.0148 </r>
       <r>    -1.8511    12.7191   132.7099 </r>
       <r>    -1.7964     5.3090   133.0000 </r>
       <r>    -1.7418     1.9088   133.1043 </r>
       <r>    -1.6871     3.9371   133.3195 </r>
       <r>    -1.6325    15.2516   134.1529 </r>
       <r>    -1.5779    37.1453   136.1827 </r>
       <r>    -1.5232    37.5806   138.2364 </r>
       <r>    -1.4686    28.3827   139.7874 </r>
       <r>    -1.4139    25.0395   141.1557 </r>
       <r>    -1.3593    41.6677   143.4327 </r>
       <r>    -1.3046    62.5286   146.8496 </r>
       <r>    -1.2500    59.5818   150.1055 </r>
       <r>    -1.1953    62.3726   153.5139 </r>
       <r>    -1.1407    64.2085   157.0227 </r>
       <r>    -1.0860    69.2266   160.8057 </r>
       <r>    -1.0314    69.5845   164.6082 </r>
       <r>    -0.9768    66.7184   168.2542 </r>
       <r>    -0.9221    59.8286   171.5236 </r>
       <r>    -0.8675    63.1291   174.9733 </r>
       <r>    -0.8128    57.4094   178.1106 </r>
       <r>    -0.7582    49.1402   180.7959 </r>
       <r>    -0.7035    47.8546   183.4109 </r>
       <r>    -0.6489    48.1853   186.0441 </r>
       <r>    -0.5942    37.1027   188.0716 </r>
       <r>    -0.5396    21.7140   189.2581 </r>
       <r>    -0.4849    22.1411   190.4681 </r>
       <r>    -0.4303    16.9997   191.3970 </r>
       <r>    -0.3756    33.7674   193.2423 </r>
       <r>    -0.3210    48.2167   195.8772 </r>
       <r>    -0.2664    57.4546   199.0169 </r>
       <r>    -0.2117    46.8624   201.5777 </r>
       <r>    -0.1571    48.0700   204.2046 </r>
       <r>    -0.1024    44.8124   206.6534 </r>
       <r>    -0.0478    50.4563   209.4107 </r>
       <r>     0.0069    34.2408   211.2818 </r>
       <r>     0.0615    24.0687   212.5971 </r>
       <r>     0.1162    16.8179   213.5161 </r>
       <r>     0.1708     9.4336   214.0316 </r>
       <r>     0.2255     9.5592   214.5540 </r>
       <r>     0.2801    20.0821   215.6514 </r>
       <r>     0.3347    28.8651   217.2288 </r>
       <r>     0.3894    27.5386   218.7337 </r>
       <r>     0.4440    27.4654   220.2345 </r>
       <r>     0.4987    15.9381   221.1055 </r>
       <r>     0.5533    11.8062   221.7507 </r>
       <r>     0.6080    37.4350   223.7963 </r>
       <r>     0.6626    26.8067   225.2612 </r>
       <r>     0.7173    13.6775   226.0086 </r>
       <r>     0.7719    20.7277   227.1413 </r>
       <r>     0.8266    11.1384   227.7500 </r>
       <r>     0.8812     0.0012   227.7501 </r>
       <r>     0.9359     9.8194   228.2867 </r>
       <r>     0.9905    29.4360   229.8952 </r>
       <r>     1.0451    29.6952   231.5179 </r>
       <r>     1.0998    32.3394   233.2852 </r>
       <r>     1.1544    27.1327   234.7679 </r>
       <r>     1.2091    15.1141   235.5938 </r>
       <r>     1.2637    32.7185   237.3817 </r>
       <r>     1.3184    26.7706   238.8446 </r>
       <r>     1.3730    34.1066   240.7084 </r>
       <r>     1.4277    54.1303   243.6664 </r>
       <r>     1.4823    67.7332   247.3678 </r>
       <r>     1.5370    68.0450   251.0862 </r>
       <r>     1.5916    96.4507   256.3568 </r>
       <r>     1.6462    75.8437   260.5014 </r>
       <r>     1.7009    73.9836   264.5443 </r>
       <r>     1.7555    43.8411   266.9400 </r>
       <r>     1.8102    49.4681   269.6433 </r>
       <r>     1.8648    44.1033   272.0533 </r>
       <r>     1.9195    25.1346   273.4268 </r>
       <r>     1.9741    24.1771   274.7480 </r>
       <r>     2.0288    31.6612   276.4782 </r>
       <r>     2.0834    68.3274   280.2120 </r>
       <r>     2.1381    98.5765   285.5988 </r>
       <r>     2.1927   119.6226   292.1357 </r>
       <r>     2.2474   115.7945   298.4634 </r>
       <r>     2.3020   107.2298   304.3231 </r>
       <r>     2.3566   123.2565   311.0585 </r>
       <r>     2.4113    80.7797   315.4729 </r>
       <r>     2.4659    72.7688   319.4494 </r>
       <r>     2.5206    46.9842   322.0169 </r>
       <r>     2.5752    36.8552   324.0309 </r>
       <r>     2.6299    54.2814   326.9972 </r>
       <r>     2.6845    53.1411   329.9012 </r>
       <r>     2.7392    91.7247   334.9136 </r>
       <r>     2.7938    90.0052   339.8320 </r>
       <r>     2.8485    93.5881   344.9462 </r>
       <r>     2.9031    96.2963   350.2084 </r>
       <r>     2.9577   100.8162   355.7176 </r>
       <r>     3.0124    92.5453   360.7748 </r>
       <r>     3.0670   106.9400   366.6187 </r>
       <r>     3.1217    73.2240   370.6201 </r>
       <r>     3.1763    61.4556   373.9784 </r>
       <r>     3.2310    83.9943   378.5684 </r>
       <r>     3.2856   102.0148   384.1431 </r>
       <r>     3.3403    91.3971   389.1376 </r>
       <r>     3.3949    89.9046   394.0505 </r>
       <r>     3.4496    90.5287   398.9975 </r>
       <r>     3.5042    90.9894   403.9698 </r>
       <r>     3.5589    81.8970   408.4452 </r>
       <r>     3.6135    85.6153   413.1237 </r>
       <r>     3.6681    60.6763   416.4394 </r>
       <r>     3.7228    73.6242   420.4627 </r>
       <r>     3.7774    88.3605   425.2912 </r>
       <r>     3.8321    89.4700   430.1804 </r>
       <r>     3.8867    91.2223   435.1653 </r>
       <r>     3.9414    71.7031   439.0837 </r>
       <r>     3.9960    57.4043   442.2206 </r>
       <r>     4.0507    61.4757   445.5800 </r>
       <r>     4.1053    70.3346   449.4235 </r>
       <r>     4.1600    68.5346   453.1686 </r>
       <r>     4.2146    84.6920   457.7967 </r>
       <r>     4.2692    60.3675   461.0956 </r>
       <r>     4.3239    72.3850   465.0512 </r>
       <r>     4.3785    73.3303   469.0584 </r>
       <r>     4.4332    81.5207   473.5132 </r>
       <r>     4.4878    78.2858   477.7912 </r>
       <r>     4.5425    42.8522   480.1329 </r>
       <r>     4.5971    64.5151   483.6584 </r>
       <r>     4.6518    52.9417   486.5515 </r>
       <r>     4.7064    37.7582   488.6148 </r>
       <r>     4.7611    29.7401   490.2400 </r>
       <r>     4.8157    33.5011   492.0707 </r>
       <r>     4.8704    25.8817   493.4850 </r>
       <r>     4.9250    41.6673   495.7620 </r>
       <r>     4.9796    37.6123   497.8173 </r>
       <r>     5.0343    42.4774   500.1386 </r>
       <r>     5.0889    23.3050   501.4121 </r>
       <r>     5.1436    32.3318   503.1789 </r>
       <r>     5.1982    10.4484   503.7499 </r>
       <r>     5.2529     3.7812   503.9565 </r>
       <r>     5.3075    11.6619   504.5938 </r>
       <r>     5.3622    14.1320   505.3660 </r>
       <r>     5.4168    14.1733   506.1405 </r>
       <r>     5.4715    28.4617   507.6958 </r>
       <r>     5.5261    17.4770   508.6509 </r>
       <r>     5.5807    28.4785   510.2072 </r>
       <r>     5.6354     5.3350   510.4987 </r>
       <r>     5.6900     9.0173   510.9914 </r>
       <r>     5.7447     4.6887   511.2477 </r>
       <r>     5.7993     9.1927   511.7500 </r>
       <r>     5.8540     0.0000   511.7500 </r>
       <r>     5.9086     1.9272   511.8553 </r>
       <r>     5.9633     2.6477   512.0000 </r>
       <r>     6.0179     0.0000   512.0000 </r>
       <r>     6.0726     0.0000   512.0000 </r>
       <r>     6.1272     3.8774   512.2119 </r>
       <r>     6.1819    13.7128   512.9612 </r>
       <r>     6.2365    23.5379   514.2475 </r>
       <r>     6.2911     4.6545   514.5018 </r>
       <r>     6.3458    31.0569   516.1990 </r>
       <r>     6.4004    19.4691   517.2629 </r>
       <r>     6.4551    21.6598   518.4465 </r>
       <r>     6.5097    27.6390   519.9569 </r>
       <r>     6.5644    23.8417   521.2597 </r>
       <r>     6.6190     8.8807   521.7450 </r>
       <r>     6.6737    21.7869   522.9356 </r>
       <r>     6.7283    18.6746   523.9561 </r>
       <r>     6.7830    43.8757   526.3537 </r>
       <r>     6.8376    27.7322   527.8692 </r>
       <r>     6.8922    35.0016   529.7819 </r>
       <r>     6.9469    35.3871   531.7156 </r>
       <r>     7.0015    52.3621   534.5770 </r>
       <r>     7.0562    33.5321   536.4094 </r>
       <r>     7.1108    39.6544   538.5764 </r>
       <r>     7.1655    25.3770   539.9632 </r>
       <r>     7.2201    25.0244   541.3307 </r>
       <r>     7.2748    52.7635   544.2140 </r>
       <r>     7.3294    68.8403   547.9759 </r>
       <r>     7.3841    90.4982   552.9212 </r>
       <r>     7.4387    76.4274   557.0977 </r>
       <r>     7.4934    92.4974   562.1523 </r>
       <r>     7.5480    86.8317   566.8973 </r>
       <r>     7.6026    87.8657   571.6989 </r>
       <r>     7.6573    75.9298   575.8482 </r>
       <r>     7.7119    82.4417   580.3533 </r>
       <r>     7.7666    95.0364   585.5466 </r>
       <r>     7.8212    83.7181   590.1215 </r>
       <r>     7.8759   105.3711   595.8796 </r>
       <r>     7.9305   102.2950   601.4696 </r>
       <r>     7.9852   102.5359   607.0729 </r>
       <r>     8.0398    86.2621   611.7868 </r>
       <r>     8.0945    79.6307   616.1383 </r>
       <r>     8.1491    57.8869   619.3016 </r>
       <r>     8.2037    88.0822   624.1149 </r>
       <r>     8.2584    92.0242   629.1437 </r>
       <r>     8.3130    77.3651   633.3714 </r>
       <r>     8.3677    79.0632   637.6919 </r>
       <r>     8.4223    61.4206   641.0483 </r>
       <r>     8.4770    40.2756   643.2492 </r>
       <r>     8.5316     0.1100   643.2552 </r>
       <r>     8.5863     7.0836   643.6423 </r>
       <r>     8.6409     6.5460   644.0000 </r>
       <r>     8.6956     0.0000   644.0000 </r>
       <r>     8.7502     0.0000   644.0000 </r>
       <r>     8.8049     0.0000   644.0000 </r>
       <r>     8.8595     0.0000   644.0000 </r>
       <r>     8.9141     0.0000   644.0000 </r>
       <r>     8.9688     0.0000   644.0000 </r>
       <r>     9.0234     0.0000   644.0000 </r>
       <r>     9.0781     0.0000   644.0000 </r>
       <r>     9.1327     0.0000   644.0000 </r>
       <r>     9.1874     0.0000   644.0000 </r>
       <r>     9.2420     0.0000   644.0000 </r>
       <r>     9.2967     0.0000   644.0000 </r>
       <r>     9.3513     0.0000   644.0000 </r>
      </set>
     </set>
    </array>
   </total>
  </dos>
 </calculation>
 <structure name="finalpos" >
  <crystal>
   <varray name="basis" >
    <v>       0.00000000      10.93733369      10.93733369 </v>
    <v>      10.93733369       0.00000000      10.93733369 </v>
    <v>      10.93733369      10.93733369       0.00000000 </v>
   </varray>
   <i name="volume">   2616.76295363 </i>
   <varray name="rec_basis" >
    <v>      -0.04571498       0.04571498       0.04571498 </v>
    <v>       0.04571498      -0.04571498       0.04571498 </v>
    <v>       0.04571498       0.04571498      -0.04571498 </v>
   </varray>
  </crystal>
  <varray name="positions" >
   <v>       0.00645043       0.99972676       0.00020504 </v>
   <v>       0.25663966       0.99942948       0.98947650 </v>
   <v>       0.50400186       0.99652753       0.99764565 </v>
   <v>       0.74633823       0.01383781       0.98611889 </v>
   <v>       0.99701432       0.24249159       0.99689867 </v>
   <v>       0.24198617       0.24363236       0.00843925 </v>
   <v>       0.49951899       0.24262643       0.98882421 </v>
   <v>       0.76325066       0.24070569       0.99519768 </v>
   <v>       0.00567293       0.50234045       0.98519255 </v>
   <v>       0.25107692       0.49995054       0.99819224 </v>
   <v>       0.48617754       0.50546463       0.99691990 </v>
   <v>       0.75428437       0.49186057       0.00606035 </v>
   <v>       0.00239541       0.75053058       0.99523658 </v>
   <v>       0.24683186       0.74897236       0.00094579 </v>
   <v>       0.49689215       0.75229249       0.00293974 </v>
   <v>       0.74972164       0.75020497       0.99617552 </v>
   <v>       0.00352845       0.99516831       0.24676290 </v>
   <v>       0.25942380       0.00488641       0.24783206 </v>
   <v>       0.50249949       0.00470608       0.24136522 </v>
   <v>       0.75839022       0.99934447       0.24986068 </v>
   <v>       0.99731617       0.24345813       0.24636022 </v>
   <v>       0.25702340       0.24494149       0.24934834 </v>
   <v>       0.50114083       0.25795344       0.24494035 </v>
   <v>       0.75300030       0.25489049       0.25117051 </v>
   <v>       0.01069056       0.50540566       0.24680443 </v>
   <v>       0.24486916       0.49375811       0.25607189 </v>
   <v>       0.49924956       0.50266338       0.25703671 </v>
   <v>       0.74211160       0.50381321       0.24547013 </v>
   <v>       0.00509300       0.75258074       0.24376622 </v>
   <v>       0.24683272       0.75148002       0.24869006 </v>
   <v>       0.50418923       0.75346221       0.24673591 </v>
   <v>       0.75421722       0.74383067       0.25266113 </v>
   <v>       0.00381951       0.99662686       0.50014412 </v>
   <v>       0.25157014       0.99434282       0.49853795 </v>
   <v>       0.48606514       0.00723785       0.50005858 </v>
   <v>       0.74799873       0.01099584       0.48958997 </v>
   <v>       0.00076453       0.25167095       0.48900239 </v>
   <v>       0.24452384       0.25408680       0.50169422 </v>
   <v>       0.49764804       0.25382397       0.50412026 </v>
   <v>       0.74912982       0.25398179       0.49800351 </v>
   <v>       0.00202425       0.50614390       0.49869426 </v>
   <v>       0.24477215       0.50586622       0.49607756 </v>
   <v>       0.50015897       0.49477035       0.49001416 </v>
   <v>       0.75408508       0.49411439       0.49526024 </v>
   <v>       0.00142249       0.74582873       0.51183980 </v>
   <v>       0.25000649       0.75211098       0.49776063 </v>
   <v>       0.49706393       0.74792275       0.50081408 </v>
   <v>       0.74814380       0.74486983       0.50737737 </v>
   <v>       0.00789879       0.00287029       0.74460835 </v>
   <v>       0.24183852       0.99872956       0.75592802 </v>
   <v>       0.52035193       0.99646821       0.74658335 </v>
   <v>       0.75042743       0.00284742       0.75179171 </v>
   <v>       0.00377755       0.25973408       0.73683961 </v>
   <v>       0.25316875       0.24731571       0.74780026 </v>
   <v>       0.50371308       0.24843885       0.75178498 </v>
   <v>       0.74628969       0.25520204       0.74094642 </v>
   <v>       0.00259026       0.48756056       0.75005069 </v>
   <v>       0.24968804       0.50700280       0.74488158 </v>
   <v>       0.50070855       0.49687101       0.74266659 </v>
   <v>       0.74674323       0.49925791       0.75431654 </v>
   <v>       0.99999108       0.75181808       0.76068800 </v>
   <v>       0.25209337       0.74641695       0.76242620 </v>
   <v>       0.51707634       0.74171367       0.74083706 </v>
   <v>       0.74720564       0.74789251       0.75295894 </v>
   <v>       0.07219643       0.05839454       0.06890111 </v>
   <v>       0.30353549       0.05963620       0.06317202 </v>
   <v>       0.56758372       0.06058540       0.06608557 </v>
   <v>       0.81553200       0.07051102       0.06236596 </v>
   <v>       0.06360903       0.31574840       0.07230371 </v>
   <v>       0.30563637       0.31678045       0.06847719 </v>
   <v>       0.57229785       0.30894676       0.06305505 </v>
   <v>       0.80979899       0.31218567       0.06087447 </v>
   <v>       0.05590742       0.55948166       0.06758259 </v>
   <v>       0.30263922       0.55975654       0.07418498 </v>
   <v>       0.57359194       0.56843536       0.05133502 </v>
   <v>       0.81334326       0.55978710       0.06722882 </v>
   <v>       0.05610936       0.81023645       0.06413397 </v>
   <v>       0.31487375       0.81067814       0.07173156 </v>
   <v>       0.56936421       0.79810078       0.06418705 </v>
   <v>       0.81670608       0.80231875       0.07422619 </v>
   <v>       0.06781837       0.05683427       0.31563880 </v>
   <v>       0.31579642       0.06615175       0.31451883 </v>
   <v>       0.56633009       0.04694282       0.30821111 </v>
   <v>       0.81051630       0.06309418       0.30884800 </v>
   <v>       0.06570309       0.31878285       0.30264555 </v>
   <v>       0.30393582       0.30969308       0.32458818 </v>
   <v>       0.56538620       0.32343340       0.30620550 </v>
   <v>       0.79881226       0.32322131       0.31231553 </v>
   <v>       0.04838138       0.58079456       0.31311042 </v>
   <v>       0.31475183       0.57020187       0.31022730 </v>
   <v>       0.55300824       0.57785203       0.31528913 </v>
   <v>       0.81248794       0.56421853       0.30640482 </v>
   <v>       0.06813908       0.82141925       0.30709958 </v>
   <v>       0.32064272       0.81044677       0.31197668 </v>
   <v>       0.55878032       0.81397233       0.30699802 </v>
   <v>       0.82123032       0.80645864       0.31289234 </v>
   <v>       0.07168022       0.05825503       0.55937256 </v>
   <v>       0.30455814       0.07368472       0.56046692 </v>
   <v>       0.55538547       0.06036285       0.56798316 </v>
   <v>       0.81747704       0.06435364       0.56893375 </v>
   <v>       0.06718925       0.30865235       0.56233708 </v>
   <v>       0.29906525       0.31843408       0.55810881 </v>
   <v>       0.56210260       0.31106663       0.56345699 </v>
   <v>       0.81409205       0.31228814       0.56368561 </v>
   <v>       0.05141330       0.57224459       0.55577503 </v>
   <v>       0.31466860       0.56955206       0.55748810 </v>
   <v>       0.56513610       0.55995822       0.56559563 </v>
   <v>       0.81373642       0.55483787       0.56583267 </v>
   <v>       0.06989344       0.80123144       0.56614364 </v>
   <v>       0.31912050       0.80673771       0.56382596 </v>
   <v>       0.55044019       0.81231258       0.55975843 </v>
   <v>       0.81357386       0.81247531       0.56379156 </v>
   <v>       0.06924440       0.06078011       0.79917418 </v>
   <v>       0.32435262       0.05082409       0.79720019 </v>
   <v>       0.56591708       0.06140523       0.81797256 </v>
   <v>       0.81097986       0.06816987       0.80713804 </v>
   <v>       0.06633318       0.31725085       0.80450925 </v>
   <v>       0.30442800       0.31660667       0.81583890 </v>
   <v>       0.56914937       0.29933759       0.80981662 </v>
   <v>       0.80146276       0.31975205       0.81167075 </v>
   <v>       0.05819476       0.55787775       0.81114982 </v>
   <v>       0.30876483       0.55988597       0.81554063 </v>
   <v>       0.55729039       0.56854832       0.80669705 </v>
   <v>       0.82566335       0.55953772       0.80011223 </v>
   <v>       0.07237230       0.80803951       0.80769573 </v>
   <v>       0.31384055       0.80535189       0.81955666 </v>
   <v>       0.57480728       0.80152321       0.81127061 </v>
   <v>       0.82611151       0.79258945       0.80740569 </v>
  </varray>
 </structure>
</modeling>
