potpaw_PBE@./ARUN.APL1ZEROSTATE         
           1
     0.000000   10.937334   10.937334
    10.937334    0.000000   10.937334
    10.937334   10.937334    0.000000
   Si
 128
Direct configuration=     1
   0.00645043  0.99972676  0.00020504
   0.25663966  0.99942948  0.98947650
   0.50400186  0.99652753  0.99764565
   0.74633823  0.01383781  0.98611889
   0.99701432  0.24249159  0.99689867
   0.24198617  0.24363236  0.00843925
   0.49951899  0.24262643  0.98882421
   0.76325066  0.24070569  0.99519768
   0.00567293  0.50234045  0.98519255
   0.25107692  0.49995054  0.99819224
   0.48617754  0.50546463  0.99691990
   0.75428437  0.49186057  0.00606035
   0.00239541  0.75053058  0.99523658
   0.24683186  0.74897236  0.00094579
   0.49689215  0.75229249  0.00293974
   0.74972164  0.75020497  0.99617552
   0.00352845  0.99516831  0.24676290
   0.25942380  0.00488641  0.24783206
   0.50249949  0.00470608  0.24136522
   0.75839022  0.99934447  0.24986068
   0.99731617  0.24345813  0.24636022
   0.25702340  0.24494149  0.24934834
   0.50114083  0.25795344  0.24494035
   0.75300030  0.25489049  0.25117051
   0.01069056  0.50540566  0.24680443
   0.24486916  0.49375811  0.25607189
   0.49924956  0.50266338  0.25703671
   0.74211160  0.50381321  0.24547013
   0.00509300  0.75258074  0.24376622
   0.24683272  0.75148002  0.24869006
   0.50418923  0.75346221  0.24673591
   0.75421722  0.74383067  0.25266113
   0.00381951  0.99662686  0.50014412
   0.25157014  0.99434282  0.49853795
   0.48606514  0.00723785  0.50005858
   0.74799873  0.01099584  0.48958997
   0.00076453  0.25167095  0.48900239
   0.24452384  0.25408680  0.50169422
   0.49764804  0.25382397  0.50412026
   0.74912982  0.25398179  0.49800351
   0.00202425  0.50614390  0.49869426
   0.24477215  0.50586622  0.49607756
   0.50015897  0.49477035  0.49001416
   0.75408508  0.49411439  0.49526024
   0.00142249  0.74582873  0.51183980
   0.25000649  0.75211098  0.49776063
   0.49706393  0.74792275  0.50081408
   0.74814380  0.74486983  0.50737737
   0.00789879  0.00287029  0.74460835
   0.24183852  0.99872956  0.75592802
   0.52035193  0.99646821  0.74658335
   0.75042743  0.00284742  0.75179171
   0.00377755  0.25973408  0.73683961
   0.25316875  0.24731571  0.74780026
   0.50371308  0.24843885  0.75178498
   0.74628969  0.25520204  0.74094642
   0.00259026  0.48756056  0.75005069
   0.24968804  0.50700280  0.74488158
   0.50070855  0.49687101  0.74266659
   0.74674323  0.49925791  0.75431654
   0.99999108  0.75181808  0.76068800
   0.25209337  0.74641695  0.76242620
   0.51707634  0.74171367  0.74083706
   0.74720564  0.74789251  0.75295894
   0.07219643  0.05839454  0.06890111
   0.30353549  0.05963620  0.06317202
   0.56758372  0.06058540  0.06608557
   0.81553200  0.07051102  0.06236596
   0.06360903  0.31574840  0.07230371
   0.30563637  0.31678045  0.06847719
   0.57229785  0.30894676  0.06305505
   0.80979899  0.31218567  0.06087447
   0.05590742  0.55948166  0.06758259
   0.30263922  0.55975654  0.07418498
   0.57359194  0.56843536  0.05133502
   0.81334326  0.55978710  0.06722882
   0.05610936  0.81023645  0.06413397
   0.31487375  0.81067814  0.07173156
   0.56936421  0.79810078  0.06418705
   0.81670608  0.80231875  0.07422619
   0.06781837  0.05683427  0.31563880
   0.31579642  0.06615175  0.31451883
   0.56633009  0.04694282  0.30821111
   0.81051630  0.06309418  0.30884800
   0.06570309  0.31878285  0.30264555
   0.30393582  0.30969308  0.32458818
   0.56538620  0.32343340  0.30620550
   0.79881226  0.32322131  0.31231553
   0.04838138  0.58079456  0.31311042
   0.31475183  0.57020187  0.31022730
   0.55300824  0.57785203  0.31528913
   0.81248794  0.56421853  0.30640482
   0.06813908  0.82141925  0.30709958
   0.32064272  0.81044677  0.31197668
   0.55878032  0.81397233  0.30699802
   0.82123032  0.80645864  0.31289234
   0.07168022  0.05825503  0.55937256
   0.30455814  0.07368472  0.56046692
   0.55538547  0.06036285  0.56798316
   0.81747704  0.06435364  0.56893375
   0.06718925  0.30865235  0.56233708
   0.29906525  0.31843408  0.55810881
   0.56210260  0.31106663  0.56345699
   0.81409205  0.31228814  0.56368561
   0.05141330  0.57224459  0.55577503
   0.31466860  0.56955206  0.55748810
   0.56513610  0.55995822  0.56559563
   0.81373642  0.55483787  0.56583267
   0.06989344  0.80123144  0.56614364
   0.31912050  0.80673771  0.56382596
   0.55044019  0.81231258  0.55975843
   0.81357386  0.81247531  0.56379156
   0.06924440  0.06078011  0.79917418
   0.32435262  0.05082409  0.79720019
   0.56591708  0.06140523  0.81797256
   0.81097986  0.06816987  0.80713804
   0.06633318  0.31725085  0.80450925
   0.30442800  0.31660667  0.81583890
   0.56914937  0.29933759  0.80981662
   0.80146276  0.31975205  0.81167075
   0.05819476  0.55787775  0.81114982
   0.30876483  0.55988597  0.81554063
   0.55729039  0.56854832  0.80669705
   0.82566335  0.55953772  0.80011223
   0.07237230  0.80803951  0.80769573
   0.31384055  0.80535189  0.81955666
   0.57480728  0.80152321  0.81127061
   0.82611151  0.79258945  0.80740569
