 128 128   0   0
  0.2044346E+02  0.1546773E-08  0.1546773E-08  0.1546773E-08  0.5000000E-15
  1.000000000000000E-004
  CAR 
 potpaw_PBE@./ARUN.APL1ZEROSTATE         
      9.31301132     -7.04024206  301      5.99466366      1.00000000
     -7.040  0.0000E+00  0.0000E+00
     -6.986  0.0000E+00  0.0000E+00
     -6.931  0.0000E+00  0.0000E+00
     -6.877  0.0000E+00  0.0000E+00
     -6.822  0.0000E+00  0.0000E+00
     -6.768  0.0000E+00  0.0000E+00
     -6.713  0.0000E+00  0.0000E+00
     -6.659  0.0000E+00  0.0000E+00
     -6.604  0.0000E+00  0.0000E+00
     -6.550  0.0000E+00  0.0000E+00
     -6.495  0.0000E+00  0.0000E+00
     -6.441  0.0000E+00  0.0000E+00
     -6.386  0.0000E+00  0.0000E+00
     -6.332  0.2134E-05  0.1164E-06
     -6.277  0.4575E+01  0.2494E+00
     -6.223  0.1160E-01  0.2500E+00
     -6.168  0.2573E+00  0.2640E+00
     -6.114  0.1686E+02  0.1183E+01
     -6.059  0.2641E+02  0.2623E+01
     -6.005  0.1837E+02  0.3624E+01
     -5.950  0.2316E+01  0.3750E+01
     -5.896  0.5214E-08  0.3750E+01
     -5.841  0.1137E+02  0.4370E+01
     -5.786  0.7634E+01  0.4786E+01
     -5.732  0.2107E+02  0.5934E+01
     -5.677  0.3722E+02  0.7963E+01
     -5.623  0.1624E+02  0.8848E+01
     -5.568  0.3153E+02  0.1057E+02
     -5.514  0.4670E+02  0.1311E+02
     -5.459  0.7312E+01  0.1351E+02
     -5.405  0.1361E+02  0.1425E+02
     -5.350  0.9116E+01  0.1475E+02
     -5.296  0.4973E+01  0.1502E+02
     -5.241  0.8772E+01  0.1550E+02
     -5.187  0.2553E+02  0.1689E+02
     -5.132  0.3297E+02  0.1869E+02
     -5.078  0.4362E+02  0.2107E+02
     -5.023  0.4784E+02  0.2367E+02
     -4.969  0.3653E+02  0.2566E+02
     -4.914  0.3513E+02  0.2758E+02
     -4.860  0.1896E+02  0.2861E+02
     -4.805  0.1955E+02  0.2968E+02
     -4.751  0.3826E+02  0.3176E+02
     -4.696  0.2732E+02  0.3325E+02
     -4.642  0.4330E+02  0.3561E+02
     -4.587  0.3921E+02  0.3775E+02
     -4.533  0.3183E+02  0.3949E+02
     -4.478  0.2808E+02  0.4102E+02
     -4.424  0.2012E+02  0.4211E+02
     -4.369  0.2338E+02  0.4339E+02
     -4.315  0.2677E+02  0.4485E+02
     -4.260  0.4031E+02  0.4705E+02
     -4.206  0.4783E+02  0.4965E+02
     -4.151  0.8451E+02  0.5426E+02
     -4.097  0.5250E+02  0.5712E+02
     -4.042  0.5313E+02  0.6002E+02
     -3.988  0.3460E+02  0.6190E+02
     -3.933  0.5113E+02  0.6469E+02
     -3.879  0.5922E+02  0.6792E+02
     -3.824  0.4634E+02  0.7044E+02
     -3.770  0.5271E+02  0.7332E+02
     -3.715  0.6371E+02  0.7679E+02
     -3.661  0.3000E+02  0.7843E+02
     -3.606  0.1890E+02  0.7946E+02
     -3.552  0.3836E+02  0.8155E+02
     -3.497  0.3787E+02  0.8361E+02
     -3.443  0.4821E+02  0.8624E+02
     -3.388  0.5941E+02  0.8948E+02
     -3.334  0.6492E+02  0.9302E+02
     -3.279  0.3431E+02  0.9489E+02
     -3.224  0.3584E+02  0.9684E+02
     -3.170  0.3374E+02  0.9868E+02
     -3.115  0.3809E+02  0.1008E+03
     -3.061  0.4807E+02  0.1034E+03
     -3.006  0.3934E+02  0.1055E+03
     -2.952  0.5391E+02  0.1085E+03
     -2.897  0.2810E+02  0.1100E+03
     -2.843  0.1636E+02  0.1109E+03
     -2.788  0.4114E+02  0.1131E+03
     -2.734  0.3024E+02  0.1148E+03
     -2.679  0.3262E+02  0.1166E+03
     -2.625  0.4137E+02  0.1188E+03
     -2.570  0.2892E+02  0.1204E+03
     -2.516  0.1806E+02  0.1214E+03
     -2.461  0.2002E+02  0.1225E+03
     -2.407  0.5340E+01  0.1227E+03
     -2.352  0.4475E+01  0.1230E+03
     -2.298  0.3355E+01  0.1232E+03
     -2.243  0.1717E+02  0.1241E+03
     -2.189  0.2715E+02  0.1256E+03
     -2.134  0.3039E+02  0.1272E+03
     -2.080  0.2255E+02  0.1285E+03
     -2.025  0.2240E+02  0.1297E+03
     -1.971  0.1926E+02  0.1307E+03
     -1.916  0.1232E+02  0.1314E+03
     -1.862  0.1654E+02  0.1323E+03
     -1.807  0.7215E+01  0.1327E+03
     -1.753  0.5202E+01  0.1330E+03
     -1.698  0.9404E+01  0.1335E+03
     -1.644  0.3076E+02  0.1352E+03
     -1.589  0.1613E+02  0.1361E+03
     -1.535  0.2870E+02  0.1376E+03
     -1.480  0.4536E+02  0.1401E+03
     -1.426  0.2832E+02  0.1416E+03
     -1.371  0.5099E+02  0.1444E+03
     -1.317  0.3511E+02  0.1463E+03
     -1.262  0.6226E+02  0.1497E+03
     -1.208  0.5714E+02  0.1529E+03
     -1.153  0.6228E+02  0.1562E+03
     -1.099  0.6178E+02  0.1596E+03
     -1.044  0.5591E+02  0.1627E+03
     -0.990  0.7737E+02  0.1669E+03
     -0.935  0.7116E+02  0.1708E+03
     -0.881  0.5871E+02  0.1740E+03
     -0.826  0.5194E+02  0.1768E+03
     -0.771  0.7074E+02  0.1806E+03
     -0.717  0.4518E+02  0.1831E+03
     -0.662  0.3594E+02  0.1851E+03
     -0.608  0.2698E+02  0.1865E+03
     -0.553  0.3452E+02  0.1884E+03
     -0.499  0.2414E+02  0.1897E+03
     -0.444  0.3689E+02  0.1917E+03
     -0.390  0.3101E+02  0.1934E+03
     -0.335  0.4266E+02  0.1958E+03
     -0.281  0.4690E+02  0.1983E+03
     -0.226  0.4538E+02  0.2008E+03
     -0.172  0.4784E+02  0.2034E+03
     -0.117  0.5052E+02  0.2062E+03
     -0.063  0.4879E+02  0.2088E+03
     -0.008  0.3004E+02  0.2105E+03
      0.046  0.2594E+02  0.2119E+03
      0.101  0.2146E+02  0.2130E+03
      0.155  0.1757E+02  0.2140E+03
      0.210  0.1648E+02  0.2149E+03
      0.264  0.2026E+02  0.2160E+03
      0.319  0.2006E+02  0.2171E+03
      0.373  0.1531E+02  0.2179E+03
      0.428  0.2852E+02  0.2195E+03
      0.482  0.1588E+02  0.2203E+03
      0.537  0.3458E+02  0.2222E+03
      0.591  0.2808E+02  0.2238E+03
      0.646  0.1591E+02  0.2246E+03
      0.700  0.1861E+02  0.2256E+03
      0.755  0.2339E+02  0.2269E+03
      0.809  0.6509E+01  0.2273E+03
      0.864  0.1299E+02  0.2280E+03
      0.918  0.1318E+02  0.2287E+03
      0.973  0.1750E+02  0.2297E+03
      1.027  0.2000E+02  0.2307E+03
      1.082  0.2374E+02  0.2320E+03
      1.136  0.3402E+02  0.2339E+03
      1.191  0.3334E+02  0.2357E+03
      1.245  0.1784E+02  0.2367E+03
      1.300  0.2549E+02  0.2381E+03
      1.354  0.4163E+02  0.2403E+03
      1.409  0.4423E+02  0.2428E+03
      1.463  0.6022E+02  0.2460E+03
      1.518  0.7207E+02  0.2500E+03
      1.572  0.8478E+02  0.2546E+03
      1.627  0.8331E+02  0.2591E+03
      1.681  0.5541E+02  0.2621E+03
      1.736  0.7048E+02  0.2660E+03
      1.791  0.6542E+02  0.2696E+03
      1.845  0.3306E+02  0.2714E+03
      1.900  0.3237E+02  0.2731E+03
      1.954  0.1665E+02  0.2740E+03
      2.009  0.4198E+02  0.2763E+03
      2.063  0.7618E+02  0.2805E+03
      2.118  0.7673E+02  0.2847E+03
      2.172  0.1009E+03  0.2902E+03
      2.227  0.1154E+03  0.2964E+03
      2.281  0.9526E+02  0.3016E+03
      2.336  0.1039E+03  0.3073E+03
      2.390  0.9724E+02  0.3126E+03
      2.445  0.8816E+02  0.3174E+03
      2.499  0.8141E+02  0.3218E+03
      2.554  0.4309E+02  0.3242E+03
      2.608  0.4157E+02  0.3265E+03
      2.663  0.5812E+02  0.3296E+03
      2.717  0.6893E+02  0.3334E+03
      2.772  0.8268E+02  0.3379E+03
      2.826  0.8873E+02  0.3427E+03
      2.881  0.1024E+03  0.3483E+03
      2.935  0.9847E+02  0.3537E+03
      2.990  0.8234E+02  0.3582E+03
      3.044  0.8844E+02  0.3630E+03
      3.099  0.9094E+02  0.3679E+03
      3.153  0.7512E+02  0.3720E+03
      3.208  0.8319E+02  0.3766E+03
      3.262  0.8753E+02  0.3813E+03
      3.317  0.1021E+03  0.3869E+03
      3.371  0.9565E+02  0.3921E+03
      3.426  0.8268E+02  0.3966E+03
      3.480  0.1042E+03  0.4023E+03
      3.535  0.7272E+02  0.4063E+03
      3.589  0.8502E+02  0.4109E+03
      3.644  0.7277E+02  0.4149E+03
      3.698  0.8947E+02  0.4198E+03
      3.753  0.7108E+02  0.4236E+03
      3.807  0.8036E+02  0.4280E+03
      3.862  0.7573E+02  0.4321E+03
      3.916  0.7597E+02  0.4363E+03
      3.971  0.7893E+02  0.4406E+03
      4.025  0.7709E+02  0.4448E+03
      4.080  0.6298E+02  0.4482E+03
      4.134  0.7123E+02  0.4521E+03
      4.189  0.5728E+02  0.4552E+03
      4.244  0.6595E+02  0.4588E+03
      4.298  0.7923E+02  0.4631E+03
      4.353  0.8136E+02  0.4676E+03
      4.407  0.6979E+02  0.4714E+03
      4.462  0.4797E+02  0.4740E+03
      4.516  0.6095E+02  0.4773E+03
      4.571  0.5260E+02  0.4802E+03
      4.625  0.6215E+02  0.4836E+03
      4.680  0.5169E+02  0.4864E+03
      4.734  0.5880E+02  0.4896E+03
      4.789  0.3619E+02  0.4916E+03
      4.843  0.2824E+02  0.4931E+03
      4.898  0.2750E+02  0.4946E+03
      4.952  0.4231E+02  0.4969E+03
      5.007  0.1812E+02  0.4979E+03
      5.061  0.3851E+02  0.5000E+03
      5.116  0.3544E+02  0.5019E+03
      5.170  0.2392E+02  0.5032E+03
      5.225  0.1018E+02  0.5038E+03
      5.279  0.1079E+02  0.5044E+03
      5.334  0.2102E+02  0.5055E+03
      5.388  0.4270E+01  0.5058E+03
      5.443  0.2117E+02  0.5069E+03
      5.497  0.1552E+02  0.5078E+03
      5.552  0.1567E+02  0.5086E+03
      5.606  0.1408E+02  0.5094E+03
      5.661  0.2529E+02  0.5108E+03
      5.715  0.1376E+02  0.5115E+03
      5.770  0.2009E-09  0.5115E+03
      5.824  0.4078E+01  0.5117E+03
      5.879  0.5083E+00  0.5118E+03
      5.933  0.4480E+01  0.5120E+03
      5.988  0.1063E+00  0.5120E+03
      6.042  0.6595E-07  0.5120E+03
      6.097  0.4539E+01  0.5122E+03
      6.151  0.1679E+02  0.5132E+03
      6.206  0.2259E+02  0.5144E+03
      6.260  0.1373E+02  0.5151E+03
      6.315  0.1418E+02  0.5159E+03
      6.369  0.1086E+02  0.5165E+03
      6.424  0.2329E+02  0.5178E+03
      6.478  0.1921E+02  0.5188E+03
      6.533  0.2121E+02  0.5200E+03
      6.587  0.2822E+02  0.5215E+03
      6.642  0.1850E+02  0.5225E+03
      6.696  0.2139E+02  0.5237E+03
      6.751  0.3420E+02  0.5256E+03
      6.806  0.3402E+02  0.5274E+03
      6.860  0.3334E+02  0.5292E+03
      6.915  0.3609E+02  0.5312E+03
      6.969  0.3519E+02  0.5331E+03
      7.024  0.5062E+02  0.5359E+03
      7.078  0.3309E+02  0.5377E+03
      7.133  0.2694E+02  0.5391E+03
      7.187  0.4056E+02  0.5414E+03
      7.242  0.4499E+02  0.5438E+03
      7.296  0.6613E+02  0.5474E+03
      7.351  0.6652E+02  0.5510E+03
      7.405  0.8202E+02  0.5555E+03
      7.460  0.9219E+02  0.5605E+03
      7.514  0.7801E+02  0.5648E+03
      7.569  0.9255E+02  0.5698E+03
      7.623  0.8462E+02  0.5744E+03
      7.678  0.8276E+02  0.5790E+03
      7.732  0.8871E+02  0.5838E+03
      7.787  0.9313E+02  0.5889E+03
      7.841  0.9484E+02  0.5940E+03
      7.896  0.9728E+02  0.5993E+03
      7.950  0.8051E+02  0.6037E+03
      8.005  0.8425E+02  0.6083E+03
      8.059  0.8481E+02  0.6129E+03
      8.114  0.7714E+02  0.6172E+03
      8.168  0.9437E+02  0.6223E+03
      8.223  0.8210E+02  0.6268E+03
      8.277  0.1001E+03  0.6322E+03
      8.332  0.7998E+02  0.6366E+03
      8.386  0.6497E+02  0.6401E+03
      8.441  0.4453E+02  0.6426E+03
      8.495  0.1265E+02  0.6433E+03
      8.550  0.5033E+01  0.6435E+03
      8.604  0.8714E+01  0.6440E+03
      8.659  0.0000E+00  0.6440E+03
      8.713  0.0000E+00  0.6440E+03
      8.768  0.0000E+00  0.6440E+03
      8.822  0.0000E+00  0.6440E+03
      8.877  0.0000E+00  0.6440E+03
      8.931  0.0000E+00  0.6440E+03
      8.986  0.0000E+00  0.6440E+03
      9.040  0.0000E+00  0.6440E+03
      9.095  0.0000E+00  0.6440E+03
      9.149  0.0000E+00  0.6440E+03
      9.204  0.0000E+00  0.6440E+03
      9.259  0.0000E+00  0.6440E+03
      9.313  0.0000E+00  0.6440E+03
