 vasp.5.4.4.18Apr17-6-g9f103f2a35 (build Nov 08 2017 09:05:29) complex          
  
 executed on          Intel_17.33 date 2020.07.18  19:16:14
 running on   32 total cores
 distrk:  each k-point on   32 cores,    1 groups
 distr:  one band on NCORES_PER_BAND=  16 cores,    2 groups


--------------------------------------------------------------------------------------------------------


 INCAR:
 POTCAR:   PAW_PBE Si 05Jan2001                   

 ----------------------------------------------------------------------------- 
|                                                                             |
|           W    W    AA    RRRRR   N    N  II  N    N   GGGG   !!!           |
|           W    W   A  A   R    R  NN   N  II  NN   N  G    G  !!!           |
|           W    W  A    A  R    R  N N  N  II  N N  N  G       !!!           |
|           W WW W  AAAAAA  RRRRR   N  N N  II  N  N N  G  GGG   !            |
|           WW  WW  A    A  R   R   N   NN  II  N   NN  G    G                |
|           W    W  A    A  R    R  N    N  II  N    N   GGGG   !!!           |
|                                                                             |
|      For optimal performance we recommend to set                            |
|        NCORE= 4 - approx SQRT( number of cores)                             |
|      NCORE specifies how many cores store one orbital (NPAR=cpu/NCORE).     |
|      This setting can  greatly improve the performance of VASP for DFT.     |
|      The default,   NCORE=1            might be grossly inefficient         |
|      on modern multi-core architectures or massively parallel machines.     |
|      Do your own testing !!!!                                               |
|      Unfortunately you need to use the default for GW and RPA calculations. |
|      (for HF NCORE is supported but not extensively tested yet)             |
|                                                                             |
 ----------------------------------------------------------------------------- 

 POTCAR:   PAW_PBE Si 05Jan2001                   
   VRHFIN =Si: s2p2                                                             
   LEXCH  = PE                                                                  
   EATOM  =   103.0669 eV,    7.5752 Ry                                         
                                                                                
   TITEL  = PAW_PBE Si 05Jan2001                                                
   LULTRA =        F    use ultrasoft PP ?                                      
   IUNSCR =        1    unscreen: 0-lin 1-nonlin 2-no                           
   RPACOR =    1.500    partial core radius                                     
   POMASS =   28.085; ZVAL   =    4.000    mass and valenz                      
   RCORE  =    1.900    outmost cutoff radius                                   
   RWIGS  =    2.480; RWIGS  =    1.312    wigner-seitz radius (au A)           
   ENMAX  =  245.345; ENMIN  =  184.009 eV                                      
   ICORE  =        2    local potential                                         
   LCOR   =        T    correct aug charges                                     
   LPAW   =        T    paw PP                                                  
   EAUG   =  322.069                                                            
   DEXC   =    -.007                                                            
   RMAX   =    2.944    core radius for proj-oper                               
   RAUG   =    1.300    factor for augmentation sphere                          
   RDEP   =    1.993    radius for radial grids                                 
   QCUT   =   -4.246; QGAM   =    8.493    optimization parameters              
                                                                                
   Description                                                                  
     l     E      TYP  RCUT    TYP  RCUT                                        
     0   .000     23  1.900                                                     
     0   .000     23  1.900                                                     
     1   .000     23  1.900                                                     
     1   .000     23  1.900                                                     
     2   .000      7  1.900                                                     
  local pseudopotential read in
  partial core-charges read in
  atomic valenz-charges read in
  non local Contribution for L=           0  read in
    real space projection operators read in
  non local Contribution for L=           0  read in
    real space projection operators read in
  non local Contribution for L=           1  read in
    real space projection operators read in
  non local Contribution for L=           1  read in
    real space projection operators read in
    PAW grid and wavefunctions read in
 
   number of l-projection  operators is LMAX  =           4
   number of lm-projection operators is LMMAX =           8
 

 ----------------------------------------------------------------------------- 
|                                                                             |
|  ADVICE TO THIS USER RUNNING 'VASP/VAMP'   (HEAR YOUR MASTER'S VOICE ...):  |
|                                                                             |
|      You have a (more or less) 'large supercell' and for larger cells       |
|      it might be more efficient to use real space projection operators      |
|      So try LREAL= Auto  in the INCAR   file.                               |
|      Mind: If you want to do a very accurate calculations keep the          |
|      reciprocal projection scheme          (i.e. LREAL=.FALSE.)             |
|                                                                             |
 ----------------------------------------------------------------------------- 

 PAW_PBE Si 05Jan2001                   :
 energy of atom  1       EATOM= -103.0669
 kinetic energy error for atom=    0.0006 (will be added to EATOM!!)
 
 
 POSCAR: kk                                      
  positions in direct lattice
  No initial velocities read in
 exchange correlation table for  LEXCH =        8
   RHO(1)=    0.500       N(1)  =     2000
   RHO(2)=  100.500       N(2)  =     4000
 


--------------------------------------------------------------------------------------------------------


 ion  position               nearest neighbor table
   1  0.988  0.994  0.003-  68 2.24  77 2.39  65 2.46 113 2.50
   2  0.246  0.007  0.001-  66 2.21  65 2.41 114 2.41  78 2.44
   3  0.497  0.998  0.010- 115 2.38  67 2.40  66 2.42  79 2.46
   4  0.745  0.002  0.996-  80 2.24  68 2.33  67 2.35 116 2.39
   5  0.002  0.244  0.012-  65 2.27  69 2.34  72 2.36 117 2.59
   6  0.255  0.239  0.002-  66 2.18 118 2.28  70 2.45  69 2.46
   7  0.495  0.258  0.002-  71 2.33 119 2.34  67 2.36  70 2.49
   8  0.744  0.237  0.007-  71 2.16  68 2.24 120 2.46  72 2.48
   9  0.011  0.501  0.996-  73 2.17  69 2.22  76 2.53 121 2.58
  10  0.262  0.495  0.004-  70 2.23  74 2.27 122 2.39  73 2.56
  11  0.501  0.509  0.007-  75 2.17  74 2.36  71 2.43 123 2.57
  12  0.742  0.499  0.006-  75 2.26 124 2.43  72 2.45  76 2.59
  13  0.990  0.737  0.014-  73 2.21  80 2.34  77 2.35 125 2.64
  14  0.240  0.748  0.012-  77 2.19  74 2.30  78 2.35 126 2.60
  15  0.492  0.749  0.012-  78 2.33  75 2.38  79 2.38 127 2.46
  16  0.744  0.757  0.001-  76 2.22  80 2.27  79 2.37 128 2.50
  17  0.996  0.007  0.250-  81 2.29  84 2.36  93 2.40  65 2.43
  18  0.246  0.002  0.246-  81 2.31  94 2.35  82 2.36  66 2.40
  19  0.502  0.003  0.249-  83 2.32  95 2.34  67 2.35  82 2.59
  20  0.739  0.011  0.255-  84 2.24  83 2.26  96 2.48  68 2.52
  21  0.011  0.248  0.245-  85 2.24  69 2.39  81 2.53  88 2.56
  22  0.249  0.235  0.268-  82 2.14  85 2.47  70 2.51  86 2.53
  23  0.496  0.253  0.242-  83 2.37  86 2.44  71 2.51  87 2.51
  24  0.765  0.244  0.241-  72 2.25  84 2.27  88 2.31  87 2.37
  25  0.007  0.493  0.244-  85 2.34  73 2.36  89 2.39  92 2.41
  26  0.249  0.504  0.255-  86 2.13  90 2.22  89 2.47  74 2.47
  27  0.496  0.499  0.251-  87 2.32  75 2.36  90 2.44  91 2.59
  28  0.756  0.496  0.249-  88 2.28  76 2.41  91 2.44  92 2.47
  29  0.996  0.749  0.259-  89 2.26  96 2.28  93 2.31  77 2.65
  30  0.249  0.742  0.262-  90 2.28  94 2.39  93 2.41  78 2.49
  31  0.491  0.754  0.255-  79 2.22  94 2.32  91 2.33  95 2.37
  32  0.741  0.751  0.262-  95 2.28  92 2.34  96 2.49  80 2.67
  33  0.009  0.997  0.497-  81 2.23 109 2.23  97 2.35 100 2.53
  34  0.244  0.992  0.503- 110 2.25  97 2.25  82 2.35  98 2.83
  35  0.506  1.000  0.505-  99 2.24  98 2.41  83 2.47 111 2.50
  36  0.747  0.001  0.501-  99 2.23 100 2.37  84 2.42 112 2.45
  37  0.998  0.246  0.501- 104 2.24  97 2.30  85 2.32 101 2.60
  38  0.251  0.261  0.494- 102 2.22  86 2.33  98 2.35 101 2.39
  39  0.497  0.254  0.492- 103 2.33 102 2.34  99 2.43  87 2.50
  40  0.754  0.266  0.497- 104 2.21 103 2.40  88 2.42 100 2.56
  41  0.007  0.500  0.496- 101 2.19 105 2.33  89 2.37 108 2.51
  42  0.259  0.498  0.504-  90 2.36 106 2.40 102 2.46 105 2.62
  43  0.501  0.505  0.488-  91 2.16 106 2.34 107 2.36 103 2.43
  44  0.758  0.504  0.505- 108 2.24  92 2.42 104 2.47 107 2.59
  45  0.015  0.756  0.494- 109 2.24  93 2.34 105 2.47 112 2.74
  46  0.248  0.738  0.500- 106 2.20 109 2.30  94 2.31 110 2.54
  47  0.500  0.749  0.493- 107 2.24 111 2.29  95 2.33 110 2.40
  48  0.745  0.756  0.505- 108 2.22 112 2.32  96 2.34 111 2.40
  49  0.993  0.007  0.749- 125 2.32 113 2.33 116 2.34  97 2.40
  50  0.252  0.999  0.757- 114 2.30 126 2.32  98 2.39 113 2.41
  51  0.494  0.014  0.746- 114 2.30 115 2.33  99 2.41 127 2.47
  52  0.751  0.004  0.753- 116 2.30 100 2.40 128 2.44 115 2.55
  53  0.006  0.243  0.743- 113 2.27 101 2.31 120 2.52 117 2.53
  54  0.270  0.252  0.738- 102 2.22 114 2.33 118 2.38 117 2.50
  55  0.498  0.255  0.748- 118 2.30 119 2.34 115 2.39 103 2.53
  56  0.753  0.251  0.754- 116 2.22 120 2.34 104 2.41 119 2.50
  57  0.005  0.491  0.751- 117 2.25 105 2.27 121 2.34 124 2.48
  58  0.265  0.494  0.747- 106 2.26 121 2.33 118 2.34 122 2.37
  59  0.495  0.499  0.748- 122 2.30 119 2.34 107 2.45 123 2.63
  60  0.744  0.502  0.749- 123 2.21 120 2.29 124 2.42 108 2.46
  61  0.006  0.750  0.746- 125 2.38 109 2.41 128 2.42 121 2.45
  62  0.250  0.744  0.752- 122 2.28 110 2.37 125 2.40 126 2.40
  63  0.492  0.754  0.753- 126 2.25 123 2.25 111 2.40 127 2.41
  64  0.741  0.749  0.753- 112 2.16 124 2.36 127 2.37 128 2.37
  65  0.056  0.066  0.059-   5 2.27   2 2.41  17 2.43   1 2.46
  66  0.306  0.067  0.056-   6 2.18   2 2.21  18 2.40   3 2.42
  67  0.560  0.072  0.062-   4 2.35  19 2.35   7 2.36   3 2.40
  68  0.811  0.060  0.057-   1 2.24   8 2.24   4 2.33  20 2.52
  69  0.061  0.325  0.056-   9 2.22   5 2.34  21 2.39   6 2.46
  70  0.298  0.320  0.070-  10 2.23   6 2.45   7 2.49  22 2.51
  71  0.575  0.318  0.044-   8 2.16   7 2.33  11 2.43  23 2.51
  72  0.816  0.306  0.063-  24 2.25   5 2.36  12 2.45   8 2.48
  73  0.060  0.562  0.057-   9 2.17  13 2.21  25 2.36  10 2.56
  74  0.315  0.567  0.059-  10 2.27  14 2.30  11 2.36  26 2.47
  75  0.563  0.561  0.064-  11 2.17  12 2.26  27 2.36  15 2.38
  76  0.810  0.581  0.059-  16 2.22  28 2.41   9 2.53  12 2.59
  77  0.068  0.806  0.050-  14 2.19  13 2.35   1 2.39  29 2.65
  78  0.308  0.814  0.065-  15 2.33  14 2.35   2 2.44  30 2.49
  79  0.557  0.804  0.080-  31 2.22  16 2.37  15 2.38   3 2.46
  80  0.807  0.824  0.050-   4 2.24  16 2.27  13 2.34  32 2.67
  81  0.064  0.049  0.321-  33 2.23  17 2.29  18 2.31  21 2.53
  82  0.297  0.066  0.317-  22 2.14  34 2.35  18 2.36  19 2.59
  83  0.561  0.066  0.310-  20 2.26  19 2.32  23 2.37  35 2.47
  84  0.809  0.065  0.309-  20 2.24  24 2.27  17 2.36  36 2.42
  85  0.054  0.309  0.318-  21 2.24  37 2.32  25 2.34  22 2.47
  86  0.304  0.335  0.310-  26 2.13  38 2.33  23 2.44  22 2.53
  87  0.578  0.317  0.295-  27 2.32  24 2.37  39 2.50  23 2.51
  88  0.808  0.316  0.307-  28 2.28  24 2.31  40 2.42  21 2.56
  89  0.054  0.570  0.309-  29 2.26  41 2.37  25 2.39  26 2.47
  90  0.303  0.562  0.319-  26 2.22  30 2.28  42 2.36  27 2.44
  91  0.564  0.570  0.318-  43 2.16  31 2.33  28 2.44  27 2.59
  92  0.817  0.566  0.314-  32 2.34  25 2.41  44 2.42  28 2.47
  93  0.059  0.817  0.310-  29 2.31  45 2.34  17 2.40  30 2.41
  94  0.307  0.817  0.318-  46 2.31  31 2.32  18 2.35  30 2.39
  95  0.561  0.818  0.309-  32 2.28  47 2.33  19 2.34  31 2.37
  96  0.816  0.815  0.320-  29 2.28  48 2.34  20 2.48  32 2.49
  97  0.066  0.064  0.559-  34 2.25  37 2.30  33 2.35  49 2.40
  98  0.316  0.076  0.569-  38 2.35  50 2.39  35 2.41  34 2.83
  99  0.571  0.062  0.556-  36 2.23  35 2.24  51 2.41  39 2.43
 100  0.808  0.065  0.564-  36 2.37  52 2.40  33 2.53  40 2.56
 101  0.062  0.327  0.562-  41 2.19  53 2.31  38 2.39  37 2.60
 102  0.312  0.304  0.564-  38 2.22  54 2.22  39 2.34  42 2.46
 103  0.566  0.313  0.548-  39 2.33  40 2.40  43 2.43  55 2.53
 104  0.821  0.308  0.563-  40 2.21  37 2.24  56 2.41  44 2.47
 105  0.052  0.563  0.572-  57 2.27  41 2.33  45 2.47  42 2.62
 106  0.317  0.566  0.568-  46 2.20  58 2.26  43 2.34  42 2.40
 107  0.555  0.571  0.555-  47 2.24  43 2.36  59 2.45  44 2.59
 108  0.808  0.580  0.555-  48 2.22  44 2.24  60 2.46  41 2.51
 109  0.067  0.820  0.556-  33 2.23  45 2.24  46 2.30  61 2.41
 110  0.310  0.814  0.564-  34 2.25  62 2.37  47 2.40  46 2.54
 111  0.556  0.803  0.563-  47 2.29  48 2.40  63 2.40  35 2.50
 112  0.799  0.808  0.582-  64 2.16  48 2.32  36 2.45  45 2.74
 113  0.062  0.064  0.806-  53 2.27  49 2.33  50 2.41   1 2.50
 114  0.311  0.069  0.810-  50 2.30  51 2.30  54 2.33   2 2.41
 115  0.549  0.066  0.822-  51 2.33   3 2.38  55 2.39  52 2.55
 116  0.808  0.075  0.807-  56 2.22  52 2.30  49 2.34   4 2.39
 117  0.073  0.313  0.807-  57 2.25  54 2.50  53 2.53   5 2.59
 118  0.316  0.309  0.822-   6 2.28  55 2.30  58 2.34  54 2.38
 119  0.555  0.314  0.817-   7 2.34  55 2.34  59 2.34  56 2.50
 120  0.808  0.321  0.814-  60 2.29  56 2.34   8 2.46  53 2.52
 121  0.081  0.557  0.792-  58 2.33  57 2.34  61 2.45   9 2.58
 122  0.313  0.564  0.816-  62 2.28  59 2.30  58 2.37  10 2.39
 123  0.570  0.577  0.803-  60 2.21  63 2.25  11 2.57  59 2.63
 124  0.809  0.563  0.814-  64 2.36  60 2.42  12 2.43  57 2.48
 125  0.060  0.824  0.806-  49 2.32  61 2.38  62 2.40  13 2.64
 126  0.314  0.816  0.806-  63 2.25  50 2.32  62 2.40  14 2.60
 127  0.554  0.819  0.817-  64 2.37  63 2.41  15 2.46  51 2.47
 128  0.815  0.811  0.804-  64 2.37  61 2.42  52 2.44  16 2.50
 
  LATTYP: Found a face centered cubic cell.
 ALAT       =    21.8746673814
  
  Lattice vectors:
  
 A1 = (   0.0000000000,  10.9373336907,  10.9373336907)
 A2 = (  10.9373336907,   0.0000000000,  10.9373336907)
 A3 = (  10.9373336907,  10.9373336907,   0.0000000000)


Analysis of symmetry for initial positions (statically):
=====================================================================
 Subroutine PRICEL returns:
 Original cell was already a primitive cell.
 

 Routine SETGRP: Setting up the symmetry group for a 
 face centered cubic supercell.


 Subroutine GETGRP returns: Found  1 space group operations
 (whereof  1 operations were pure point group operations)
 out of a pool of 48 trial point group operations.


The static configuration has the point symmetry C_1 .


Analysis of symmetry for dynamics (positions and initial velocities):
=====================================================================
 Subroutine PRICEL returns:
 Original cell was already a primitive cell.
 

 Routine SETGRP: Setting up the symmetry group for a 
 face centered cubic supercell.


 Subroutine GETGRP returns: Found  1 space group operations
 (whereof  1 operations were pure point group operations)
 out of a pool of 48 trial point group operations.


The dynamic configuration has the point symmetry C_1 .


 Subroutine INISYM returns: Found  1 space group operations
 (whereof  1 operations are pure point group operations),
 and found     1 'primitive' translations

 
 
 KPOINTS: KPOINTS File, automatically generated by

Automatic generation of k-mesh.
Space group operators:
 irot       det(A)        alpha          n_x          n_y          n_z        tau_x        tau_y        tau_z
    1     1.000000     0.000001     1.000000     0.000000     0.000000     0.000000     0.000000     0.000000
 
 Subroutine IBZKPT returns following result:
 ===========================================
 
 Found      8 irreducible k-points:
 
 Following reciprocal coordinates:
            Coordinates               Weight
  0.000000  0.000000  0.000000      1.000000
  0.500000  0.000000  0.000000      1.000000
  0.000000  0.500000  0.000000      1.000000
  0.500000  0.500000  0.000000      1.000000
  0.000000  0.000000  0.500000      1.000000
  0.500000  0.000000  0.500000      1.000000
  0.000000  0.500000  0.500000      1.000000
  0.500000  0.500000  0.500000      1.000000
 
 Following cartesian coordinates:
            Coordinates               Weight
  0.000000  0.000000  0.000000      1.000000
 -0.022857  0.022857  0.022857      1.000000
  0.022857 -0.022857  0.022857      1.000000
  0.000000  0.000000  0.045715      1.000000
  0.022857  0.022857 -0.022857      1.000000
  0.000000  0.045715  0.000000      1.000000
  0.045715  0.000000  0.000000      1.000000
  0.022857  0.022857  0.022857      1.000000
 


--------------------------------------------------------------------------------------------------------




 Dimension of arrays:
   k-points           NKPTS =      8   k-points in BZ     NKDIM =      8   number of bands    NBANDS=    322
   number of dos      NEDOS =    301   number of ions     NIONS =    128
   non local maximal  LDIM  =      4   non local SUM 2l+1 LMDIM =      8
   total plane-waves  NPLWV = ******
   max r-space proj   IRMAX =      1   max aug-charges    IRDMAX= 176811
   dimension x,y,z NGX =   120 NGY =  120 NGZ =  120
   dimension x,y,z NGXF=   240 NGYF=  240 NGZF=  240
   support grid    NGXF=   480 NGYF=  480 NGZF=  480
   ions per type =             128
   NGX,Y,Z   is equivalent  to a cutoff of  12.90, 12.90, 12.90 a.u.
   NGXF,Y,Z  is equivalent  to a cutoff of  25.80, 25.80, 25.80 a.u.

 SYSTEM =  potpaw_PBE@./ARUN.APL1ZEROSTATE         
 POSCAR =  kk                                      

 Startparameter for this run:
   NWRITE =      2    write-flag & timer
   PREC   = accura    normal or accurate (medium, high low for compatibility)
   ISTART =      0    job   : 0-new  1-cont  2-samecut
   ICHARG =      2    charge: 1-file 2-atom 10-const
   ISPIN  =      1    spin polarized calculation?
   LNONCOLLINEAR =      F non collinear calculations
   LSORBIT =      F    spin-orbit coupling
   INIWAV =      1    electr: 0-lowe 1-rand  2-diag
   LASPH  =      F    aspherical Exc in radial PAW
   METAGGA=      F    non-selfconsistent MetaGGA calc.

 Electronic Relaxation 1
   ENCUT  =  500.0 eV  36.75 Ry    6.06 a.u.  28.20 28.20 28.20*2*pi/ulx,y,z
   ENINI  =  500.0     initial cutoff
   ENAUG  =  322.1 eV  augmentation charge cutoff
   NELM   =    120;   NELMIN=  4; NELMDL= -5     # of ELM steps 
   EDIFF  = 0.1E-07   stopping-criterion for ELM
   LREAL  =      F    real-space projection
   NLSPLINE    = F    spline interpolate recip. space projectors
   LCOMPAT=      F    compatible to vasp.4.4
   GGA_COMPAT  = T    GGA compatible to vasp.4.4-vasp.4.6
   LMAXPAW     = -100 max onsite density
   LMAXMIX     =    2 max onsite mixed and CHGCAR
   VOSKOWN=      0    Vosko Wilk Nusair interpolation
   ROPT   =    0.00000
 Ionic relaxation
   EDIFFG = 0.1E-06   stopping-criterion for IOM
   NSW    =      0    number of steps for IOM
   NBLOCK =      1;   KBLOCK =      1    inner block; outer block 
   IBRION =     -1    ionic relax: 0-MD 1-quasi-New 2-CG
   NFREE  =      0    steps in history (QN), initial steepest desc. (CG)
   ISIF   =      2    stress and relaxation
   IWAVPR =     10    prediction:  0-non 1-charg 2-wave 3-comb
   ISYM   =      2    0-nonsym 1-usesym 2-fastsym
   LCORR  =      T    Harris-Foulkes like correction to forces

   POTIM  = 0.5000    time-step for ionic-motion
   TEIN   =    0.0    initial temperature
   TEBEG  =    0.0;   TEEND  =   0.0 temperature during run
   SMASS  =  -3.00    Nose mass-parameter (am)
   estimated Nose-frequenzy (Omega)   =  0.10E-29 period in steps =****** mass=  -0.547E-26a.u.
   SCALEE = 1.0000    scale energy and forces
   NPACO  =    256;   APACO  = 16.0  distance and # of slots for P.C.
   PSTRESS=    0.0 pullay stress

  Mass of Ions in am
   POMASS =  28.09
  Ionic Valenz
   ZVAL   =   4.00
  Atomic Wigner-Seitz radii
   RWIGS  =  -1.00
  virtual crystal weights 
   VCA    =   1.00
   NELECT =     512.0000    total number of electrons
   NUPDOWN=      -1.0000    fix difference up-down

 DOS related values:
   EMIN   =  10.00;   EMAX   =-10.00  energy-range for DOS
   EFERMI =   0.00
   ISMEAR =     0;   SIGMA  =   0.01  broadening in eV -4-tet -1-fermi 0-gaus

 Electronic relaxation 2 (details)
   IALGO  =     38    algorithm
   LDIAG  =      T    sub-space diagonalisation (order eigenvalues)
   LSUBROT=      F    optimize rotation matrix (better conditioning)
   TURBO    =      0    0=normal 1=particle mesh
   IRESTART =      0    0=no restart 2=restart with 2 vectors
   NREBOOT  =      0    no. of reboots
   NMIN     =      0    reboot dimension
   EREF     =   0.00    reference energy to select bands
   IMIX   =      4    mixing-type and parameters
     AMIX     =   0.40;   BMIX     =  1.00
     AMIX_MAG =   1.60;   BMIX_MAG =  1.00
     AMIN     =   0.10
     WC   =   100.;   INIMIX=   1;  MIXPRE=   1;  MAXMIX= -45

 Intra band minimization:
   WEIMIN = 0.0000     energy-eigenvalue tresh-hold
   EBREAK =  0.78E-11  absolut break condition
   DEPER  =   0.30     relativ break condition  

   TIME   =   0.40     timestep for ELM

  volume/ion in A,a.u.               =      20.44       137.96
  Fermi-wavevector in a.u.,A,eV,Ry     =   0.950408  1.796010 12.289804  0.903275
  Thomas-Fermi vector in A             =   2.078782
 
 Write flags
   LWAVE        =      F    write WAVECAR
   LDOWNSAMPLE  =      F    k-point downsampling of WAVECAR
   LCHARG       =      F    write CHGCAR
   LVTOT        =      F    write LOCPOT, total local potential
   LVHAR        =      F    write LOCPOT, Hartree potential only
   LELF         =      F    write electronic localiz. function (ELF)
   LORBIT       =      0    0 simple, 1 ext, 2 COOP (PROOUT), +10 PAW based schemes


 Dipole corrections
   LMONO  =      F    monopole corrections only (constant potential shift)
   LDIPOL =      F    correct potential (dipole corrections)
   IDIPOL =      0    1-x, 2-y, 3-z, 4-all directions 
   EPSILON=  1.0000000 bulk dielectric constant

 Exchange correlation treatment:
   GGA     =    --    GGA type
   LEXCH   =     8    internal setting for exchange type
   VOSKOWN=      0    Vosko Wilk Nusair interpolation
   LHFCALC =     F    Hartree Fock is set to
   LHFONE  =     F    Hartree Fock one center treatment
   AEXX    =    0.0000 exact exchange contribution

 Linear response parameters
   LEPSILON=     F    determine dielectric tensor
   LRPA    =     F    only Hartree local field effects (RPA)
   LNABLA  =     F    use nabla operator in PAW spheres
   LVEL    =     F    velocity operator in full k-point grid
   LINTERFAST=   F  fast interpolation
   KINTER  =     0    interpolate to denser k-point grid
   CSHIFT  =0.1000    complex shift for real part using Kramers Kronig
   OMEGAMAX=  -1.0    maximum frequency
   DEG_THRESHOLD= 0.2000000E-02 threshold for treating states as degnerate
   RTIME   =   -0.100 relaxation time in fs
  (WPLASMAI=    0.000 imaginary part of plasma frequency in eV, 0.658/RTIME)
   DFIELD  = 0.0000000 0.0000000 0.0000000 field for delta impulse in time
 
 Orbital magnetization related:
   ORBITALMAG=     F  switch on orbital magnetization
   LCHIMAG   =     F  perturbation theory with respect to B field
   DQ        =  0.001000  dq finite difference perturbation B field
   LLRAUG    =     F  two centre corrections for induced B field



--------------------------------------------------------------------------------------------------------


 Static calculation
 charge density and potential will be updated during run
 non-spin polarized calculation
 Variant of blocked Davidson
 Davidson routine will perform the subspace rotation
 perform sub-space diagonalisation
    after iterative eigenvector-optimisation
 modified Broyden-mixing scheme, WC =      100.0
 initial mixing is a Kerker type mixing with AMIX =  0.4000 and BMIX =      1.0000
 Hartree-type preconditioning will be used
 using additional bands           66
 reciprocal scheme for non local part
 use partial core corrections
 calculate Harris-corrections to forces 
   (improved forces if not selfconsistent)
 use gradient corrections 
 use of overlap-Matrix (Vanderbilt PP)
 Gauss-broadening in eV      SIGMA  =   0.01


--------------------------------------------------------------------------------------------------------


  energy-cutoff  :      500.00
  volume of cell :     2616.76
      direct lattice vectors                 reciprocal lattice vectors
     0.000000000 10.937333691 10.937333691    -0.045714981  0.045714981  0.045714981
    10.937333691  0.000000000 10.937333691     0.045714981 -0.045714981  0.045714981
    10.937333691 10.937333691  0.000000000     0.045714981  0.045714981 -0.045714981

  length of vectors
    15.467725642 15.467725642 15.467725642     0.079180669  0.079180669  0.079180669


 
 k-points in units of 2pi/SCALE and weight: KPOINTS File, automatically generated by
   0.00000000  0.00000000  0.00000000       0.125
  -0.02285749  0.02285749  0.02285749       0.125
   0.02285749 -0.02285749  0.02285749       0.125
   0.00000000  0.00000000  0.04571498       0.125
   0.02285749  0.02285749 -0.02285749       0.125
   0.00000000  0.04571498  0.00000000       0.125
   0.04571498  0.00000000  0.00000000       0.125
   0.02285749  0.02285749  0.02285749       0.125
 
 k-points in reciprocal lattice and weights: KPOINTS File, automatically generated by
   0.00000000  0.00000000  0.00000000       0.125
   0.50000000  0.00000000  0.00000000       0.125
   0.00000000  0.50000000  0.00000000       0.125
   0.50000000  0.50000000  0.00000000       0.125
   0.00000000  0.00000000  0.50000000       0.125
   0.50000000  0.00000000  0.50000000       0.125
   0.00000000  0.50000000  0.50000000       0.125
   0.50000000  0.50000000  0.50000000       0.125
 
 position of ions in fractional coordinates (direct lattice) 
   0.98791956  0.99430534  0.00347061
   0.24590983  0.00689883  0.00060984
   0.49674915  0.99790269  0.00993260
   0.74526548  0.00209322  0.99616049
   0.00225869  0.24444357  0.01161368
   0.25461466  0.23916984  0.00247770
   0.49476255  0.25800343  0.00204560
   0.74418773  0.23724277  0.00694964
   0.01052961  0.50085668  0.99604345
   0.26215173  0.49481137  0.00439112
   0.50119906  0.50901075  0.00655798
   0.74176712  0.49910632  0.00591516
   0.98965133  0.73666338  0.01384908
   0.23977518  0.74833303  0.01248390
   0.49169802  0.74909120  0.01155597
   0.74411141  0.75723768  0.00107371
   0.99559088  0.00698420  0.25048327
   0.24558005  0.00218791  0.24610735
   0.50178523  0.00256819  0.24868981
   0.73927070  0.01054248  0.25544748
   0.01075884  0.24802724  0.24486675
   0.24858425  0.23475105  0.26796940
   0.49556569  0.25317015  0.24216166
   0.76476217  0.24422366  0.24073105
   0.00723554  0.49340070  0.24386490
   0.24885828  0.50354324  0.25471947
   0.49621252  0.49898429  0.25138878
   0.75606355  0.49620021  0.24907613
   0.99597626  0.74875653  0.25917242
   0.24893718  0.74222358  0.26188875
   0.49105119  0.75385867  0.25478949
   0.74059661  0.75105927  0.26160632
   0.00884868  0.99702003  0.49673068
   0.24384770  0.99188115  0.50263912
   0.50622808  0.99952431  0.50534068
   0.74736591  0.00089101  0.50069985
   0.99757646  0.24601218  0.50144978
   0.25085772  0.26138524  0.49368252
   0.49722952  0.25355361  0.49181130
   0.75428081  0.26641423  0.49737352
   0.00651643  0.49973506  0.49603695
   0.25869666  0.49841011  0.50448905
   0.50095326  0.50534513  0.48778041
   0.75817085  0.50380259  0.50497146
   0.01507365  0.75629247  0.49415098
   0.24750396  0.73845562  0.50019401
   0.49959565  0.74865750  0.49292728
   0.74512245  0.75585329  0.50482686
   0.99254589  0.00731705  0.74856211
   0.25238568  0.99919716  0.75734610
   0.49379658  0.01407984  0.74551054
   0.75093289  0.00410817  0.75344192
   0.00647592  0.24347704  0.74276306
   0.27046895  0.25242485  0.73763434
   0.49769318  0.25527989  0.74816179
   0.75336133  0.25085008  0.75383315
   0.00542117  0.49108887  0.75072215
   0.26515667  0.49412055  0.74669139
   0.49499228  0.49868750  0.74829165
   0.74356784  0.50187296  0.74859874
   0.00633243  0.74981587  0.74647702
   0.24956131  0.74438788  0.75196009
   0.49165366  0.75410684  0.75276176
   0.74137279  0.74890433  0.75271297
   0.05569713  0.06571840  0.05861084
   0.30575519  0.06657220  0.05612791
   0.55992206  0.07153202  0.06236380
   0.81097163  0.06026597  0.05674982
   0.06102136  0.32529373  0.05600611
   0.29800968  0.32024086  0.07030401
   0.57497955  0.31831986  0.04431940
   0.81580924  0.30559618  0.06268151
   0.06017515  0.56211476  0.05703128
   0.31513536  0.56683662  0.05876255
   0.56264739  0.56128763  0.06430069
   0.81045127  0.58147549  0.05946643
   0.06828507  0.80592115  0.05012080
   0.30772716  0.81404322  0.06496548
   0.55740883  0.80350588  0.07965117
   0.80703402  0.82449703  0.05009299
   0.06378442  0.04855885  0.32084974
   0.29708970  0.06593306  0.31701413
   0.56051630  0.06569002  0.31043850
   0.80860763  0.06494947  0.30904387
   0.05368897  0.30882344  0.31788769
   0.30420781  0.33459915  0.30974053
   0.57777858  0.31654664  0.29457385
   0.80778911  0.31637372  0.30746984
   0.05365760  0.56999289  0.30915983
   0.30264363  0.56181036  0.31860501
   0.56355434  0.57023379  0.31762913
   0.81717536  0.56607438  0.31367988
   0.05908934  0.81704654  0.31003077
   0.30738691  0.81655058  0.31828498
   0.56086418  0.81772083  0.30879569
   0.81571269  0.81482817  0.31977663
   0.06595430  0.06396696  0.55887860
   0.31624655  0.07641506  0.56940893
   0.57110693  0.06163019  0.55566430
   0.80829822  0.06455170  0.56365830
   0.06171413  0.32653399  0.56197785
   0.31233233  0.30429166  0.56388676
   0.56635914  0.31284930  0.54787782
   0.82067758  0.30840362  0.56336067
   0.05174032  0.56291257  0.57153086
   0.31728999  0.56591916  0.56819781
   0.55456354  0.57104400  0.55472965
   0.80826568  0.58002629  0.55482499
   0.06683741  0.82007375  0.55596741
   0.30954814  0.81378245  0.56413768
   0.55646769  0.80279657  0.56313023
   0.79929843  0.80804009  0.58170290
   0.06247277  0.06357896  0.80637809
   0.31149952  0.06939320  0.81010456
   0.54890420  0.06642055  0.82152055
   0.80774191  0.07534469  0.80740318
   0.07280042  0.31341006  0.80684150
   0.31621172  0.30920599  0.82215782
   0.55523941  0.31357087  0.81727093
   0.80792973  0.32092215  0.81394315
   0.08140789  0.55715879  0.79234692
   0.31339855  0.56372644  0.81593447
   0.56970411  0.57684267  0.80292224
   0.80947415  0.56250450  0.81385829
   0.06018300  0.82373347  0.80639947
   0.31358074  0.81575904  0.80649562
   0.55418004  0.81860741  0.81675710
   0.81516900  0.81143377  0.80388363
 
 position of ions in cartesian coordinates  (Angst):
  10.91300852 10.84316507 21.68025522
   0.08212488  2.69626788  2.76505268
  11.02303084  5.54174735 16.34750588
  10.91823392 19.04655694  8.17411153
   2.80058356  0.15172668  2.69826491
   2.64297982  2.81190487  5.40068584
   2.84424296  5.43375645  8.23325265
   2.67081387  8.21544011 10.73423287
  16.37209619 11.00922535  5.59320245
   5.45994415  2.91526807  8.27915801
   5.63894723  5.55350816 11.04900183
   5.52358836  8.17765061 13.57184688
   8.20860524 10.97561882 18.88128005
   8.32130859  2.75904172 10.80726918
   8.31945198  5.50425678 13.57092574
   8.29390462  8.15033825 16.42075593
   2.81600770 13.62872883 10.96549828
   2.71568810  5.37774923  2.70992084
   2.74809249  8.20819590  5.51628161
   2.90922094 10.87956465  8.20095704
   5.39094608  2.79586234  2.83042975
   5.49842128  5.64971954  5.28639941
   5.41760926  8.06877015  8.18917372
   5.30411142 10.99741477 11.03561466
   8.06371989  2.74636933  5.47562562
   8.29337228  5.50779794  8.22926647
   8.20708070  8.17676495 10.88479962
   8.15133606 10.99354814 13.69642664
  11.02405525 13.72797985 19.08272471
  10.98231163  5.58707361 10.84065594
  11.03192143  8.15750832 13.61599451
  11.07586143 10.96142783 16.31473802
  16.33764996  5.52969018 11.00152179
  16.34606688  8.16457538 13.51557873
  16.45921056 11.06386512 16.46891637
   5.48606663 13.65051170  8.18393555
   8.17524086 16.39535023 13.60154389
   8.25842808  8.14328515  5.60257222
   8.15230470 10.81746944  8.21156557
   8.35380149 13.68976101 11.16368226
  10.89109080  5.49659404  5.53704156
  10.96904277  8.34721678  8.28072945
  10.86214540 10.81411008 11.00622128
  11.03329850 13.81540904 13.80262472
  13.67651727  5.56955969  8.43668858
  13.54752438  8.17782224 10.78376896
  13.57962699 10.85555441 13.65256116
  13.78847942 13.67111263 16.41667249
   8.26730265 19.04307922 10.93583464
  19.21189974 11.04377344 13.68897917
   8.30789343 13.55471553  5.55481384
   8.28557817 16.45384931  8.25813605
  10.78683714  8.19467678  2.73381894
  10.82860777 11.02596208  5.71906396
  10.97497652 13.62633156  8.23551773
  10.98855566 16.48468894 10.98339529
  13.58210151  8.27019178  5.43049591
  13.57117423 11.06691996  8.30446831
  13.63862713 13.59821126 10.86820740
  13.67682628 16.32032388 13.62180162
  16.36545466  8.23372814  8.27024629
  16.36605705 10.95397380 10.87115397
  16.48112464 13.61058669 13.62529828
  16.42368954 16.34131455 16.29965818
   1.35983034  1.25022434  1.32796212
   1.34201211  3.95803628  4.07226892
   1.46446331  6.80614813  6.90642407
   1.27984077  9.49055905  9.52901633
   4.17040357  1.27996853  4.22525705
   4.27151952  4.02836970  6.76201243
   3.96630660  6.77347918  9.77031372
   4.02797599  9.60834656 12.26518530
   6.77180679  1.28192578  6.80619239
   6.84238689  4.08944617  9.64642181
   6.84226824  6.85714044 12.29285238
   7.01019564  9.51458020 15.22396749
   9.36281644  1.29504447  9.56148517
   9.61401144  4.07626378 12.26917694
   9.65938346  6.96773788 14.88477839
   9.56568293  9.37468408 17.84459949
   4.04034500  4.20687213  1.22873590
   4.18842127  6.71665858  3.97050116
   4.11384314  9.52592329  6.84902753
   4.09048995 12.22412736  9.55438547
   6.85454880  4.06405792  3.96491922
   7.04735809  6.71495796  6.98684489
   6.68402869  9.54120961  9.78153336
   6.82318526 12.19795934 12.29534406
   9.61558667  3.96825527  6.82107346
   9.62939667  6.79480369  9.45482178
   9.71085306  9.63779773 12.40061917
   9.62216588 12.36854118 15.12906399
  12.32722064  4.03718986  9.58259051
  12.41207522  6.84318231 12.29287939
  12.32108709  9.51176026 15.07804428
  12.40955127 12.41922554 17.83376945
   6.81226973  6.83400597  1.42099224
   7.06359244  9.68670953  4.29467105
   6.75155587 12.32387294  6.92045709
   6.87094241 15.00554626  9.54665075
   9.71795048  6.82152729  4.24639921
   9.49555709  9.58350053  6.74422238
   9.41405971 12.18678144  9.61619610
   9.53477694 15.13768816 12.34913778
  12.40778632  6.81692486  6.72266374
  12.40421580  9.68487563  9.65995322
  12.31296203 12.13270979 12.31114528
  12.41224717 14.90857756 15.18421262
  15.05022134  6.81182417  9.70044329
  15.07077225  9.55579338 12.28624154
  14.93959726 12.24541604 14.86672678
  15.20008286 15.10447237 17.57999769
   9.51501060  9.50291183  1.37866987
   9.61936054 12.26735807  4.16595077
   9.71170805 14.98879270  6.73001207
   9.65490804 17.66538081  9.65861274
  12.25256514  9.62093715  4.22411288
  12.37410350 12.45072755  6.84040222
  12.36839412 15.01160364  9.50246791
  12.41240056 17.73896490 12.34662969
  14.75999420  9.55654785  6.98421679
  15.08981176 12.35189203  9.59340871
  15.09094915 15.01287241 12.54016472
  15.05373905 17.75492860 15.00578833
  17.82930797  9.47810166  9.66768937
  17.74314052 12.25064889 12.35196600
  17.88652738 14.99439701 15.01463441
  17.66726539 17.70811886 17.79069733
 


--------------------------------------------------------------------------------------------------------


 k-point  1 :   0.0000 0.0000 0.0000  plane waves:   66299
 k-point  2 :   0.5000 0.0000 0.0000  plane waves:   66394
 k-point  3 :   0.0000 0.5000 0.0000  plane waves:   66394
 k-point  4 :   0.5000 0.5000 0.0000  plane waves:   66552
 k-point  5 :   0.0000 0.0000 0.5000  plane waves:   66394
 k-point  6 :   0.5000 0.0000 0.5000  plane waves:   66552
 k-point  7 :   0.0000 0.5000 0.5000  plane waves:   66552
 k-point  8 :   0.5000 0.5000 0.5000  plane waves:   66394

 maximum and minimum number of plane-waves per node :      4207     4110

 maximum number of plane-waves:     66552
 maximum index in each direction: 
   IXMAX=   28   IYMAX=   28   IZMAX=   28
   IXMIN=  -28   IYMIN=  -28   IZMIN=  -28


 parallel 3D FFT for wavefunctions:
    minimum data exchange during FFTs selected (reduces bandwidth)
 parallel 3D FFT for charge:
    minimum data exchange during FFTs selected (reduces bandwidth)


 total amount of memory used by VASP MPI-rank0   221701. kBytes
=======================================================================

   base      :      30000. kBytes
   nonl-proj :      10690. kBytes
   fftplans  :      66746. kBytes
   grid      :      26864. kBytes
   one-center:         24. kBytes
   wavefun   :      87377. kBytes
 
     INWAV:  cpu time    0.0000: real time    0.0002
 Broyden mixing: mesh for mixing (old mesh)
   NGX = 57   NGY = 57   NGZ = 57
  (NGX  =240   NGY  =240   NGZ  =240)
  gives a total of 185193 points

 initial charge density was supplied:
 charge density of overlapping atoms calculated
 number of electron     512.0000000 magnetization 
 keeping initial charge density in first step


--------------------------------------------------------------------------------------------------------


 Maximum index for augmentation-charges         5604 (set IRDMAX)


--------------------------------------------------------------------------------------------------------


 First call to EWALD:  gamma=   0.129
 Maximum number of real-space cells 3x 3x 3
 Maximum number of reciprocal cells 3x 3x 3

    FEWALD:  cpu time    0.0059: real time    0.0059


--------------------------------------- Iteration      1(   1)  ---------------------------------------


    POTLOK:  cpu time    0.4872: real time    0.4971
    SETDIJ:  cpu time    0.5158: real time    0.5158
     EDDAV:  cpu time   70.3424: real time   70.3764
       DOS:  cpu time    0.0031: real time    0.0031
    --------------------------------------------
      LOOP:  cpu time   71.3486: real time   71.3925

 eigenvalue-minimisations  :  5152
 total energy-change (2. order) : 0.1383716E+04  (-0.1908243E+05)
 number of electron     512.0000000 magnetization 
 augmentation part      512.0000000 magnetization 

 Free energy of the ion-electron system (eV)
  ---------------------------------------------------
  alpha Z        PSCENC =       210.77028614
  Ewald energy   TEWEN  =    -14470.30669928
  -Hartree energ DENC   =      -756.49513761
  -exchange      EXHF   =         0.00000000
  -V(xc)+E(xc)   XCENC  =     -1195.33648302
  PAW double counting   =      4221.13331941    -1969.18571412
  entropy T*S    EENTRO =        -0.00258189
  eigenvalues    EBANDS =      2150.65830015
  atomic energy  EATOM  =     13192.48085998
  Solvation  Ediel_sol  =         0.00000000
  ---------------------------------------------------
  free energy    TOTEN  =      1383.71614977 eV

  energy without entropy =     1383.71873166  energy(sigma->0) =     1383.71744071


--------------------------------------------------------------------------------------------------------




--------------------------------------- Iteration      1(   2)  ---------------------------------------


     EDDAV:  cpu time   80.1832: real time   80.2240
       DOS:  cpu time    0.0023: real time    0.0023
    --------------------------------------------
      LOOP:  cpu time   80.1855: real time   80.2263

 eigenvalue-minimisations  :  6112
 total energy-change (2. order) :-0.1919433E+04  (-0.1825383E+04)
 number of electron     512.0000000 magnetization 
 augmentation part      512.0000000 magnetization 

 Free energy of the ion-electron system (eV)
  ---------------------------------------------------
  alpha Z        PSCENC =       210.77028614
  Ewald energy   TEWEN  =    -14470.30669928
  -Hartree energ DENC   =      -756.49513761
  -exchange      EXHF   =         0.00000000
  -V(xc)+E(xc)   XCENC  =     -1195.33648302
  PAW double counting   =      4221.13331941    -1969.18571412
  entropy T*S    EENTRO =        -0.00000243
  eigenvalues    EBANDS =       231.22315205
  atomic energy  EATOM  =     13192.48085998
  Solvation  Ediel_sol  =         0.00000000
  ---------------------------------------------------
  free energy    TOTEN  =      -535.71641888 eV

  energy without entropy =     -535.71641645  energy(sigma->0) =     -535.71641766


--------------------------------------------------------------------------------------------------------




--------------------------------------- Iteration      1(   3)  ---------------------------------------


     EDDAV:  cpu time   82.1127: real time   82.1491
       DOS:  cpu time    0.0010: real time    0.0010
    --------------------------------------------
      LOOP:  cpu time   82.1138: real time   82.1501

 eigenvalue-minimisations  :  6296
 total energy-change (2. order) :-0.1499411E+03  (-0.1468740E+03)
 number of electron     512.0000000 magnetization 
 augmentation part      512.0000000 magnetization 

 Free energy of the ion-electron system (eV)
  ---------------------------------------------------
  alpha Z        PSCENC =       210.77028614
  Ewald energy   TEWEN  =    -14470.30669928
  -Hartree energ DENC   =      -756.49513761
  -exchange      EXHF   =         0.00000000
  -V(xc)+E(xc)   XCENC  =     -1195.33648302
  PAW double counting   =      4221.13331941    -1969.18571412
  entropy T*S    EENTRO =        -0.00000000
  eigenvalues    EBANDS =        81.28202044
  atomic energy  EATOM  =     13192.48085998
  Solvation  Ediel_sol  =         0.00000000
  ---------------------------------------------------
  free energy    TOTEN  =      -685.65754805 eV

  energy without entropy =     -685.65754805  energy(sigma->0) =     -685.65754805


--------------------------------------------------------------------------------------------------------




--------------------------------------- Iteration      1(   4)  ---------------------------------------


     EDDAV:  cpu time   80.9592: real time   80.9951
       DOS:  cpu time    0.0011: real time    0.0011
    --------------------------------------------
      LOOP:  cpu time   80.9603: real time   80.9962

 eigenvalue-minimisations  :  6184
 total energy-change (2. order) :-0.4222593E+01  (-0.4187866E+01)
 number of electron     512.0000000 magnetization 
 augmentation part      512.0000000 magnetization 

 Free energy of the ion-electron system (eV)
  ---------------------------------------------------
  alpha Z        PSCENC =       210.77028614
  Ewald energy   TEWEN  =    -14470.30669928
  -Hartree energ DENC   =      -756.49513761
  -exchange      EXHF   =         0.00000000
  -V(xc)+E(xc)   XCENC  =     -1195.33648302
  PAW double counting   =      4221.13331941    -1969.18571412
  entropy T*S    EENTRO =        -0.00000000
  eigenvalues    EBANDS =        77.05942698
  atomic energy  EATOM  =     13192.48085998
  Solvation  Ediel_sol  =         0.00000000
  ---------------------------------------------------
  free energy    TOTEN  =      -689.88014151 eV

  energy without entropy =     -689.88014151  energy(sigma->0) =     -689.88014151


--------------------------------------------------------------------------------------------------------




--------------------------------------- Iteration      1(   5)  ---------------------------------------


     EDDAV:  cpu time   82.2018: real time   82.2395
       DOS:  cpu time    0.0011: real time    0.0011
    CHARGE:  cpu time    3.1586: real time    3.1592
    MIXING:  cpu time    0.0414: real time    0.0415
    --------------------------------------------
      LOOP:  cpu time   85.4029: real time   85.4413

 eigenvalue-minimisations  :  6304
 total energy-change (2. order) :-0.1464064E+00  (-0.1460009E+00)
 number of electron     511.9999998 magnetization 
 augmentation part      -30.1854974 magnetization 

 Broyden mixing:
  rms(total) = 0.23990E+01    rms(broyden)= 0.23990E+01
  rms(prec ) = 0.29120E+01
  weight for this iteration     100.00

 Free energy of the ion-electron system (eV)
  ---------------------------------------------------
  alpha Z        PSCENC =       210.77028614
  Ewald energy   TEWEN  =    -14470.30669928
  -Hartree energ DENC   =      -756.49513761
  -exchange      EXHF   =         0.00000000
  -V(xc)+E(xc)   XCENC  =     -1195.33648302
  PAW double counting   =      4221.13331941    -1969.18571412
  entropy T*S    EENTRO =        -0.00000000
  eigenvalues    EBANDS =        76.91302062
  atomic energy  EATOM  =     13192.48085998
  Solvation  Ediel_sol  =         0.00000000
  ---------------------------------------------------
  free energy    TOTEN  =      -690.02654787 eV

  energy without entropy =     -690.02654787  energy(sigma->0) =     -690.02654787


--------------------------------------------------------------------------------------------------------




--------------------------------------- Iteration      1(   6)  ---------------------------------------


    POTLOK:  cpu time    0.4930: real time    0.4945
    SETDIJ:  cpu time    0.5071: real time    0.5072
     EDDAV:  cpu time   78.5286: real time   78.5573
       DOS:  cpu time    0.0014: real time    0.0014
    CHARGE:  cpu time    3.1752: real time    3.1786
    MIXING:  cpu time    0.0295: real time    0.0295
    --------------------------------------------
      LOOP:  cpu time   82.7348: real time   82.7684

 eigenvalue-minimisations  :  5960
 total energy-change (2. order) : 0.8598421E+01  (-0.6135059E+00)
 number of electron     511.9999998 magnetization 
 augmentation part      -29.8507256 magnetization 

 Broyden mixing:
  rms(total) = 0.14253E+01    rms(broyden)= 0.14253E+01
  rms(prec ) = 0.17186E+01
  weight for this iteration     100.00

 eigenvalues of (default mixing * dielectric matrix)
  average eigenvalue GAMMA=   2.4285
  2.4285

 Free energy of the ion-electron system (eV)
  ---------------------------------------------------
  alpha Z        PSCENC =       210.77028614
  Ewald energy   TEWEN  =    -14470.30669928
  -Hartree energ DENC   =      -851.88597844
  -exchange      EXHF   =         0.00000000
  -V(xc)+E(xc)   XCENC  =     -1180.70886990
  PAW double counting   =      4465.97318563    -2220.80135898
  entropy T*S    EENTRO =        -0.00000000
  eigenvalues    EBANDS =       173.05044777
  atomic energy  EATOM  =     13192.48085998
  Solvation  Ediel_sol  =         0.00000000
  ---------------------------------------------------
  free energy    TOTEN  =      -681.42812707 eV

  energy without entropy =     -681.42812707  energy(sigma->0) =     -681.42812707


--------------------------------------------------------------------------------------------------------




--------------------------------------- Iteration      1(   7)  ---------------------------------------


    POTLOK:  cpu time    0.4890: real time    0.4907
    SETDIJ:  cpu time    0.5093: real time    0.5096
     EDDAV:  cpu time   77.8364: real time   77.8621
       DOS:  cpu time    0.0011: real time    0.0011
    CHARGE:  cpu time    3.1723: real time    3.1737
    MIXING:  cpu time    0.0319: real time    0.0319
    --------------------------------------------
      LOOP:  cpu time   82.0398: real time   82.0691

 eigenvalue-minimisations  :  5888
 total energy-change (2. order) : 0.3521278E+01  (-0.1179795E+01)
 number of electron     511.9999998 magnetization 
 augmentation part      -29.3936119 magnetization 

 Broyden mixing:
  rms(total) = 0.16155E+00    rms(broyden)= 0.16155E+00
  rms(prec ) = 0.21453E+00
  weight for this iteration     100.00

 eigenvalues of (default mixing * dielectric matrix)
  average eigenvalue GAMMA=   2.0582
  2.0582  2.0582

 Free energy of the ion-electron system (eV)
  ---------------------------------------------------
  alpha Z        PSCENC =       210.77028614
  Ewald energy   TEWEN  =    -14470.30669928
  -Hartree energ DENC   =     -1001.70705824
  -exchange      EXHF   =         0.00000000
  -V(xc)+E(xc)   XCENC  =     -1156.93515687
  PAW double counting   =      4785.00809931    -2548.34856910
  entropy T*S    EENTRO =        -0.00000000
  eigenvalues    EBANDS =       311.13138935
  atomic energy  EATOM  =     13192.48085998
  Solvation  Ediel_sol  =         0.00000000
  ---------------------------------------------------
  free energy    TOTEN  =      -677.90684871 eV

  energy without entropy =     -677.90684871  energy(sigma->0) =     -677.90684871


--------------------------------------------------------------------------------------------------------




--------------------------------------- Iteration      1(   8)  ---------------------------------------


    POTLOK:  cpu time    0.4895: real time    0.4923
    SETDIJ:  cpu time    0.5093: real time    0.5100
     EDDAV:  cpu time   76.9199: real time   76.9615
       DOS:  cpu time    0.0012: real time    0.0012
    CHARGE:  cpu time    3.1827: real time    3.1838
    MIXING:  cpu time    0.0456: real time    0.0456
    --------------------------------------------
      LOOP:  cpu time   81.1482: real time   81.1946

 eigenvalue-minimisations  :  5800
 total energy-change (2. order) :-0.5041950E-01  (-0.1221940E+00)
 number of electron     511.9999998 magnetization 
 augmentation part      -29.4620542 magnetization 

 Broyden mixing:
  rms(total) = 0.68028E-01    rms(broyden)= 0.68028E-01
  rms(prec ) = 0.84290E-01
  weight for this iteration     100.00

 eigenvalues of (default mixing * dielectric matrix)
  average eigenvalue GAMMA=   1.9944
  2.6778  1.6527  1.6527

 Free energy of the ion-electron system (eV)
  ---------------------------------------------------
  alpha Z        PSCENC =       210.77028614
  Ewald energy   TEWEN  =    -14470.30669928
  -Hartree energ DENC   =      -995.13124358
  -exchange      EXHF   =         0.00000000
  -V(xc)+E(xc)   XCENC  =     -1157.02970510
  PAW double counting   =      4739.06459462    -2500.97232711
  entropy T*S    EENTRO =        -0.00000000
  eigenvalues    EBANDS =       303.16696612
  atomic energy  EATOM  =     13192.48085998
  Solvation  Ediel_sol  =         0.00000000
  ---------------------------------------------------
  free energy    TOTEN  =      -677.95726821 eV

  energy without entropy =     -677.95726821  energy(sigma->0) =     -677.95726821


--------------------------------------------------------------------------------------------------------




--------------------------------------- Iteration      1(   9)  ---------------------------------------


    POTLOK:  cpu time    0.4903: real time    0.4919
    SETDIJ:  cpu time    0.5121: real time    0.5121
     EDDAV:  cpu time   79.2739: real time   79.3027
       DOS:  cpu time    0.0010: real time    0.0010
    CHARGE:  cpu time    3.1791: real time    3.1795
    MIXING:  cpu time    0.0398: real time    0.0398
    --------------------------------------------
      LOOP:  cpu time   83.4963: real time   83.5270

 eigenvalue-minimisations  :  6040
 total energy-change (2. order) :-0.2351447E-01  (-0.1247055E-01)
 number of electron     511.9999998 magnetization 
 augmentation part      -29.4682037 magnetization 

 Broyden mixing:
  rms(total) = 0.30912E-01    rms(broyden)= 0.30912E-01
  rms(prec ) = 0.35996E-01
  weight for this iteration     100.00

 eigenvalues of (default mixing * dielectric matrix)
  average eigenvalue GAMMA=   1.7680
  2.5950  1.8033  1.8033  0.8703

 Free energy of the ion-electron system (eV)
  ---------------------------------------------------
  alpha Z        PSCENC =       210.77028614
  Ewald energy   TEWEN  =    -14470.30669928
  -Hartree energ DENC   =     -1002.30396354
  -exchange      EXHF   =         0.00000000
  -V(xc)+E(xc)   XCENC  =     -1155.77125788
  PAW double counting   =      4742.90149914    -2504.90985782
  entropy T*S    EENTRO =        -0.00000000
  eigenvalues    EBANDS =       309.15835057
  atomic energy  EATOM  =     13192.48085998
  Solvation  Ediel_sol  =         0.00000000
  ---------------------------------------------------
  free energy    TOTEN  =      -677.98078269 eV

  energy without entropy =     -677.98078269  energy(sigma->0) =     -677.98078269


--------------------------------------------------------------------------------------------------------




--------------------------------------- Iteration      1(  10)  ---------------------------------------


    POTLOK:  cpu time    0.4925: real time    0.4941
    SETDIJ:  cpu time    0.5092: real time    0.5093
     EDDAV:  cpu time   79.5279: real time   79.5549
       DOS:  cpu time    0.0010: real time    0.0010
    CHARGE:  cpu time    3.1922: real time    3.1936
    MIXING:  cpu time    0.0415: real time    0.0415
    --------------------------------------------
      LOOP:  cpu time   83.7644: real time   83.7944

 eigenvalue-minimisations  :  6056
 total energy-change (2. order) :-0.2430520E-02  (-0.9776809E-03)
 number of electron     511.9999998 magnetization 
 augmentation part      -29.4783713 magnetization 

 Broyden mixing:
  rms(total) = 0.12974E-01    rms(broyden)= 0.12974E-01
  rms(prec ) = 0.15453E-01
  weight for this iteration     100.00

 eigenvalues of (default mixing * dielectric matrix)
  average eigenvalue GAMMA=   1.8541
  2.6882  2.6882  1.4931  1.4931  0.9081

 Free energy of the ion-electron system (eV)
  ---------------------------------------------------
  alpha Z        PSCENC =       210.77028614
  Ewald energy   TEWEN  =    -14470.30669928
  -Hartree energ DENC   =     -1001.05258902
  -exchange      EXHF   =         0.00000000
  -V(xc)+E(xc)   XCENC  =     -1155.95647586
  PAW double counting   =      4735.46708825    -2497.28879871
  entropy T*S    EENTRO =        -0.00000000
  eigenvalues    EBANDS =       307.90311529
  atomic energy  EATOM  =     13192.48085998
  Solvation  Ediel_sol  =         0.00000000
  ---------------------------------------------------
  free energy    TOTEN  =      -677.98321321 eV

  energy without entropy =     -677.98321321  energy(sigma->0) =     -677.98321321


--------------------------------------------------------------------------------------------------------




--------------------------------------- Iteration      1(  11)  ---------------------------------------


    POTLOK:  cpu time    0.4898: real time    0.4907
    SETDIJ:  cpu time    0.5064: real time    0.5084
     EDDAV:  cpu time   76.4026: real time   76.4361
       DOS:  cpu time    0.0011: real time    0.0011
    CHARGE:  cpu time    3.2043: real time    3.2052
    MIXING:  cpu time    0.0376: real time    0.0376
    --------------------------------------------
      LOOP:  cpu time   80.6418: real time   80.6791

 eigenvalue-minimisations  :  5768
 total energy-change (2. order) :-0.1790732E-02  (-0.3041311E-03)
 number of electron     511.9999998 magnetization 
 augmentation part      -29.4817339 magnetization 

 Broyden mixing:
  rms(total) = 0.43169E-02    rms(broyden)= 0.43169E-02
  rms(prec ) = 0.60713E-02
  weight for this iteration     100.00

 eigenvalues of (default mixing * dielectric matrix)
  average eigenvalue GAMMA=   1.7586
  2.8245  2.0453  1.8035  1.8035  1.2030  0.8719

 Free energy of the ion-electron system (eV)
  ---------------------------------------------------
  alpha Z        PSCENC =       210.77028614
  Ewald energy   TEWEN  =    -14470.30669928
  -Hartree energ DENC   =     -1000.85927846
  -exchange      EXHF   =         0.00000000
  -V(xc)+E(xc)   XCENC  =     -1155.97754999
  PAW double counting   =      4730.30287272    -2492.00301083
  entropy T*S    EENTRO =        -0.00000000
  eigenvalues    EBANDS =       307.60751578
  atomic energy  EATOM  =     13192.48085998
  Solvation  Ediel_sol  =         0.00000000
  ---------------------------------------------------
  free energy    TOTEN  =      -677.98500394 eV

  energy without entropy =     -677.98500394  energy(sigma->0) =     -677.98500394


--------------------------------------------------------------------------------------------------------




--------------------------------------- Iteration      1(  12)  ---------------------------------------


    POTLOK:  cpu time    0.4912: real time    0.4928
    SETDIJ:  cpu time    0.5070: real time    0.5070
     EDDAV:  cpu time   79.9454: real time   79.9767
       DOS:  cpu time    0.0011: real time    0.0011
    CHARGE:  cpu time    3.2168: real time    3.2170
    MIXING:  cpu time    0.0237: real time    0.0237
    --------------------------------------------
      LOOP:  cpu time   84.1852: real time   84.2183

 eigenvalue-minimisations  :  6128
 total energy-change (2. order) :-0.4083767E-04  (-0.5438537E-04)
 number of electron     511.9999998 magnetization 
 augmentation part      -29.4796831 magnetization 

 Broyden mixing:
  rms(total) = 0.19845E-02    rms(broyden)= 0.19845E-02
  rms(prec ) = 0.23706E-02
  weight for this iteration     100.00

 eigenvalues of (default mixing * dielectric matrix)
  average eigenvalue GAMMA=   1.8299
  3.1606  2.7021  1.7510  1.7510  0.8945  1.2749  1.2749

 Free energy of the ion-electron system (eV)
  ---------------------------------------------------
  alpha Z        PSCENC =       210.77028614
  Ewald energy   TEWEN  =    -14470.30669928
  -Hartree energ DENC   =     -1001.51612499
  -exchange      EXHF   =         0.00000000
  -V(xc)+E(xc)   XCENC  =     -1155.90210932
  PAW double counting   =      4731.73432764    -2493.48142848
  entropy T*S    EENTRO =        -0.00000000
  eigenvalues    EBANDS =       308.23584353
  atomic energy  EATOM  =     13192.48085998
  Solvation  Ediel_sol  =         0.00000000
  ---------------------------------------------------
  free energy    TOTEN  =      -677.98504478 eV

  energy without entropy =     -677.98504478  energy(sigma->0) =     -677.98504478


--------------------------------------------------------------------------------------------------------




--------------------------------------- Iteration      1(  13)  ---------------------------------------


    POTLOK:  cpu time    0.4909: real time    0.4915
    SETDIJ:  cpu time    0.5123: real time    0.5124
     EDDAV:  cpu time   76.3965: real time   76.4224
       DOS:  cpu time    0.0011: real time    0.0011
    CHARGE:  cpu time    3.1914: real time    3.1923
    MIXING:  cpu time    0.0483: real time    0.0483
    --------------------------------------------
      LOOP:  cpu time   80.6405: real time   80.6680

 eigenvalue-minimisations  :  5768
 total energy-change (2. order) :-0.3888813E-04  (-0.1506408E-04)
 number of electron     511.9999998 magnetization 
 augmentation part      -29.4796431 magnetization 

 Broyden mixing:
  rms(total) = 0.77368E-03    rms(broyden)= 0.77367E-03
  rms(prec ) = 0.10006E-02
  weight for this iteration     100.00

 eigenvalues of (default mixing * dielectric matrix)
  average eigenvalue GAMMA=   1.7721
  3.1484  2.5845  1.9155  1.9155  1.3786  1.3786  0.9278  0.9278

 Free energy of the ion-electron system (eV)
  ---------------------------------------------------
  alpha Z        PSCENC =       210.77028614
  Ewald energy   TEWEN  =    -14470.30669928
  -Hartree energ DENC   =     -1001.50870522
  -exchange      EXHF   =         0.00000000
  -V(xc)+E(xc)   XCENC  =     -1155.91482890
  PAW double counting   =      4731.06063450    -2492.79448024
  entropy T*S    EENTRO =        -0.00000000
  eigenvalues    EBANDS =       308.22784934
  atomic energy  EATOM  =     13192.48085998
  Solvation  Ediel_sol  =         0.00000000
  ---------------------------------------------------
  free energy    TOTEN  =      -677.98508367 eV

  energy without entropy =     -677.98508367  energy(sigma->0) =     -677.98508367


--------------------------------------------------------------------------------------------------------




--------------------------------------- Iteration      1(  14)  ---------------------------------------


    POTLOK:  cpu time    0.4889: real time    0.4898
    SETDIJ:  cpu time    0.5126: real time    0.5133
     EDDAV:  cpu time   79.7792: real time   79.8180
       DOS:  cpu time    0.0011: real time    0.0011
    CHARGE:  cpu time    3.2752: real time    3.2779
    MIXING:  cpu time    0.0510: real time    0.0510
    --------------------------------------------
      LOOP:  cpu time   84.1080: real time   84.1511

 eigenvalue-minimisations  :  6112
 total energy-change (2. order) :-0.3839757E-05  (-0.1150402E-05)
 number of electron     511.9999998 magnetization 
 augmentation part      -29.4795204 magnetization 

 Broyden mixing:
  rms(total) = 0.25604E-03    rms(broyden)= 0.25600E-03
  rms(prec ) = 0.34890E-03
  weight for this iteration     100.00

 eigenvalues of (default mixing * dielectric matrix)
  average eigenvalue GAMMA=   1.7578
  3.1891  2.5777  2.1934  1.6851  1.6851  1.2788  1.2788  0.9237  1.0083

 Free energy of the ion-electron system (eV)
  ---------------------------------------------------
  alpha Z        PSCENC =       210.77028614
  Ewald energy   TEWEN  =    -14470.30669928
  -Hartree energ DENC   =     -1001.56305142
  -exchange      EXHF   =         0.00000000
  -V(xc)+E(xc)   XCENC  =     -1155.90667865
  PAW double counting   =      4731.23356321    -2492.97105572
  entropy T*S    EENTRO =        -0.00000000
  eigenvalues    EBANDS =       308.27768824
  atomic energy  EATOM  =     13192.48085998
  Solvation  Ediel_sol  =         0.00000000
  ---------------------------------------------------
  free energy    TOTEN  =      -677.98508750 eV

  energy without entropy =     -677.98508750  energy(sigma->0) =     -677.98508750


--------------------------------------------------------------------------------------------------------




--------------------------------------- Iteration      1(  15)  ---------------------------------------


    POTLOK:  cpu time    0.4900: real time    0.4915
    SETDIJ:  cpu time    0.5138: real time    0.5145
     EDDAV:  cpu time   79.5275: real time   79.5694
       DOS:  cpu time    0.0011: real time    0.0011
    CHARGE:  cpu time    3.3040: real time    3.3059
    MIXING:  cpu time    0.0413: real time    0.0413
    --------------------------------------------
      LOOP:  cpu time   83.8778: real time   83.9237

 eigenvalue-minimisations  :  6088
 total energy-change (2. order) :-0.5095411E-05  (-0.3161615E-06)
 number of electron     511.9999998 magnetization 
 augmentation part      -29.4793451 magnetization 

 Broyden mixing:
  rms(total) = 0.77820E-04    rms(broyden)= 0.77676E-04
  rms(prec ) = 0.10069E-03
  weight for this iteration     100.00

 eigenvalues of (default mixing * dielectric matrix)
  average eigenvalue GAMMA=   1.7056
  3.2408  2.5998  2.1511  1.7001  1.7001  1.4036  1.4036  1.0421  0.9074  0.9074

 Free energy of the ion-electron system (eV)
  ---------------------------------------------------
  alpha Z        PSCENC =       210.77028614
  Ewald energy   TEWEN  =    -14470.30669928
  -Hartree energ DENC   =     -1001.59921014
  -exchange      EXHF   =         0.00000000
  -V(xc)+E(xc)   XCENC  =     -1155.90394939
  PAW double counting   =      4731.34210686    -2493.08289431
  entropy T*S    EENTRO =        -0.00000000
  eigenvalues    EBANDS =       308.31440755
  atomic energy  EATOM  =     13192.48085998
  Solvation  Ediel_sol  =         0.00000000
  ---------------------------------------------------
  free energy    TOTEN  =      -677.98509260 eV

  energy without entropy =     -677.98509260  energy(sigma->0) =     -677.98509260


--------------------------------------------------------------------------------------------------------




--------------------------------------- Iteration      1(  16)  ---------------------------------------


    POTLOK:  cpu time    0.4898: real time    0.4912
    SETDIJ:  cpu time    0.5106: real time    0.5106
     EDDAV:  cpu time   80.2010: real time   80.2186
       DOS:  cpu time    0.0012: real time    0.0012
    CHARGE:  cpu time    3.1923: real time    3.1960
    MIXING:  cpu time    0.0346: real time    0.0346
    --------------------------------------------
      LOOP:  cpu time   84.4294: real time   84.4523

 eigenvalue-minimisations  :  6144
 total energy-change (2. order) : 0.3044006E-06  (-0.3207386E-07)
 number of electron     511.9999998 magnetization 
 augmentation part      -29.4793316 magnetization 

 Broyden mixing:
  rms(total) = 0.46775E-04    rms(broyden)= 0.46536E-04
  rms(prec ) = 0.62798E-04
  weight for this iteration     100.00

 eigenvalues of (default mixing * dielectric matrix)
  average eigenvalue GAMMA=   1.7041
  3.2869  2.6280  2.0429  2.0429  1.4632  1.4632  1.4100  1.4100  0.9109  1.0438
  1.0438

 Free energy of the ion-electron system (eV)
  ---------------------------------------------------
  alpha Z        PSCENC =       210.77028614
  Ewald energy   TEWEN  =    -14470.30669928
  -Hartree energ DENC   =     -1001.59930451
  -exchange      EXHF   =         0.00000000
  -V(xc)+E(xc)   XCENC  =     -1155.90399973
  PAW double counting   =      4731.33598040    -2493.07648287
  entropy T*S    EENTRO =        -0.00000000
  eigenvalues    EBANDS =       308.31426758
  atomic energy  EATOM  =     13192.48085998
  Solvation  Ediel_sol  =         0.00000000
  ---------------------------------------------------
  free energy    TOTEN  =      -677.98509230 eV

  energy without entropy =     -677.98509230  energy(sigma->0) =     -677.98509230


--------------------------------------------------------------------------------------------------------




--------------------------------------- Iteration      1(  17)  ---------------------------------------


    POTLOK:  cpu time    0.4892: real time    0.4901
    SETDIJ:  cpu time    0.5101: real time    0.5102
     EDDAV:  cpu time   74.7012: real time   74.7201
       DOS:  cpu time    0.0012: real time    0.0012
    CHARGE:  cpu time    3.1944: real time    3.1947
    MIXING:  cpu time    0.0415: real time    0.0415
    --------------------------------------------
      LOOP:  cpu time   78.9376: real time   78.9578

 eigenvalue-minimisations  :  5600
 total energy-change (2. order) : 0.2930719E-06  (-0.5963441E-08)
 number of electron     511.9999998 magnetization 
 augmentation part      -29.4793411 magnetization 

 Broyden mixing:
  rms(total) = 0.19081E-04    rms(broyden)= 0.18487E-04
  rms(prec ) = 0.22544E-04
  weight for this iteration     100.00

 eigenvalues of (default mixing * dielectric matrix)
  average eigenvalue GAMMA=   1.6886
  3.2739  2.6029  2.3562  1.7431  1.7431  1.5126  1.4489  1.4489  0.9227  1.0041
  1.1036  1.1036

 Free energy of the ion-electron system (eV)
  ---------------------------------------------------
  alpha Z        PSCENC =       210.77028614
  Ewald energy   TEWEN  =    -14470.30669928
  -Hartree energ DENC   =     -1001.59742408
  -exchange      EXHF   =         0.00000000
  -V(xc)+E(xc)   XCENC  =     -1155.90412500
  PAW double counting   =      4731.33366276    -2493.07390037
  entropy T*S    EENTRO =        -0.00000000
  eigenvalues    EBANDS =       308.31224784
  atomic energy  EATOM  =     13192.48085998
  Solvation  Ediel_sol  =         0.00000000
  ---------------------------------------------------
  free energy    TOTEN  =      -677.98509200 eV

  energy without entropy =     -677.98509200  energy(sigma->0) =     -677.98509200


--------------------------------------------------------------------------------------------------------




--------------------------------------- Iteration      1(  18)  ---------------------------------------


    POTLOK:  cpu time    0.4886: real time    0.4901
    SETDIJ:  cpu time    0.5109: real time    0.5110
     EDDAV:  cpu time   52.5334: real time   52.5382
       DOS:  cpu time    0.0012: real time    0.0012
    CHARGE:  cpu time    3.1835: real time    3.1837
    MIXING:  cpu time    0.0359: real time    0.0359
    --------------------------------------------
      LOOP:  cpu time   56.7536: real time   56.7602

 eigenvalue-minimisations  :  3376
 total energy-change (2. order) :-0.2500838E-06  (-0.1499019E-08)
 number of electron     511.9999998 magnetization 
 augmentation part      -29.4793345 magnetization 

 Broyden mixing:
  rms(total) = 0.79420E-05    rms(broyden)= 0.63853E-05
  rms(prec ) = 0.85345E-05
  weight for this iteration     100.00
  WARNING: grid for Broyden might be to small

 eigenvalues of (default mixing * dielectric matrix)
  average eigenvalue GAMMA=   1.7153
  3.3206  2.6881  2.3332  2.3332  1.8071  1.8071  1.2757  1.2757  1.2660  1.2660
  0.9219  1.0022  1.0022

 Free energy of the ion-electron system (eV)
  ---------------------------------------------------
  alpha Z        PSCENC =       210.77028614
  Ewald energy   TEWEN  =    -14470.30669928
  -Hartree energ DENC   =     -1001.59896198
  -exchange      EXHF   =         0.00000000
  -V(xc)+E(xc)   XCENC  =     -1155.90393570
  PAW double counting   =      4731.34174866    -2493.08214074
  entropy T*S    EENTRO =        -0.00000000
  eigenvalues    EBANDS =       308.31375066
  atomic energy  EATOM  =     13192.48085998
  Solvation  Ediel_sol  =         0.00000000
  ---------------------------------------------------
  free energy    TOTEN  =      -677.98509225 eV

  energy without entropy =     -677.98509225  energy(sigma->0) =     -677.98509225


--------------------------------------------------------------------------------------------------------




--------------------------------------- Iteration      1(  19)  ---------------------------------------


    POTLOK:  cpu time    0.4893: real time    0.4922
    SETDIJ:  cpu time    0.5068: real time    0.5068
     EDDAV:  cpu time   51.4392: real time   51.4473
       DOS:  cpu time    0.0012: real time    0.0012
    CHARGE:  cpu time    3.1917: real time    3.1919
    MIXING:  cpu time    0.0264: real time    0.0264
    --------------------------------------------
      LOOP:  cpu time   55.6547: real time   55.6658

 eigenvalue-minimisations  :  3272
 total energy-change (2. order) : 0.5054608E-07  (-0.2725437E-09)
 number of electron     511.9999998 magnetization 
 augmentation part      -29.4793351 magnetization 

 Broyden mixing:
  rms(total) = 0.56498E-05    rms(broyden)= 0.31010E-05
  rms(prec ) = 0.41108E-05
  weight for this iteration     100.00
  WARNING: grid for Broyden might be to small

 eigenvalues of (default mixing * dielectric matrix)
  average eigenvalue GAMMA=   1.6849
  3.3229  2.6881  2.3178  2.2497  1.8417  1.8417  1.3271  1.3271  1.3325  1.3325
  0.9334  0.9334  1.0703  1.0703

 Free energy of the ion-electron system (eV)
  ---------------------------------------------------
  alpha Z        PSCENC =       210.77028614
  Ewald energy   TEWEN  =    -14470.30669928
  -Hartree energ DENC   =     -1001.59878474
  -exchange      EXHF   =         0.00000000
  -V(xc)+E(xc)   XCENC  =     -1155.90395309
  PAW double counting   =      4731.34115554    -2493.08150739
  entropy T*S    EENTRO =        -0.00000000
  eigenvalues    EBANDS =       308.31355064
  atomic energy  EATOM  =     13192.48085998
  Solvation  Ediel_sol  =         0.00000000
  ---------------------------------------------------
  free energy    TOTEN  =      -677.98509220 eV

  energy without entropy =     -677.98509220  energy(sigma->0) =     -677.98509220


--------------------------------------------------------------------------------------------------------




--------------------------------------- Iteration      1(  20)  ---------------------------------------


    POTLOK:  cpu time    0.4898: real time    0.4911
    SETDIJ:  cpu time    0.5127: real time    0.5127
     EDDAV:  cpu time   50.4599: real time   50.4799
       DOS:  cpu time    0.0011: real time    0.0011
    CHARGE:  cpu time    3.1579: real time    3.1582
    MIXING:  cpu time    0.0476: real time    0.0476
    --------------------------------------------
      LOOP:  cpu time   54.6691: real time   54.6907

 eigenvalue-minimisations  :  3168
 total energy-change (2. order) :-0.1344415E-07  (-0.5074452E-10)
 number of electron     511.9999998 magnetization 
 augmentation part      -29.4793344 magnetization 

 Broyden mixing:
  rms(total) = 0.49281E-05    rms(broyden)= 0.14078E-05
  rms(prec ) = 0.19907E-05
  weight for this iteration     100.00
  WARNING: grid for Broyden might be to small

 eigenvalues of (default mixing * dielectric matrix)
  average eigenvalue GAMMA=   1.7070
  3.2475  2.7884  2.4625  2.4625  1.8689  1.8689  1.7546  1.2205  1.2205  1.3011
  1.3011  1.2780  0.9747  0.9092  0.9471

 Free energy of the ion-electron system (eV)
  ---------------------------------------------------
  alpha Z        PSCENC =       210.77028614
  Ewald energy   TEWEN  =    -14470.30669928
  -Hartree energ DENC   =     -1001.59891871
  -exchange      EXHF   =         0.00000000
  -V(xc)+E(xc)   XCENC  =     -1155.90393707
  PAW double counting   =      4731.34149789    -2493.08185863
  entropy T*S    EENTRO =        -0.00000000
  eigenvalues    EBANDS =       308.31367746
  atomic energy  EATOM  =     13192.48085998
  Solvation  Ediel_sol  =         0.00000000
  ---------------------------------------------------
  free energy    TOTEN  =      -677.98509222 eV

  energy without entropy =     -677.98509222  energy(sigma->0) =     -677.98509222


--------------------------------------------------------------------------------------------------------




--------------------------------------- Iteration      1(  21)  ---------------------------------------


    POTLOK:  cpu time    0.4883: real time    0.4916
    SETDIJ:  cpu time    0.5122: real time    0.5123
     EDDAV:  cpu time   50.1718: real time   50.1833
       DOS:  cpu time    0.0011: real time    0.0011
    --------------------------------------------
      LOOP:  cpu time   51.1734: real time   51.1883

 eigenvalue-minimisations  :  3152
 total energy-change (2. order) : 0.5082256E-08  (-0.1735713E-10)
 number of electron     511.9999998 magnetization 
 augmentation part      -29.4793344 magnetization 

 Free energy of the ion-electron system (eV)
  ---------------------------------------------------
  alpha Z        PSCENC =       210.77028614
  Ewald energy   TEWEN  =    -14470.30669928
  -Hartree energ DENC   =     -1001.59882042
  -exchange      EXHF   =         0.00000000
  -V(xc)+E(xc)   XCENC  =     -1155.90394625
  PAW double counting   =      4731.34141368    -2493.08177071
  entropy T*S    EENTRO =        -0.00000000
  eigenvalues    EBANDS =       308.31358464
  atomic energy  EATOM  =     13192.48085998
  Solvation  Ediel_sol  =         0.00000000
  ---------------------------------------------------
  free energy    TOTEN  =      -677.98509221 eV

  energy without entropy =     -677.98509221  energy(sigma->0) =     -677.98509221


--------------------------------------------------------------------------------------------------------




 average (electrostatic) potential at core
  the test charge radii are     0.9892
  (the norm of the test charge is              1.0000)
       1 -83.8329       2 -83.6493       3 -83.6440       4 -83.5562       5 -83.5722
       6 -83.7114       7 -83.5174       8 -83.6424       9 -83.5839      10 -83.7321
      11 -83.5234      12 -83.5530      13 -83.7041      14 -83.7017      15 -83.5397
      16 -83.5052      17 -83.5805      18 -83.6625      19 -83.5631      20 -83.5809
      21 -83.4444      22 -83.6597      23 -83.4742      24 -83.4088      25 -83.5457
      26 -83.5026      27 -83.3646      28 -83.4310      29 -83.5338      30 -83.5220
      31 -83.4418      32 -83.5564      33 -83.4436      34 -83.5251      35 -83.4407
      36 -83.4221      37 -83.4869      38 -83.5053      39 -83.3793      40 -83.5686
      41 -83.4561      42 -83.4152      43 -83.2860      44 -83.4094      45 -83.5001
      46 -83.4946      47 -83.4144      48 -83.3526      49 -83.5650      50 -83.6045
      51 -83.4227      52 -83.5032      53 -83.5706      54 -83.4986      55 -83.3308
      56 -83.4568      57 -83.4346      58 -83.5792      59 -83.4492      60 -83.4285
      61 -83.5427      62 -83.5942      63 -83.4098      64 -83.3858      65 -83.7119
      66 -83.6364      67 -83.6238      68 -83.6092      69 -83.6060      70 -83.7706
      71 -83.5252      72 -83.5671      73 -83.5759      74 -83.7197      75 -83.2849
      76 -83.5861      77 -83.7836      78 -83.6462      79 -83.6095      80 -83.5827
      81 -83.5329      82 -83.6594      83 -83.4619      84 -83.5339      85 -83.4069
      86 -83.6678      87 -83.3562      88 -83.4723      89 -83.5698      90 -83.5099
      91 -83.3548      92 -83.3731      93 -83.4780      94 -83.6249      95 -83.4518
      96 -83.5578      97 -83.4935      98 -83.6031      99 -83.2914     100 -83.5306
     101 -83.5664     102 -83.3783     103 -83.5639     104 -83.4982     105 -83.4400
     106 -83.5161     107 -83.4156     108 -83.3282     109 -83.3520     110 -83.4720
     111 -83.4811     112 -83.3626     113 -83.5953     114 -83.4599     115 -83.4540
     116 -83.5023     117 -83.4514     118 -83.5375     119 -83.4019     120 -83.5844
     121 -83.5964     122 -83.5561     123 -83.4073     124 -83.4692     125 -83.5945
     126 -83.5637     127 -83.4703     128 -83.5836
 
 
 
 E-fermi :   5.9947     XC(G=0):  -9.3335     alpha+bet :-11.7321


 k-point     1 :       0.0000    0.0000    0.0000
  band No.  band energies     occupation 
      1      -6.2969      2.00000
      2      -5.6898      2.00000
      3      -5.6104      2.00000
      4      -5.5847      2.00000
      5      -5.5484      2.00000
      6      -5.5311      2.00000
      7      -5.5157      2.00000
      8      -5.4083      2.00000
      9      -5.3915      2.00000
     10      -5.3292      2.00000
     11      -5.2862      2.00000
     12      -5.2622      2.00000
     13      -5.1801      2.00000
     14      -5.1231      2.00000
     15      -5.0602      2.00000
     16      -4.5154      2.00000
     17      -4.4517      2.00000
     18      -4.4362      2.00000
     19      -4.4081      2.00000
     20      -4.3723      2.00000
     21      -4.3300      2.00000
     22      -4.3087      2.00000
     23      -4.2847      2.00000
     24      -4.2466      2.00000
     25      -4.2112      2.00000
     26      -4.1659      2.00000
     27      -4.0928      2.00000
     28      -4.0581      2.00000
     29      -4.0506      2.00000
     30      -4.0040      2.00000
     31      -3.9154      2.00000
     32      -3.9028      2.00000
     33      -3.8627      2.00000
     34      -3.8203      2.00000
     35      -3.7897      2.00000
     36      -3.7647      2.00000
     37      -3.7444      2.00000
     38      -3.7347      2.00000
     39      -3.6875      2.00000
     40      -3.6073      2.00000
     41      -3.5980      2.00000
     42      -3.5893      2.00000
     43      -3.5578      2.00000
     44      -3.5474      2.00000
     45      -3.4964      2.00000
[...]
   0.143E+02 -.830E+00 0.226E+01   -.124E+02 0.378E+00 -.221E+01   -.392E+01 0.172E+01 -.178E+01   0.173E-05 -.262E-05 -.335E-06
   -.649E+01 0.532E+01 0.369E+01   0.569E+01 -.456E+01 -.357E+01   0.324E+01 -.125E+01 -.207E+01   -.137E-05 0.146E-05 0.170E-05
   -.338E+01 0.597E+01 -.819E+00   0.311E+01 -.480E+01 0.747E+00   0.122E+01 -.798E+00 -.327E+00   -.237E-05 0.685E-06 -.177E-06
   0.859E+01 0.625E+01 -.796E+01   -.774E+01 -.570E+01 0.698E+01   -.148E+01 -.219E+01 0.233E+01   0.161E-05 0.212E-05 -.237E-05
   -.347E+01 -.947E+01 0.133E+01   0.310E+01 0.826E+01 -.168E+01   0.109E+01 0.328E+01 -.919E+00   0.142E-05 -.281E-05 0.420E-06
   -.448E+01 0.113E+02 -.185E+01   0.422E+01 -.102E+02 0.162E+01   0.628E+00 -.256E+01 0.199E+01   -.243E-06 0.147E-05 -.506E-06
   0.838E+01 -.117E+02 -.442E+01   -.694E+01 0.110E+02 0.463E+01   -.376E+01 0.302E+01 -.807E+00   0.650E-06 -.188E-05 0.128E-05
   -.744E+01 0.198E+01 0.844E+01   0.704E+01 -.206E+01 -.809E+01   0.174E+01 0.564E-01 -.108E+01   -.206E-05 0.147E-06 0.455E-06
   -.119E+01 -.895E+01 0.326E+01   0.104E+01 0.795E+01 -.285E+01   0.678E+00 0.249E+01 -.331E+00   0.992E-06 -.151E-05 0.111E-06
   -.470E+01 -.101E+01 -.552E+01   0.378E+01 0.972E+00 0.455E+01   0.834E+00 0.116E+01 0.209E+01   -.182E-05 0.112E-05 -.819E-06
   0.158E+02 -.924E+00 0.762E+01   -.143E+02 0.111E+01 -.652E+01   -.457E+01 0.171E+01 -.323E+01   0.453E-06 -.495E-06 0.129E-05
   0.228E+01 -.216E+01 0.330E+01   -.194E+01 0.172E+01 -.314E+01   -.124E+00 0.342E+00 -.195E+01   -.835E-06 -.813E-07 0.147E-05
   0.214E+01 -.526E+01 0.151E+01   -.195E+01 0.487E+01 -.844E+00   -.691E+00 0.222E+01 -.243E-01   -.209E-05 -.605E-06 -.161E-05
   0.543E+01 0.333E+01 0.215E+01   -.492E+01 -.317E+01 -.180E+01   -.166E+01 0.121E+01 -.551E+00   0.844E-06 -.269E-06 0.865E-06
   0.185E+00 -.444E+01 -.173E+01   -.111E+00 0.423E+01 0.165E+01   0.111E-01 0.210E+01 0.101E+01   -.154E-05 0.117E-05 0.135E-05
   0.168E+02 0.405E+01 -.783E+01   -.154E+02 -.305E+01 0.664E+01   -.394E+01 -.271E+01 0.177E+01   0.402E-05 -.240E-05 -.170E-05
   0.302E+01 0.181E+01 0.562E+00   -.285E+01 -.137E+01 -.916E+00   -.812E+00 -.309E+00 -.507E+00   0.126E-05 0.544E-06 -.464E-06
   0.164E+01 0.815E+01 -.113E+01   -.138E+01 -.757E+01 0.805E+00   -.540E-01 0.492E-01 0.795E+00   0.173E-05 0.296E-06 -.633E-06
   0.637E+00 0.446E+01 -.520E+01   -.116E+01 -.400E+01 0.488E+01   -.224E+00 -.732E+00 0.315E-01   -.114E-06 0.335E-05 -.250E-06
   -.107E+01 0.374E+01 -.574E+01   0.106E+01 -.317E+01 0.573E+01   0.202E+00 -.938E+00 -.482E+00   -.164E-06 -.183E-05 -.118E-05
   0.167E+01 0.971E+01 -.362E+01   -.157E+01 -.865E+01 0.338E+01   0.364E+00 -.273E+01 -.405E+00   0.123E-05 0.936E-06 -.548E-08
   -.738E+01 -.328E+01 0.818E+00   0.673E+01 0.354E+01 -.439E+00   0.108E+01 -.354E+00 -.143E+01   -.255E-06 -.852E-06 -.104E-05
   0.114E+02 0.829E+01 0.868E+01   -.110E+02 -.728E+01 -.805E+01   -.194E+01 -.162E+01 -.171E+01   0.150E-05 0.257E-05 -.778E-06
   -.675E+01 -.313E+01 -.219E+01   0.537E+01 0.287E+01 0.277E+01   0.338E+01 -.783E-01 -.531E+00   -.116E-05 -.208E-06 0.823E-06
   -.243E+01 0.250E+01 -.244E+01   0.278E+01 -.232E+01 0.156E+01   -.139E+00 0.781E-01 0.199E+01   -.130E-05 0.361E-06 -.747E-06
   0.677E+01 0.132E+01 0.895E+01   -.563E+01 -.985E+00 -.825E+01   -.346E+01 0.994E-01 -.239E+01   -.112E-06 -.252E-06 -.202E-06
   -.152E+01 0.248E+01 -.448E+01   0.130E+01 -.269E+01 0.439E+01   0.897E+00 -.947E-01 0.267E+01   0.206E-06 0.105E-05 0.602E-07
   0.117E+01 -.860E+01 0.642E+00   -.160E+01 0.796E+01 -.482E+00   0.183E+01 0.137E+01 -.831E-01   0.748E-06 -.311E-05 0.444E-06
   -.117E+02 0.304E+01 0.993E+00   0.106E+02 -.263E+01 -.909E+00   0.354E+01 -.412E+00 0.281E+00   0.363E-06 0.210E-05 -.525E-08
   -.336E+01 0.519E+01 -.430E+01   0.336E+01 -.432E+01 0.354E+01   -.921E+00 -.663E+00 0.306E+01   0.133E-05 0.134E-05 0.414E-06
   0.288E+01 -.435E+01 0.426E+01   -.350E+01 0.401E+01 -.386E+01   -.153E+01 0.370E+00 -.100E+01   0.409E-07 0.263E-06 0.203E-05
   0.642E+01 -.162E+02 0.439E+00   -.635E+01 0.149E+02 -.745E+00   -.113E+01 0.334E+01 -.161E+00   -.282E-06 -.317E-05 -.795E-06
   0.149E+01 -.116E+02 -.198E+01   -.160E+01 0.997E+01 0.153E+01   -.558E+00 0.413E+01 -.380E-01   0.252E-05 -.381E-06 -.111E-05
   -.107E+02 -.307E+01 0.883E+01   0.101E+02 0.254E+01 -.906E+01   0.843E+00 0.185E+01 -.697E+00   -.148E-05 0.766E-06 0.632E-06
   -.217E+01 -.367E+01 -.139E+01   0.219E+01 0.343E+01 0.159E+01   -.149E+01 0.514E+00 -.129E+01   -.272E-05 -.385E-06 -.186E-05
   -.519E+01 0.415E+01 -.232E+01   0.493E+01 -.393E+01 0.209E+01   0.155E+01 0.165E+00 0.158E+01   -.376E-06 0.142E-05 -.177E-06
   0.632E+01 -.396E+01 -.152E+02   -.552E+01 0.426E+01 0.136E+02   -.258E+01 -.135E+01 0.472E+01   0.222E-06 -.661E-06 -.600E-06
   -.590E+00 -.953E+01 0.487E+00   0.531E+00 0.856E+01 -.489E+00   0.144E+00 0.211E+01 -.635E+00   -.116E-05 0.404E-06 -.816E-06
   -.311E+01 -.121E+01 0.994E+01   0.255E+01 0.117E+01 -.910E+01   0.109E+01 0.521E+00 -.123E+01   -.125E-05 -.140E-05 -.491E-06
   0.664E+01 -.968E+01 -.358E+01   -.639E+01 0.875E+01 0.360E+01   -.706E+00 0.173E+01 0.113E+01   0.493E-06 0.296E-06 -.108E-05
   0.344E+01 -.583E+00 0.462E+01   -.302E+01 -.480E-01 -.436E+01   -.861E+00 0.186E+01 -.123E+01   0.164E-05 0.615E-06 0.120E-05
   0.551E+00 -.545E+01 0.134E+02   -.106E+00 0.474E+01 -.125E+02   -.145E+01 0.181E+01 -.233E+01   0.323E-06 0.671E-06 0.136E-05
   -.514E+01 0.303E+01 0.395E+01   0.394E+01 -.193E+01 -.281E+01   0.312E+00 -.198E+01 -.648E+00   -.310E-06 -.125E-05 0.624E-06
   0.586E+01 -.354E+01 -.632E+01   -.557E+01 0.287E+01 0.536E+01   -.106E+01 0.100E+01 0.167E+01   0.523E-06 0.141E-05 0.828E-06
   -.191E+01 -.971E+01 -.840E+01   0.156E+01 0.889E+01 0.757E+01   -.669E+00 0.209E+01 0.431E+00   0.468E-06 -.305E-05 -.106E-05
   -.108E+02 0.330E+01 0.654E+01   0.994E+01 -.322E+01 -.628E+01   0.265E+01 0.272E+00 -.641E+00   -.241E-05 -.218E-06 0.239E-05
   -.900E+01 -.148E+01 0.401E+01   0.769E+01 0.199E+01 -.305E+01   0.103E+01 -.170E+00 -.176E+01   -.891E-06 0.146E-06 0.166E-06
   0.269E+00 0.150E+01 0.132E+02   -.118E+00 -.132E+01 -.118E+02   0.274E+00 -.485E+00 -.459E+01   0.450E-06 0.182E-05 0.178E-05
   0.618E+00 -.106E+02 -.301E+01   -.431E+00 0.102E+02 0.224E+01   -.496E+00 0.101E+01 0.370E+00   -.238E-06 -.248E-05 -.266E-05
   -.619E+01 -.655E+01 0.496E+01   0.558E+01 0.596E+01 -.504E+01   0.411E+00 0.174E+01 -.133E+01   -.356E-06 -.167E-05 0.787E-06
   -.661E+01 0.229E+01 0.753E+01   0.566E+01 -.182E+01 -.685E+01   0.178E+01 -.231E+00 -.238E+01   0.607E-06 0.819E-06 0.141E-05
   -.728E+01 -.180E+01 -.121E+01   0.708E+01 0.179E+01 0.152E+01   0.629E+00 -.149E+00 -.305E+00   -.131E-05 0.111E-07 -.164E-05
   0.177E+00 -.164E+01 0.131E+01   -.269E+00 0.133E+01 -.139E+01   0.103E+01 0.769E+00 0.663E-01   -.138E-06 -.714E-07 0.871E-06
 -----------------------------------------------------------------------------------------------
   0.150E+00 0.437E+00 -.144E+00   0.273E-13 0.110E-12 -.293E-13   -.150E+00 -.437E+00 0.144E+00   0.596E-06 -.166E-06 -.172E-05
 
 
 POSITION                                       TOTAL-FORCE (eV/Angst)
 -----------------------------------------------------------------------------------
     10.91301     10.84317     21.68026        -0.972338      0.631090      1.931680
      0.08212      2.69627      2.76505        -1.388445     -1.035089     -1.212448
     11.02303      5.54175     16.34751        -0.178494     -0.346939     -0.261751
     10.91823     19.04656      8.17411         0.365053     -0.612976      0.893617
      2.80058      0.15173      2.69826        -0.449948     -1.889732      1.223737
      2.64298      2.81190      5.40069         2.617798     -1.334864      1.067479
      2.84424      5.43376      8.23325         0.149389     -0.561867     -0.441301
      2.67081      8.21544     10.73423        -0.436963      0.693884      3.146768
     16.37210     11.00923      5.59320        -0.646068     -3.296571     -0.263970
      5.45994      2.91527      8.27916         0.765141     -2.419342     -0.224850
      5.63895      5.55351     11.04900        -2.638566     -1.810758     -0.597508
      5.52359      8.17765     13.57185        -0.567099      1.001040      1.558773
      8.20861     10.97562     18.88128         0.193941     -1.734996      2.306540
      8.32131      2.75904     10.80727        -1.623942      0.053882      2.323530
      8.31945      5.50426     13.57093        -0.818158     -0.304460      0.696906
      8.29390      8.15034     16.42076        -0.381280     -1.455113      0.547663
      2.81601     13.62873     10.96550        -1.186070     -0.438924     -0.616394
      2.71569      5.37775      2.70992        -0.127274     -0.027974      0.168983
      2.74809      8.20820      5.51628         0.506871     -0.725423     -0.754825
      2.90922     10.87956      8.20096        -2.465719     -0.067878      0.025897
      5.39095      2.79586      2.83043        -0.253675     -1.096766     -1.643489
      5.49842      5.64972      5.28640         2.448172     -2.671801      2.538938
      5.41761      8.06877      8.18917         0.329014      0.153538      1.212510
      5.30411     10.99741     11.03561         1.362084     -0.310201     -0.580708
      8.06372      2.74637      5.47563         0.980885     -0.418341     -0.024802
      8.29337      5.50780      8.22927         0.737407     -3.444187      0.704442
      8.20708      8.17676     10.88480         0.886125      0.220572      0.824127
      8.15134     10.99355     13.69643         1.312183     -0.754073      1.013471
     11.02406     13.72798     19.08272        -0.917764     -1.116093      1.282786
     10.98231      5.58707     10.84066         0.255306     -1.479551      1.101025
     11.03192      8.15751     13.61599         0.652315      1.186749     -0.206737
     11.07586     10.96143     16.31474        -0.924255      0.006158      1.861564
     16.33765      5.52969     11.00152         2.065908     -0.663826     -0.679465
     16.34607      8.16458     13.51558         1.086208      0.859573      2.125529
     16.45921     11.06387     16.46892        -1.230452     -1.275464     -1.180299
      5.48607     13.65051      8.18394        -0.804652      1.008099      0.489572
      8.17524     16.39535     13.60154         0.379173      0.897418      1.683725
      8.25843      8.14329      5.60257        -0.253720     -0.624221     -1.163194
      8.15230     10.81747      8.21157        -1.364917      0.139176      0.433462
      8.35380     13.68976     11.16368        -2.060642     -1.210180     -2.089761
     10.89109      5.49659      5.53704         1.726500     -1.938354      0.441843
     10.96904      8.34722      8.28073         0.389128     -0.451332     -1.472683
     10.86215     10.81411     11.00622         1.037506      1.816931     -1.462400
     11.03330     13.81541     13.80262        -0.941540     -1.589682     -1.331574
     13.67652      5.56956      8.43669        -0.023128     -1.182280     -2.800861
     13.54752      8.17782     10.78377         2.020000      0.018720      1.963449
     13.57963     10.85555     13.65256         1.032570     -0.945841      0.009059
     13.78848     13.67111     16.41667         0.677619     -0.853061      0.222403
      8.26730     19.04308     10.93583        -0.499175     -0.104598      0.437081
     19.21190     11.04377     13.68898        -0.098266     -1.197022      0.018116
      8.30789     13.55472      5.55481        -1.199078      0.844654     -0.387944
      8.28558     16.45385      8.25814        -0.575712     -1.160447     -1.104590
     10.78684      8.19468      2.73382         2.328122     -0.116532      0.665987
     10.82861     11.02596      5.71906         1.816040      0.132724     -1.700168
     10.97498     13.62633      8.23552        -0.893053      0.136314      0.370665
     10.98856     16.48469     10.98340         0.953672     -1.789373      0.322242
     13.58210      8.27019      5.43050         1.408879     -0.896158     -0.201653
     13.57117     11.06692      8.30447         0.964494      0.374501     -0.634406
     13.63863     13.59821     10.86821         0.393552      0.472359      1.779891
     13.67683     16.32032     13.62180        -0.379794      0.516738      2.170341
     16.36545      8.23373      8.27025        -0.325907     -0.305734     -0.239770
     16.36606     10.95397     10.87115         1.019047     -0.733044      0.926777
     16.48112     13.61059     13.62530        -0.276695      0.187249      1.531992
     16.42369     16.34131     16.29966         1.450361      1.321343     -0.961479
      1.35983      1.25022      1.32796        -0.375207      1.016316     -0.644607
      1.34201      3.95804      4.07227        -0.106122      2.790535     -0.307196
      1.46446      6.80615      6.90642        -0.171737     -0.161613     -0.512943
      1.27984      9.49056      9.52902         0.800456      0.605436     -1.801538
      4.17040      1.27997      4.22526        -1.179375      1.918116     -1.160575
      4.27152      4.02837      6.76201        -1.514173      2.019577     -1.109211
      3.96631      6.77348      9.77031         2.627317     -1.031803     -1.918573
      4.02798      9.60835     12.26519        -0.385174     -1.075734      0.544936
      6.77181      1.28193      6.80619        -0.041774      2.885254      0.942705
      6.84239      4.08945      9.64642         0.699423      1.444038     -0.335192
      6.84227      6.85714     12.29285         2.056789      0.699525      0.551066
      7.01020      9.51458     15.22397        -2.045627      1.266810     -1.726740
      9.36282      1.29504      9.56149         2.439786     -0.495262     -1.952668
      9.61401      4.07626     12.26918         0.948418      0.369184     -0.399331
      9.65938      6.96774     14.88478        -0.627892     -1.641945      1.349320
      9.56568      9.37468     17.84460         0.725919      2.073935     -1.275348
      4.04034      4.20687      1.22874         0.371840     -1.453346      1.759369
      4.18842      6.71666      3.97050        -2.313401      2.317760     -0.598186
      4.11384      9.52592      6.84903         1.343771     -0.025799     -0.735461
      4.09049     12.22413      9.55439         0.529512      1.498285      0.078975
      6.85455      4.06406      3.96492        -0.092577      1.121966      1.116091
      7.04736      6.71496      6.98684        -3.083072      1.891091     -2.128742
      6.68403      9.54121      9.78153         0.210349     -0.090151     -1.790201
      6.82319     12.19796     12.29534        -0.501750      1.825634      0.639209
      9.61559      3.96826      6.82107        -1.150236      1.369973     -0.194657
      9.62940      6.79480      9.45482         0.084861      1.893157      0.929328
      9.71085      9.63780     12.40062        -2.543338     -1.709074      0.579558
      9.62217     12.36854     15.12906        -0.643928      0.135257     -0.860981
     12.32722      4.03719      9.58259         0.208447      0.625074      0.472861
     12.41208      6.84318     12.29288        -0.747909     -0.276855     -0.286161
     12.32109      9.51176     15.07804         0.189615     -0.367691     -0.491185
     12.40955     12.41923     17.83377         0.462699     -1.677782     -0.644361
      6.81227      6.83401      1.42099         0.433938     -0.092909     -1.047203
      7.06359      9.68671      4.29467        -1.567429     -0.612173     -1.080041
      6.75156     12.32387      6.92046         1.993256     -0.338397      0.046282
      6.87094     15.00555      9.54665         0.209425      0.255944      1.114170
      9.71795      6.82153      4.24640        -2.327478      0.437564     -1.682063
      9.49556      9.58350      6.74422         0.683637     -0.308082      2.588284
      9.41406     12.18678      9.61620         1.404899      0.734350      0.076393
      9.53478     15.13769     12.34914         2.443460      0.005550      0.365074
     12.40779      6.81692      6.72266        -0.920485      0.204094      2.293697
     12.40422      9.68488      9.65995        -2.142663      0.034645     -0.607531
     12.31296     12.13271     12.31115        -1.062830      2.096700     -0.467156
     12.41225     14.90858     15.18421        -0.673401      2.522283     -0.492312
     15.05022      6.81182      9.70044         0.263414      1.325923     -0.926508
     15.07077      9.55579     12.28624        -1.465699      0.284159     -1.094639
     14.93960     12.24542     14.86673         1.286071      0.386267      1.353804
     15.20008     15.10447     17.58000        -1.785608     -1.053177      3.086858
      9.51501      9.50291      1.37867         0.085278      1.135624     -0.636452
      9.61936     12.26736      4.16595         0.524576      0.477477     -0.393851
      9.71171     14.98879      6.73001        -0.456339      0.797947      1.151237
      9.65491     17.66538      9.65861        -0.431751      1.229447     -0.970113
     12.25257      9.62094      4.22411        -1.000816      1.102214     -1.450849
     12.37410     12.45073      6.84040        -0.895006     -0.874418      0.492047
     12.36839     15.01160      9.50247        -0.770913      0.324089      0.709048
     12.41240     17.73896     12.34663        -1.017164      1.259236     -0.401063
     14.75999      9.55655      6.98422         1.776881      0.352555     -0.379812
     15.08981     12.35189      9.59341        -0.286827      0.334940     -0.794168
     15.09095     15.01287     12.54016         0.425657     -0.306155     -3.212302
     15.05374     17.75493     15.00579        -0.308731      0.552506     -0.401634
     17.82931      9.47810      9.66769        -0.198709      1.156442     -1.404661
     17.74314     12.25065     12.35197         0.831169      0.239162     -1.708257
     17.88653     14.99440     15.01463         0.430077     -0.156641      0.004823
     17.66727     17.70812     17.79070         0.936520      0.451317     -0.004200
 -----------------------------------------------------------------------------------
    total drift:                                0.000002     -0.000019     -0.000002


--------------------------------------------------------------------------------------------------------



  FREE ENERGIE OF THE ION-ELECTRON SYSTEM (eV)
  ---------------------------------------------------
  free  energy   TOTEN  =      -677.98509221 eV

  energy  without entropy=     -677.98509221  energy(sigma->0) =     -677.98509221
 


--------------------------------------------------------------------------------------------------------


    POTLOK:  cpu time    0.9954: real time    0.9955


--------------------------------------------------------------------------------------------------------


     LOOP+:  cpu time 1726.1170: real time 1726.8156
    4ORBIT:  cpu time    0.0000: real time    0.0000

 total amount of memory used by VASP MPI-rank0   221701. kBytes
=======================================================================

   base      :      30000. kBytes
   nonl-proj :      10690. kBytes
   fftplans  :      66746. kBytes
   grid      :      26864. kBytes
   one-center:         24. kBytes
   wavefun   :      87377. kBytes
 
  
  
 General timing and accounting informations for this job:
 ========================================================
  
                  Total CPU time used (sec):     1750.154
                            User time (sec):     1748.866
                          System time (sec):        1.288
                         Elapsed time (sec):     1751.914
  
                   Maximum memory used (kb):      338816.
                   Average memory used (kb):           0.
  
                          Minor page faults:       129208
                          Major page faults:            0
                 Voluntary context switches:         1342
