<?xml version="1.0" encoding="ISO-8859-1"?>
<modeling>
 <generator>
  <i name="program" type="string">vasp </i>
  <i name="version" type="string">5.4.4.18Apr17-6-g9f103f2a35  </i>
  <i name="subversion" type="string">(build Nov 08 2017 09:05:29) complex            parallel </i>
  <i name="platform" type="string">Intel_17.33 </i>
  <i name="date" type="string">2020 07 18 </i>
  <i name="time" type="string">19:16:14 </i>
 </generator>
 <incar>
  <i type="string" name="SYSTEM">potpaw_PBE@./ARUN.APL1ZEROSTATE</i>
  <i type="string" name="PREC">accurate</i>
  <i type="string" name="ALGO">Normal</i>
  <i type="int" name="NSIM">     4</i>
  <i type="logical" name="ADDGRID"> T  </i>
  <i type="int" name="NELM">   120</i>
  <i type="int" name="NELMIN">     4</i>
  <i name="EDIFF">      0.00000001</i>
  <i type="int" name="NSW">     0</i>
  <i type="int" name="ISYM">     2</i>
  <i name="ENMAX">    500.00000000</i>
  <i type="logical" name="LREAL"> F  </i>
  <i type="logical" name="LPLANE"> T  </i>
  <i type="int" name="ISMEAR">     0</i>
  <i name="SIGMA">      0.01000000</i>
  <i type="logical" name="LWAVE"> F  </i>
  <i type="logical" name="LCHARG"> F  </i>
  <i type="logical" name="LELF"> F  </i>
  <i type="logical" name="LAECHG"> F  </i>
  <v type="int" name="KPOINT_BSE">    -1     0     0     0</v>
  <i type="int" name="NELM">   120</i>
 </incar>
 <structure name="primitive_cell" >
  <crystal>
   <varray name="basis" >
    <v>       0.00000000      10.93733369      10.93733369 </v>
    <v>      10.93733369       0.00000000      10.93733369 </v>
    <v>      10.93733369      10.93733369       0.00000000 </v>
   </varray>
   <i name="volume">   2616.76295363 </i>
   <varray name="rec_basis" >
    <v>      -0.04571498       0.04571498       0.04571498 </v>
    <v>       0.04571498      -0.04571498       0.04571498 </v>
    <v>       0.04571498       0.04571498      -0.04571498 </v>
   </varray>
  </crystal>
  <varray name="positions" >
   <v>      -0.01208044      -0.00569466       0.00347061 </v>
   <v>      -0.18902837       0.06026597       0.05674982 </v>
   <v>       0.06828507      -0.19407885       0.05012080 </v>
   <v>       0.05569713       0.06571840       0.05861084 </v>
   <v>       0.06247277       0.06357896      -0.19362191 </v>
   <v>      -0.25473452       0.00209322      -0.00383951 </v>
   <v>      -0.25581227       0.23724277       0.00694964 </v>
   <v>      -0.00745411       0.00731705      -0.25143789 </v>
   <v>       0.23977518      -0.25166697       0.01248390 </v>
   <v>      -0.26072930       0.01054248       0.25544748 </v>
   <v>      -0.00402374      -0.25124347       0.25917242 </v>
   <v>      -0.01034867      -0.26333662       0.01384908 </v>
   <v>       0.00647592       0.24347704      -0.25723694 </v>
   <v>       0.25238568      -0.00080284      -0.24265390 </v>
   <v>      -0.00440912       0.00698420       0.25048327 </v>
   <v>       0.00225869       0.24444357       0.01161368 </v>
   <v>       0.24590983       0.00689883       0.00060984 </v>
   <v>      -0.19296598      -0.17550297       0.05009299 </v>
   <v>       0.06018300      -0.17626653      -0.19360053 </v>
   <v>      -0.18428731      -0.18517183       0.31977663 </v>
   <v>      -0.19225809       0.07534469      -0.19259682 </v>
   <v>      -0.19139237       0.06494947       0.30904387 </v>
   <v>      -0.18419076       0.30559618       0.06268151 </v>
   <v>       0.05908934      -0.18295346       0.31003077 </v>
   <v>      -0.19207027       0.32092215      -0.18605685 </v>
   <v>       0.30772716      -0.18595678       0.06496548 </v>
   <v>       0.31358074      -0.18424096      -0.19350438 </v>
   <v>       0.31149952       0.06939320      -0.18989544 </v>
   <v>       0.07280042       0.31341006      -0.19315850 </v>
   <v>      -0.24663867       0.25085008      -0.24616685 </v>
   <v>      -0.23523783       0.24422366       0.24073105 </v>
   <v>      -0.25940339      -0.24894073       0.26160632 </v>
   <v>       0.24956131      -0.25561212      -0.24803991 </v>
   <v>       0.24893718      -0.25777642       0.26188875 </v>
   <v>      -0.44007794       0.07153202       0.06236380 </v>
   <v>      -0.42502045       0.31831986       0.04431940 </v>
   <v>       0.05365760      -0.43000711       0.30915983 </v>
   <v>      -0.43948370       0.06569002       0.31043850 </v>
   <v>       0.06017515      -0.43788524       0.05703128 </v>
   <v>       0.27046895       0.25242485      -0.26236566 </v>
   <v>       0.31513536      -0.43316338       0.05876255 </v>
   <v>       0.06595430       0.06396696      -0.44112140 </v>
   <v>       0.31624655       0.07641506      -0.43059107 </v>
   <v>       0.30575519       0.06657220       0.05612791 </v>
   <v>       0.06378442       0.04855885       0.32084974 </v>
   <v>       0.06171413       0.32653399      -0.43802215 </v>
   <v>       0.06102136       0.32529373       0.05600611 </v>
   <v>      -0.24906711       0.00410817      -0.24655808 </v>
   <v>      -0.25588859      -0.24276232       0.00107371 </v>
   <v>      -0.49821477       0.00256819       0.24868981 </v>
   <v>       0.00633243      -0.25018413      -0.25352298 </v>
   <v>       0.49476255       0.25800343       0.00204560 </v>
   <v>       0.49556569       0.25317015       0.24216166 </v>
   <v>       0.00723554       0.49340070       0.24386490 </v>
   <v>      -0.25487755      -0.24414671      -0.49517314 </v>
   <v>       0.24885828      -0.49645676       0.25471947 </v>
   <v>      -0.00242354       0.24601218      -0.49855022 </v>
   <v>      -0.25263409       0.00089101      -0.49930015 </v>
   <v>       0.49165366      -0.24589316      -0.24723824 </v>
   <v>       0.26215173       0.49481137       0.00439112 </v>
   <v>       0.01507365      -0.24370753       0.49415098 </v>
   <v>       0.24384770      -0.00811885      -0.49736088 </v>
   <v>       0.00542117       0.49108887      -0.24927785 </v>
   <v>      -0.25643216      -0.49812704      -0.25140126 </v>
   <v>       0.24558005       0.00218791       0.24610735 </v>
   <v>      -0.25823288       0.49910632       0.00591516 </v>
   <v>       0.49169802      -0.25090880       0.01155597 </v>
   <v>       0.01075884       0.24802724       0.24486675 </v>
   <v>       0.25461466       0.23916984       0.00247770 </v>
   <v>      -0.18282464      -0.43392562       0.31367988 </v>
   <v>       0.49379658       0.01407984      -0.25448946 </v>
   <v>      -0.43913582      -0.18227917       0.30879569 </v>
   <v>      -0.42222142       0.31654664       0.29457385 </v>
   <v>       0.25085772       0.26138524       0.49368252 </v>
   <v>      -0.17932242       0.30840362      -0.43663933 </v>
   <v>      -0.18483100      -0.18856623      -0.19611637 </v>
   <v>       0.31339855      -0.43627356      -0.18406553 </v>
   <v>      -0.44476059       0.31357087      -0.18272907 </v>
   <v>       0.30954814      -0.18621755      -0.43586232 </v>
   <v>       0.30264363      -0.43818964       0.31860501 </v>
   <v>      -0.19221089       0.31637372       0.30746984 </v>
   <v>      -0.44581996      -0.18139259      -0.18324290 </v>
   <v>      -0.19052585      -0.43749550      -0.18614171 </v>
   <v>       0.31233233       0.30429166      -0.43611324 </v>
   <v>       0.30738691      -0.18344942       0.31828498 </v>
   <v>      -0.20070157      -0.19195991      -0.41829710 </v>
   <v>       0.31621172       0.30920599      -0.17784218 </v>
   <v>       0.49674915      -0.00209731       0.00993260 </v>
   <v>       0.01052961      -0.49914332      -0.00395655 </v>
   <v>      -0.49377192      -0.00047569      -0.49465932 </v>
   <v>       0.00651643       0.49973506       0.49603695 </v>
   <v>      -0.18954873      -0.41852451       0.05946643 </v>
   <v>       0.00884868      -0.00297997       0.49673068 </v>
   <v>      -0.49880094      -0.49098925       0.00655798 </v>
   <v>      -0.19173432      -0.41997371      -0.44517501 </v>
   <v>      -0.42889307       0.06163019      -0.44433570 </v>
   <v>      -0.44259117      -0.19649412       0.07965117 </v>
   <v>       0.06683741      -0.17992625      -0.44403259 </v>
   <v>      -0.19170178       0.06455170      -0.43634170 </v>
   <v>      -0.45109580       0.06642055      -0.17847945 </v>
   <v>      -0.44353231      -0.19720343      -0.43686977 </v>
   <v>      -0.43735261      -0.43871237       0.06430069 </v>
   <v>       0.08140789      -0.44284121      -0.20765308 </v>
   <v>       0.05174032      -0.43708743      -0.42846914 </v>
   <v>      -0.43029589      -0.42315733      -0.19707776 </v>
   <v>      -0.24182915      -0.49619741      -0.49502854 </v>
   <v>      -0.24393645       0.49620021       0.24907613 </v>
   <v>       0.49959565      -0.25134250       0.49292728 </v>
   <v>      -0.24571919       0.26641423       0.49737352 </v>
   <v>       0.49105119      -0.24614133       0.25478949 </v>
   <v>       0.49769318       0.25527989      -0.25183821 </v>
   <v>       0.49722952       0.25355361       0.49181130 </v>
   <v>       0.49499228       0.49868750      -0.25170835 </v>
   <v>       0.26515667       0.49412055      -0.25330861 </v>
   <v>       0.49621252       0.49898429       0.25138878 </v>
   <v>       0.24750396      -0.26154438      -0.49980599 </v>
   <v>       0.30420781       0.33459915       0.30974053 </v>
   <v>       0.29800968       0.32024086       0.07030401 </v>
   <v>       0.25869666       0.49841011      -0.49551095 </v>
   <v>       0.29708970       0.06593306       0.31701413 </v>
   <v>       0.05368897       0.30882344       0.31788769 </v>
   <v>       0.24858425       0.23475105       0.26796940 </v>
   <v>      -0.25862721      -0.25109567      -0.24728703 </v>
   <v>      -0.43644566      -0.42976621       0.31762913 </v>
   <v>      -0.44543646      -0.42895600      -0.44527035 </v>
   <v>       0.31728999      -0.43408084      -0.43180219 </v>
   <v>      -0.43364086       0.31284930      -0.45212218 </v>
   <v>      -0.49904674      -0.49465487       0.48778041 </v>
  </varray>
 </structure>
 <varray name="primitive_index" >
  <v type="int" >        1 </v>
  <v type="int" >       68 </v>
  <v type="int" >       77 </v>
  <v type="int" >       65 </v>
  <v type="int" >      113 </v>
  <v type="int" >        4 </v>
  <v type="int" >        8 </v>
  <v type="int" >       49 </v>
  <v type="int" >       14 </v>
  <v type="int" >       20 </v>
  <v type="int" >       29 </v>
  <v type="int" >       13 </v>
  <v type="int" >       53 </v>
  <v type="int" >       50 </v>
  <v type="int" >       17 </v>
  <v type="int" >        5 </v>
  <v type="int" >        2 </v>
  <v type="int" >       80 </v>
  <v type="int" >      125 </v>
  <v type="int" >       96 </v>
  <v type="int" >      116 </v>
  <v type="int" >       84 </v>
  <v type="int" >       72 </v>
  <v type="int" >       93 </v>
  <v type="int" >      120 </v>
  <v type="int" >       78 </v>
  <v type="int" >      126 </v>
  <v type="int" >      114 </v>
  <v type="int" >      117 </v>
  <v type="int" >       56 </v>
  <v type="int" >       24 </v>
  <v type="int" >       32 </v>
  <v type="int" >       62 </v>
  <v type="int" >       30 </v>
  <v type="int" >       67 </v>
  <v type="int" >       71 </v>
  <v type="int" >       89 </v>
  <v type="int" >       83 </v>
  <v type="int" >       73 </v>
  <v type="int" >       54 </v>
  <v type="int" >       74 </v>
  <v type="int" >       97 </v>
  <v type="int" >       98 </v>
  <v type="int" >       66 </v>
  <v type="int" >       81 </v>
  <v type="int" >      101 </v>
  <v type="int" >       69 </v>
  <v type="int" >       52 </v>
  <v type="int" >       16 </v>
  <v type="int" >       19 </v>
  <v type="int" >       61 </v>
  <v type="int" >        7 </v>
  <v type="int" >       23 </v>
  <v type="int" >       25 </v>
  <v type="int" >       48 </v>
  <v type="int" >       26 </v>
  <v type="int" >       37 </v>
  <v type="int" >       36 </v>
  <v type="int" >       63 </v>
  <v type="int" >       10 </v>
  <v type="int" >       45 </v>
  <v type="int" >       34 </v>
  <v type="int" >       57 </v>
  <v type="int" >       60 </v>
  <v type="int" >       18 </v>
  <v type="int" >       12 </v>
  <v type="int" >       15 </v>
  <v type="int" >       21 </v>
  <v type="int" >        6 </v>
  <v type="int" >       92 </v>
  <v type="int" >       51 </v>
  <v type="int" >       95 </v>
  <v type="int" >       87 </v>
  <v type="int" >       38 </v>
  <v type="int" >      104 </v>
  <v type="int" >      128 </v>
  <v type="int" >      122 </v>
  <v type="int" >      119 </v>
  <v type="int" >      110 </v>
  <v type="int" >       90 </v>
  <v type="int" >       88 </v>
  <v type="int" >      127 </v>
  <v type="int" >      124 </v>
  <v type="int" >      102 </v>
  <v type="int" >       94 </v>
  <v type="int" >      112 </v>
  <v type="int" >      118 </v>
  <v type="int" >        3 </v>
  <v type="int" >        9 </v>
  <v type="int" >       35 </v>
  <v type="int" >       41 </v>
  <v type="int" >       76 </v>
  <v type="int" >       33 </v>
  <v type="int" >       11 </v>
  <v type="int" >      108 </v>
  <v type="int" >       99 </v>
  <v type="int" >       79 </v>
  <v type="int" >      109 </v>
  <v type="int" >      100 </v>
  <v type="int" >      115 </v>
  <v type="int" >      111 </v>
  <v type="int" >       75 </v>
  <v type="int" >      121 </v>
  <v type="int" >      105 </v>
  <v type="int" >      123 </v>
  <v type="int" >       44 </v>
  <v type="int" >       28 </v>
  <v type="int" >       47 </v>
  <v type="int" >       40 </v>
  <v type="int" >       31 </v>
  <v type="int" >       55 </v>
  <v type="int" >       39 </v>
  <v type="int" >       59 </v>
  <v type="int" >       58 </v>
  <v type="int" >       27 </v>
  <v type="int" >       46 </v>
  <v type="int" >       86 </v>
  <v type="int" >       70 </v>
  <v type="int" >       42 </v>
  <v type="int" >       82 </v>
  <v type="int" >       85 </v>
  <v type="int" >       22 </v>
  <v type="int" >       64 </v>
  <v type="int" >       91 </v>
  <v type="int" >      107 </v>
  <v type="int" >      106 </v>
  <v type="int" >      103 </v>
  <v type="int" >       43 </v>
 </varray>
 <kpoints>
  <generation param="Gamma">
   <v type="int" name="divisions">       2        2        2 </v>
   <v name="usershift">      0.00000000       0.00000000       0.00000000 </v>
   <v name="genvec1">      0.50000000       0.00000000       0.00000000 </v>
   <v name="genvec2">      0.00000000       0.50000000       0.00000000 </v>
   <v name="genvec3">      0.00000000       0.00000000       0.50000000 </v>
   <v name="shift">      0.00000000       0.00000000       0.00000000 </v>
  </generation>
  <varray name="kpointlist" >
   <v>       0.00000000       0.00000000       0.00000000 </v>
   <v>       0.50000000       0.00000000       0.00000000 </v>
   <v>       0.00000000       0.50000000       0.00000000 </v>
   <v>       0.50000000       0.50000000       0.00000000 </v>
   <v>       0.00000000       0.00000000       0.50000000 </v>
   <v>       0.50000000       0.00000000       0.50000000 </v>
   <v>       0.00000000       0.50000000       0.50000000 </v>
   <v>       0.50000000       0.50000000       0.50000000 </v>
  </varray>
  <varray name="weights" >
   <v>       0.12500000 </v>
   <v>       0.12500000 </v>
   <v>       0.12500000 </v>
   <v>       0.12500000 </v>
   <v>       0.12500000 </v>
   <v>       0.12500000 </v>
   <v>       0.12500000 </v>
   <v>       0.12500000 </v>
  </varray>
 </kpoints>
 <parameters>
  <separator name="general" >
   <i type="string" name="SYSTEM">potpaw_PBE@./ARUN.APL1ZEROSTATE</i>
   <i type="logical" name="LCOMPAT"> F  </i>
  </separator>
  <separator name="electronic" >
   <i type="string" name="PREC">accura</i>
   <i name="ENMAX">    500.00000000</i>
   <i name="ENAUG">    322.06900000</i>
   <i name="EDIFF">      0.00000001</i>
   <i type="int" name="IALGO">    38</i>
   <i type="int" name="IWAVPR">    10</i>
   <i type="int" name="NBANDS">   322</i>
   <i name="NELECT">    512.00000000</i>
   <i type="int" name="TURBO">     0</i>
   <i type="int" name="IRESTART">     0</i>
   <i type="int" name="NREBOOT">     0</i>
   <i type="int" name="NMIN">     0</i>
   <i name="EREF">      0.00000000</i>
   <separator name="electronic smearing" >
    <i type="int" name="ISMEAR">     0</i>
    <i name="SIGMA">      0.01000000</i>
    <i name="KSPACING">      0.50000000</i>
    <i type="logical" name="KGAMMA"> T  </i>
   </separator>
   <separator name="electronic projectors" >
    <i type="logical" name="LREAL"> F  </i>
    <v name="ROPT">      0.00000000</v>
    <i type="int" name="LMAXPAW">  -100</i>
    <i type="int" name="LMAXMIX">     2</i>
    <i type="logical" name="NLSPLINE"> F  </i>
   </separator>
   <separator name="electronic startup" >
    <i type="int" name="ISTART">     0</i>
    <i type="int" name="ICHARG">     2</i>
    <i type="int" name="INIWAV">     1</i>
   </separator>
   <separator name="electronic spin" >
    <i type="int" name="ISPIN">     1</i>
    <i type="logical" name="LNONCOLLINEAR"> F  </i>
    <v name="MAGMOM">      1.00000000      1.00000000      1.00000000      1.00000000      1.00000000      1.00000000      1.00000000      1.00000000      1.00000000      1.00000000      1.00000000      1.00000000      1.00000000      1.00000000      1.00000000      1.00000000      1.00000000      1.00000000      1.00000000      1.00000000
      1.00000000      1.00000000      1.00000000      1.00000000      1.00000000      1.00000000      1.00000000      1.00000000      1.00000000      1.00000000      1.00000000      1.00000000      1.00000000      1.00000000      1.00000000      1.00000000      1.00000000      1.00000000      1.00000000      1.00000000
      1.00000000      1.00000000      1.00000000      1.00000000      1.00000000      1.00000000      1.00000000      1.00000000      1.00000000      1.00000000      1.00000000      1.00000000      1.00000000      1.00000000      1.00000000      1.00000000      1.00000000      1.00000000      1.00000000      1.00000000
      1.00000000      1.00000000      1.00000000      1.00000000      1.00000000      1.00000000      1.00000000      1.00000000      1.00000000      1.00000000      1.00000000      1.00000000      1.00000000      1.00000000      1.00000000      1.00000000      1.00000000      1.00000000      1.00000000      1.00000000
      1.00000000      1.00000000      1.00000000      1.00000000      1.00000000      1.00000000      1.00000000      1.00000000      1.00000000      1.00000000      1.00000000      1.00000000      1.00000000      1.00000000      1.00000000      1.00000000      1.00000000      1.00000000      1.00000000      1.00000000
      1.00000000      1.00000000      1.00000000      1.00000000      1.00000000      1.00000000      1.00000000      1.00000000      1.00000000      1.00000000      1.00000000      1.00000000      1.00000000      1.00000000      1.00000000      1.00000000      1.00000000      1.00000000      1.00000000      1.00000000
      1.00000000      1.00000000      1.00000000      1.00000000      1.00000000      1.00000000      1.00000000      1.00000000</v>
    <i name="NUPDOWN">     -1.00000000</i>
    <i type="logical" name="LSORBIT"> F  </i>
    <v name="SAXIS">      0.00000000      0.00000000      1.00000000</v>
    <i type="logical" name="LSPIRAL"> F  </i>
    <v name="QSPIRAL">      0.00000000      0.00000000      0.00000000</v>
    <i type="logical" name="LZEROZ"> F  </i>
   </separator>
   <separator name="electronic exchange-correlation" >
    <i type="logical" name="LASPH"> F  </i>
    <i type="logical" name="LMETAGGA"> F  </i>
   </separator>
   <separator name="electronic convergence" >
    <i type="int" name="NELM">   120</i>
    <i type="int" name="NELMDL">    -5</i>
    <i type="int" name="NELMIN">     4</i>
    <i name="ENINI">    500.00000000</i>
    <separator name="electronic convergence detail" >
     <i type="logical" name="LDIAG"> T  </i>
     <i type="logical" name="LSUBROT"> F  </i>
     <i name="WEIMIN">      0.00000000</i>
     <i name="EBREAK">      0.00000000</i>
     <i name="DEPER">      0.30000000</i>
     <i type="int" name="NRMM">     4</i>
     <i name="TIME">      0.40000000</i>
    </separator>
   </separator>
   <separator name="electronic mixer" >
    <i name="AMIX">      0.40000000</i>
    <i name="BMIX">      1.00000000</i>
    <i name="AMIN">      0.10000000</i>
    <i name="AMIX_MAG">      1.60000000</i>
    <i name="BMIX_MAG">      1.00000000</i>
    <separator name="electronic mixer details" >
     <i type="int" name="IMIX">     4</i>
     <i type="logical" name="MIXFIRST"> F  </i>
     <i type="int" name="MAXMIX">   -45</i>
     <i name="WC">    100.00000000</i>
     <i type="int" name="INIMIX">     1</i>
     <i type="int" name="MIXPRE">     1</i>
     <i type="int" name="MREMOVE">     5</i>
    </separator>
   </separator>
   <separator name="electronic dipolcorrection" >
    <i type="logical" name="LDIPOL"> F  </i>
    <i type="logical" name="LMONO"> F  </i>
    <i type="int" name="IDIPOL">     0</i>
    <i name="EPSILON">      1.00000000</i>
    <v name="DIPOL">   -100.00000000   -100.00000000   -100.00000000</v>
    <i name="EFIELD">      0.00000000</i>
   </separator>
  </separator>
  <separator name="grids" >
   <i type="int" name="NGX">   120</i>
   <i type="int" name="NGY">   120</i>
   <i type="int" name="NGZ">   120</i>
   <i type="int" name="NGXF">   240</i>
   <i type="int" name="NGYF">   240</i>
   <i type="int" name="NGZF">   240</i>
   <i type="logical" name="ADDGRID"> T  </i>
  </separator>
  <separator name="ionic" >
   <i type="int" name="NSW">     0</i>
   <i type="int" name="IBRION">    -1</i>
   <i type="int" name="MDALGO">     0</i>
   <i type="int" name="ISIF">     2</i>
   <i name="PSTRESS">      0.00000000</i>
   <i name="EDIFFG">      0.00000010</i>
   <i type="int" name="NFREE">     0</i>
   <i name="POTIM">      0.50000000</i>
   <i name="SMASS">     -3.00000000</i>
   <i name="SCALEE">      1.00000000</i>
  </separator>
  <separator name="ionic md" >
   <i name="TEBEG">      0.00010000</i>
   <i name="TEEND">      0.00010000</i>
   <i type="int" name="NBLOCK">     1</i>
   <i type="int" name="KBLOCK">     1</i>
   <i type="int" name="NPACO">   256</i>
   <i name="APACO">     16.00000000</i>
  </separator>
  <separator name="symmetry" >
   <i type="int" name="ISYM">     2</i>
   <i name="SYMPREC">      0.00001000</i>
  </separator>
  <separator name="dos" >
   <i type="int" name="LORBIT">     0</i>
   <v name="RWIGS">     -1.00000000</v>
   <i type="int" name="NEDOS">   301</i>
   <i name="EMIN">     10.00000000</i>
   <i name="EMAX">    -10.00000000</i>
   <i name="EFERMI">      0.00000000</i>
  </separator>
  <separator name="writing" >
   <i type="int" name="NWRITE">     2</i>
   <i type="logical" name="LWAVE"> F  </i>
   <i type="logical" name="LDOWNSAMPLE"> F  </i>
   <i type="logical" name="LCHARG"> F  </i>
   <i type="logical" name="LPARD"> F  </i>
   <i type="logical" name="LVTOT"> F  </i>
   <i type="logical" name="LVHAR"> F  </i>
   <i type="logical" name="LELF"> F  </i>
   <i type="logical" name="LOPTICS"> F  </i>
   <v name="STM">      0.00000000      0.00000000      0.00000000      0.00000000      0.00000000      0.00000000      0.00000000</v>
  </separator>
  <separator name="performance" >
   <i type="int" name="NPAR">     2</i>
   <i type="int" name="NSIM">     4</i>
   <i type="int" name="NBLK">    -1</i>
   <i type="logical" name="LPLANE"> T  </i>
   <i type="logical" name="LSCALAPACK"> T  </i>
   <i type="logical" name="LSCAAWARE"> F  </i>
   <i type="logical" name="LSCALU"> F  </i>
   <i type="logical" name="LASYNC"> F  </i>
   <i type="logical" name="LORBITALREAL"> F  </i>
  </separator>
  <separator name="miscellaneous" >
   <i type="int" name="IDIOT">     3</i>
   <i type="int" name="ISPECIAL">     0</i>
   <i type="logical" name="LMUSIC"> F  </i>
   <v name="POMASS">     28.08500000</v>
   <v name="DARWINR">      0.00000000</v>
   <v name="DARWINV">      1.00000000</v>
   <i type="logical" name="LCORR"> T  </i>
  </separator>
  <i type="logical" name="GGA_COMPAT"> T  </i>
  <i type="logical" name="LBERRY"> F  </i>
  <i type="int" name="ICORELEVEL">     0</i>
  <i type="logical" name="LDAU"> F  </i>
  <i type="int" name="I_CONSTRAINED_M">     0</i>
  <separator name="electronic exchange-correlation" >
   <i type="string" name="GGA">--</i>
   <i type="int" name="VOSKOWN">     0</i>
   <i type="logical" name="LHFCALC"> F  </i>
   <i type="string" name="PRECFOCK"></i>
   <i type="logical" name="LSYMGRAD"> F  </i>
   <i type="logical" name="LHFONE"> F  </i>
   <i type="logical" name="LRHFCALC"> F  </i>
   <i type="logical" name="LTHOMAS"> F  </i>
   <i type="logical" name="LMODELHF"> F  </i>
   <i name="ENCUT4O">     -1.00000000</i>
   <i type="int" name="EXXOEP">     0</i>
   <i type="int" name="FOURORBIT">     0</i>
   <i name="AEXX">      0.00000000</i>
   <i name="HFALPHA">      0.00000000</i>
   <i name="MCALPHA">      0.00000000</i>
   <i name="ALDAX">      1.00000000</i>
   <i name="AGGAX">      1.00000000</i>
   <i name="ALDAC">      1.00000000</i>
   <i name="AGGAC">      1.00000000</i>
   <i type="int" name="NKREDX">     1</i>
   <i type="int" name="NKREDY">     1</i>
   <i type="int" name="NKREDZ">     1</i>
   <i type="logical" name="SHIFTRED"> F  </i>
   <i type="logical" name="ODDONLY"> F  </i>
   <i type="logical" name="EVENONLY"> F  </i>
   <i type="int" name="LMAXFOCK">     0</i>
   <i type="int" name="NMAXFOCKAE">     0</i>
   <i type="logical" name="LFOCKAEDFT"> F  </i>
   <i name="HFSCREEN">      0.00000000</i>
   <i name="HFSCREENC">      0.00000000</i>
   <i type="int" name="NBANDSGWLOW">     0</i>
  </separator>
  <separator name="vdW DFT" >
   <i type="logical" name="LUSE_VDW"> F  </i>
   <i name="Zab_VDW">     -0.84910000</i>
   <i name="PARAM1">      0.12340000</i>
   <i name="PARAM2">      1.00000000</i>
   <i name="PARAM3">      0.00000000</i>
  </separator>
  <separator name="model GW" >
   <i type="int" name="MODEL_GW">     0</i>
   <i name="MODEL_EPS0">     12.26607635</i>
   <i name="MODEL_ALPHA">      1.00000000</i>
  </separator>
  <separator name="linear response parameters" >
   <i type="logical" name="LEPSILON"> F  </i>
   <i type="logical" name="LRPA"> F  </i>
   <i type="logical" name="LNABLA"> F  </i>
   <i type="logical" name="LVEL"> F  </i>
   <i type="int" name="KINTER">     0</i>
   <i name="CSHIFT">      0.10000000</i>
   <i name="OMEGAMAX">     -1.00000000</i>
   <i name="DEG_THRESHOLD">      0.00200000</i>
   <i name="RTIME">     -0.10000000</i>
   <i name="WPLASMAI">      0.00000000</i>
   <v name="DFIELD">      0.00000000      0.00000000      0.00000000</v>
   <v name="WPLASMA">      0.00000000      0.00000000      0.00000000      0.00000000      0.00000000      0.00000000      0.00000000      0.00000000      0.00000000</v>
  </separator>
  <separator name="orbital magnetization" >
   <i type="logical" name="NUCIND"> F  </i>
   <v name="MAGPOS">      0.00000000      0.00000000      0.00000000</v>
   <i type="logical" name="LNICSALL"> T  </i>
   <i type="logical" name="ORBITALMAG"> F  </i>
   <i type="logical" name="LMAGBLOCH"> F  </i>
   <i type="logical" name="LCHIMAG"> F  </i>
   <i type="logical" name="LGAUGE"> T  </i>
   <i type="int" name="MAGATOM">     0</i>
   <v name="MAGDIPOL">      0.00000000      0.00000000      0.00000000</v>
   <v name="AVECCONST">      0.00000000      0.00000000      0.00000000</v>
  </separator>
  <separator name="response functions" >
   <i type="logical" name="LADDER"> F  </i>
   <i type="logical" name="LRPAFORCE"> F  </i>
   <i type="logical" name="LFXC"> F  </i>
   <i type="logical" name="LHARTREE"> T  </i>
   <i type="int" name="IBSE">     0</i>
   <v type="int" name="KPOINT">    -1     0     0     0</v>
   <i type="logical" name="LTCTE"> F  </i>
   <i type="logical" name="LTETE"> F  </i>
   <i type="logical" name="LTRIPLET"> F  </i>
   <i type="logical" name="LFXCEPS"> F  </i>
   <i type="logical" name="LFXHEG"> F  </i>
   <i type="int" name="NATURALO">     2</i>
   <i type="logical" name="L2ORDER"> F  </i>
   <i type="logical" name="LMP2LT"> F  </i>
   <i type="logical" name="LUSEW"> F  </i>
   <i name="ENCUTGW">     -2.00000000</i>
   <i name="ENCUTGWSOFT">     -2.00000000</i>
   <i name="ENCUTLF">     -1.00000000</i>
   <i type="int" name="LMAXMP2">    -1</i>
   <i name="SCISSOR">      0.00000000</i>
   <i type="int" name="NOMEGA">     0</i>
   <i type="int" name="NOMEGAR">     0</i>
   <i type="int" name="NBANDSGW">    -1</i>
   <i type="int" name="NBANDSO">    -1</i>
   <i type="int" name="NBANDSV">    -1</i>
   <i type="int" name="NELM">   120</i>
   <i type="int" name="NELMHF">     1</i>
   <i type="int" name="DIM">     3</i>
   <i type="int" name="ANTIRES">     0</i>
   <i name="OMEGAMAX">    -30.00000000</i>
   <i name="OMEGAMIN">    -30.00000000</i>
   <i name="OMEGATL">   -200.00000000</i>
   <i type="int" name="OMEGAGRID">   140</i>
   <i name="CSHIFT">     -0.10000000</i>
   <i type="logical" name="SELFENERGY"> F  </i>
   <i type="logical" name="LSPECTRAL"> F  </i>
   <i type="logical" name="LSPECTRALGW"> F  </i>
   <i type="logical" name="LSINGLES"> F  </i>
   <i type="logical" name="LFERMIGW"> F  </i>
   <i type="logical" name="ODDONLYGW"> F  </i>
   <i type="logical" name="EVENONLYGW"> F  </i>
   <i type="int" name="NKREDLFX">     1</i>
   <i type="int" name="NKREDLFY">     1</i>
   <i type="int" name="NKREDLFZ">     1</i>
   <i type="int" name="MAXMEM">  2800</i>
   <i type="int" name="TELESCOPE">     0</i>
   <i type="int" name="TAUPAR">     1</i>
   <i type="int" name="OMEGAPAR">    -1</i>
   <i name="LAMBDA">      1.00000000</i>
  </separator>
  <separator name="External order field" >
   <i name="OFIELD_KAPPA">      0.00000000</i>
   <v name="OFIELD_K">      0.00000000      0.00000000      0.00000000</v>
   <i name="OFIELD_Q6_NEAR">      0.00000000</i>
   <i name="OFIELD_Q6_FAR">      0.00000000</i>
   <i name="OFIELD_A">      0.00000000</i>
  </separator>
 </parameters>
 <atominfo>
  <atoms>     128 </atoms>
  <types>       1 </types>
  <array name="atoms" >
   <dimension dim="1">ion</dimension>
   <field type="string">element</field>
   <field type="int">atomtype</field>
   <set>
    <rc><c>Si</c><c>   1</c></rc>
    <rc><c>Si</c><c>   1</c></rc>
    <rc><c>Si</c><c>   1</c></rc>
    <rc><c>Si</c><c>   1</c></rc>
    <rc><c>Si</c><c>   1</c></rc>
    <rc><c>Si</c><c>   1</c></rc>
    <rc><c>Si</c><c>   1</c></rc>
    <rc><c>Si</c><c>   1</c></rc>
    <rc><c>Si</c><c>   1</c></rc>
    <rc><c>Si</c><c>   1</c></rc>
    <rc><c>Si</c><c>   1</c></rc>
    <rc><c>Si</c><c>   1</c></rc>
    <rc><c>Si</c><c>   1</c></rc>
    <rc><c>Si</c><c>   1</c></rc>
    <rc><c>Si</c><c>   1</c></rc>
    <rc><c>Si</c><c>   1</c></rc>
    <rc><c>Si</c><c>   1</c></rc>
    <rc><c>Si</c><c>   1</c></rc>
    <rc><c>Si</c><c>   1</c></rc>
    <rc><c>Si</c><c>   1</c></rc>
    <rc><c>Si</c><c>   1</c></rc>
    <rc><c>Si</c><c>   1</c></rc>
    <rc><c>Si</c><c>   1</c></rc>
    <rc><c>Si</c><c>   1</c></rc>
    <rc><c>Si</c><c>   1</c></rc>
    <rc><c>Si</c><c>   1</c></rc>
    <rc><c>Si</c><c>   1</c></rc>
    <rc><c>Si</c><c>   1</c></rc>
    <rc><c>Si</c><c>   1</c></rc>
    <rc><c>Si</c><c>   1</c></rc>
    <rc><c>Si</c><c>   1</c></rc>
    <rc><c>Si</c><c>   1</c></rc>
    <rc><c>Si</c><c>   1</c></rc>
    <rc><c>Si</c><c>   1</c></rc>
    <rc><c>Si</c><c>   1</c></rc>
    <rc><c>Si</c><c>   1</c></rc>
    <rc><c>Si</c><c>   1</c></rc>
    <rc><c>Si</c><c>   1</c></rc>
    <rc><c>Si</c><c>   1</c></rc>
    <rc><c>Si</c><c>   1</c></rc>
    <rc><c>Si</c><c>   1</c></rc>
    <rc><c>Si</c><c>   1</c></rc>
    <rc><c>Si</c><c>   1</c></rc>
    <rc><c>Si</c><c>   1</c></rc>
    <rc><c>Si</c><c>   1</c></rc>
    <rc><c>Si</c><c>   1</c></rc>
    <rc><c>Si</c><c>   1</c></rc>
    <rc><c>Si</c><c>   1</c></rc>
    <rc><c>Si</c><c>   1</c></rc>
    <rc><c>Si</c><c>   1</c></rc>
    <rc><c>Si</c><c>   1</c></rc>
    <rc><c>Si</c><c>   1</c></rc>
    <rc><c>Si</c><c>   1</c></rc>
    <rc><c>Si</c><c>   1</c></rc>
    <rc><c>Si</c><c>   1</c></rc>
    <rc><c>Si</c><c>   1</c></rc>
    <rc><c>Si</c><c>   1</c></rc>
    <rc><c>Si</c><c>   1</c></rc>
    <rc><c>Si</c><c>   1</c></rc>
    <rc><c>Si</c><c>   1</c></rc>
    <rc><c>Si</c><c>   1</c></rc>
    <rc><c>Si</c><c>   1</c></rc>
    <rc><c>Si</c><c>   1</c></rc>
    <rc><c>Si</c><c>   1</c></rc>
    <rc><c>Si</c><c>   1</c></rc>
    <rc><c>Si</c><c>   1</c></rc>
    <rc><c>Si</c><c>   1</c></rc>
    <rc><c>Si</c><c>   1</c></rc>
    <rc><c>Si</c><c>   1</c></rc>
    <rc><c>Si</c><c>   1</c></rc>
    <rc><c>Si</c><c>   1</c></rc>
    <rc><c>Si</c><c>   1</c></rc>
    <rc><c>Si</c><c>   1</c></rc>
    <rc><c>Si</c><c>   1</c></rc>
    <rc><c>Si</c><c>   1</c></rc>
    <rc><c>Si</c><c>   1</c></rc>
    <rc><c>Si</c><c>   1</c></rc>
    <rc><c>Si</c><c>   1</c></rc>
    <rc><c>Si</c><c>   1</c></rc>
    <rc><c>Si</c><c>   1</c></rc>
    <rc><c>Si</c><c>   1</c></rc>
    <rc><c>Si</c><c>   1</c></rc>
    <rc><c>Si</c><c>   1</c></rc>
    <rc><c>Si</c><c>   1</c></rc>
    <rc><c>Si</c><c>   1</c></rc>
    <rc><c>Si</c><c>   1</c></rc>
    <rc><c>Si</c><c>   1</c></rc>
    <rc><c>Si</c><c>   1</c></rc>
    <rc><c>Si</c><c>   1</c></rc>
    <rc><c>Si</c><c>   1</c></rc>
    <rc><c>Si</c><c>   1</c></rc>
    <rc><c>Si</c><c>   1</c></rc>
    <rc><c>Si</c><c>   1</c></rc>
    <rc><c>Si</c><c>   1</c></rc>
    <rc><c>Si</c><c>   1</c></rc>
    <rc><c>Si</c><c>   1</c></rc>
    <rc><c>Si</c><c>   1</c></rc>
    <rc><c>Si</c><c>   1</c></rc>
    <rc><c>Si</c><c>   1</c></rc>
    <rc><c>Si</c><c>   1</c></rc>
    <rc><c>Si</c><c>   1</c></rc>
    <rc><c>Si</c><c>   1</c></rc>
    <rc><c>Si</c><c>   1</c></rc>
    <rc><c>Si</c><c>   1</c></rc>
    <rc><c>Si</c><c>   1</c></rc>
    <rc><c>Si</c><c>   1</c></rc>
    <rc><c>Si</c><c>   1</c></rc>
    <rc><c>Si</c><c>   1</c></rc>
    <rc><c>Si</c><c>   1</c></rc>
    <rc><c>Si</c><c>   1</c></rc>
    <rc><c>Si</c><c>   1</c></rc>
    <rc><c>Si</c><c>   1</c></rc>
    <rc><c>Si</c><c>   1</c></rc>
    <rc><c>Si</c><c>   1</c></rc>
    <rc><c>Si</c><c>   1</c></rc>
    <rc><c>Si</c><c>   1</c></rc>
    <rc><c>Si</c><c>   1</c></rc>
    <rc><c>Si</c><c>   1</c></rc>
    <rc><c>Si</c><c>   1</c></rc>
    <rc><c>Si</c><c>   1</c></rc>
    <rc><c>Si</c><c>   1</c></rc>
    <rc><c>Si</c><c>   1</c></rc>
    <rc><c>Si</c><c>   1</c></rc>
    <rc><c>Si</c><c>   1</c></rc>
    <rc><c>Si</c><c>   1</c></rc>
    <rc><c>Si</c><c>   1</c></rc>
    <rc><c>Si</c><c>   1</c></rc>
    <rc><c>Si</c><c>   1</c></rc>
   </set>
  </array>
  <array name="atomtypes" >
   <dimension dim="1">type</dimension>
   <field type="int">atomspertype</field>
   <field type="string">element</field>
   <field>mass</field>
   <field>valence</field>
   <field type="string">pseudopotential</field>
   <set>
    <rc><c> 128</c><c>Si</c><c>     28.08500000</c><c>      4.00000000</c><c> PAW_PBE Si 05Jan2001                   </c></rc>
   </set>
  </array>
 </atominfo>
 <structure name="initialpos" >
  <crystal>
   <varray name="basis" >
    <v>       0.00000000      10.93733369      10.93733369 </v>
    <v>      10.93733369       0.00000000      10.93733369 </v>
    <v>      10.93733369      10.93733369       0.00000000 </v>
   </varray>
   <i name="volume">   2616.76295363 </i>
   <varray name="rec_basis" >
    <v>      -0.04571498       0.04571498       0.04571498 </v>
    <v>       0.04571498      -0.04571498       0.04571498 </v>
    <v>       0.04571498       0.04571498      -0.04571498 </v>
   </varray>
  </crystal>
  <varray name="positions" >
   <v>       0.98791956       0.99430534       0.00347061 </v>
   <v>       0.24590983       0.00689883       0.00060984 </v>
   <v>       0.49674915       0.99790269       0.00993260 </v>
   <v>       0.74526548       0.00209322       0.99616049 </v>
   <v>       0.00225869       0.24444357       0.01161368 </v>
   <v>       0.25461466       0.23916984       0.00247770 </v>
   <v>       0.49476255       0.25800343       0.00204560 </v>
   <v>       0.74418773       0.23724277       0.00694964 </v>
   <v>       0.01052961       0.50085668       0.99604345 </v>
   <v>       0.26215173       0.49481137       0.00439112 </v>
   <v>       0.50119906       0.50901075       0.00655798 </v>
   <v>       0.74176712       0.49910632       0.00591516 </v>
   <v>       0.98965133       0.73666338       0.01384908 </v>
   <v>       0.23977518       0.74833303       0.01248390 </v>
   <v>       0.49169802       0.74909120       0.01155597 </v>
   <v>       0.74411141       0.75723768       0.00107371 </v>
   <v>       0.99559088       0.00698420       0.25048327 </v>
   <v>       0.24558005       0.00218791       0.24610735 </v>
   <v>       0.50178523       0.00256819       0.24868981 </v>
   <v>       0.73927070       0.01054248       0.25544748 </v>
   <v>       0.01075884       0.24802724       0.24486675 </v>
   <v>       0.24858425       0.23475105       0.26796940 </v>
   <v>       0.49556569       0.25317015       0.24216166 </v>
   <v>       0.76476217       0.24422366       0.24073105 </v>
   <v>       0.00723554       0.49340070       0.24386490 </v>
   <v>       0.24885828       0.50354324       0.25471947 </v>
   <v>       0.49621252       0.49898429       0.25138878 </v>
   <v>       0.75606355       0.49620021       0.24907613 </v>
   <v>       0.99597626       0.74875653       0.25917242 </v>
   <v>       0.24893718       0.74222358       0.26188875 </v>
   <v>       0.49105119       0.75385867       0.25478949 </v>
   <v>       0.74059661       0.75105927       0.26160632 </v>
   <v>       0.00884868       0.99702003       0.49673068 </v>
   <v>       0.24384770       0.99188115       0.50263912 </v>
   <v>       0.50622808       0.99952431       0.50534068 </v>
   <v>       0.74736591       0.00089101       0.50069985 </v>
   <v>       0.99757646       0.24601218       0.50144978 </v>
   <v>       0.25085772       0.26138524       0.49368252 </v>
   <v>       0.49722952       0.25355361       0.49181130 </v>
   <v>       0.75428081       0.26641423       0.49737352 </v>
   <v>       0.00651643       0.49973506       0.49603695 </v>
   <v>       0.25869666       0.49841011       0.50448905 </v>
   <v>       0.50095326       0.50534513       0.48778041 </v>
   <v>       0.75817085       0.50380259       0.50497146 </v>
   <v>       0.01507365       0.75629247       0.49415098 </v>
   <v>       0.24750396       0.73845562       0.50019401 </v>
   <v>       0.49959565       0.74865750       0.49292728 </v>
   <v>       0.74512245       0.75585329       0.50482686 </v>
   <v>       0.99254589       0.00731705       0.74856211 </v>
   <v>       0.25238568       0.99919716       0.75734610 </v>
   <v>       0.49379658       0.01407984       0.74551054 </v>
   <v>       0.75093289       0.00410817       0.75344192 </v>
   <v>       0.00647592       0.24347704       0.74276306 </v>
   <v>       0.27046895       0.25242485       0.73763434 </v>
   <v>       0.49769318       0.25527989       0.74816179 </v>
   <v>       0.75336133       0.25085008       0.75383315 </v>
   <v>       0.00542117       0.49108887       0.75072215 </v>
   <v>       0.26515667       0.49412055       0.74669139 </v>
   <v>       0.49499228       0.49868750       0.74829165 </v>
   <v>       0.74356784       0.50187296       0.74859874 </v>
   <v>       0.00633243       0.74981587       0.74647702 </v>
   <v>       0.24956131       0.74438788       0.75196009 </v>
   <v>       0.49165366       0.75410684       0.75276176 </v>
   <v>       0.74137279       0.74890433       0.75271297 </v>
   <v>       0.05569713       0.06571840       0.05861084 </v>
   <v>       0.30575519       0.06657220       0.05612791 </v>
   <v>       0.55992206       0.07153202       0.06236380 </v>
   <v>       0.81097163       0.06026597       0.05674982 </v>
   <v>       0.06102136       0.32529373       0.05600611 </v>
   <v>       0.29800968       0.32024086       0.07030401 </v>
   <v>       0.57497955       0.31831986       0.04431940 </v>
   <v>       0.81580924       0.30559618       0.06268151 </v>
   <v>       0.06017515       0.56211476       0.05703128 </v>
   <v>       0.31513536       0.56683662       0.05876255 </v>
   <v>       0.56264739       0.56128763       0.06430069 </v>
   <v>       0.81045127       0.58147549       0.05946643 </v>
   <v>       0.06828507       0.80592115       0.05012080 </v>
   <v>       0.30772716       0.81404322       0.06496548 </v>
   <v>       0.55740883       0.80350588       0.07965117 </v>
   <v>       0.80703402       0.82449703       0.05009299 </v>
   <v>       0.06378442       0.04855885       0.32084974 </v>
   <v>       0.29708970       0.06593306       0.31701413 </v>
   <v>       0.56051630       0.06569002       0.31043850 </v>
   <v>       0.80860763       0.06494947       0.30904387 </v>
   <v>       0.05368897       0.30882344       0.31788769 </v>
   <v>       0.30420781       0.33459915       0.30974053 </v>
   <v>       0.57777858       0.31654664       0.29457385 </v>
   <v>       0.80778911       0.31637372       0.30746984 </v>
   <v>       0.05365760       0.56999289       0.30915983 </v>
   <v>       0.30264363       0.56181036       0.31860501 </v>
   <v>       0.56355434       0.57023379       0.31762913 </v>
   <v>       0.81717536       0.56607438       0.31367988 </v>
   <v>       0.05908934       0.81704654       0.31003077 </v>
   <v>       0.30738691       0.81655058       0.31828498 </v>
   <v>       0.56086418       0.81772083       0.30879569 </v>
   <v>       0.81571269       0.81482817       0.31977663 </v>
   <v>       0.06595430       0.06396696       0.55887860 </v>
   <v>       0.31624655       0.07641506       0.56940893 </v>
   <v>       0.57110693       0.06163019       0.55566430 </v>
   <v>       0.80829822       0.06455170       0.56365830 </v>
   <v>       0.06171413       0.32653399       0.56197785 </v>
   <v>       0.31233233       0.30429166       0.56388676 </v>
   <v>       0.56635914       0.31284930       0.54787782 </v>
   <v>       0.82067758       0.30840362       0.56336067 </v>
   <v>       0.05174032       0.56291257       0.57153086 </v>
   <v>       0.31728999       0.56591916       0.56819781 </v>
   <v>       0.55456354       0.57104400       0.55472965 </v>
   <v>       0.80826568       0.58002629       0.55482499 </v>
   <v>       0.06683741       0.82007375       0.55596741 </v>
   <v>       0.30954814       0.81378245       0.56413768 </v>
   <v>       0.55646769       0.80279657       0.56313023 </v>
   <v>       0.79929843       0.80804009       0.58170290 </v>
   <v>       0.06247277       0.06357896       0.80637809 </v>
   <v>       0.31149952       0.06939320       0.81010456 </v>
   <v>       0.54890420       0.06642055       0.82152055 </v>
   <v>       0.80774191       0.07534469       0.80740318 </v>
   <v>       0.07280042       0.31341006       0.80684150 </v>
   <v>       0.31621172       0.30920599       0.82215782 </v>
   <v>       0.55523941       0.31357087       0.81727093 </v>
   <v>       0.80792973       0.32092215       0.81394315 </v>
   <v>       0.08140789       0.55715879       0.79234692 </v>
   <v>       0.31339855       0.56372644       0.81593447 </v>
   <v>       0.56970411       0.57684267       0.80292224 </v>
   <v>       0.80947415       0.56250450       0.81385829 </v>
   <v>       0.06018300       0.82373347       0.80639947 </v>
   <v>       0.31358074       0.81575904       0.80649562 </v>
   <v>       0.55418004       0.81860741       0.81675710 </v>
   <v>       0.81516900       0.81143377       0.80388363 </v>
  </varray>
 </structure>
 <calculation>
  <scstep>
   <time name="dav">   70.34   70.38</time>
   <time name="total">   71.35   71.39</time>
   <energy>
    <i name="alphaZ">    210.77028614 </i>
    <i name="ewald"> -14470.30669928 </i>
    <i name="hartreedc">   -756.49513761 </i>
    <i name="XCdc">  -1195.33648302 </i>
    <i name="pawpsdc">   4221.13331941 </i>
    <i name="pawaedc">  -1969.18571412 </i>
    <i name="eentropy">     -0.00258189 </i>
    <i name="bandstr">   2150.65830015 </i>
    <i name="atom">  13192.48085998 </i>
    <i name="e_fr_energy">   1383.71614977 </i>
    <i name="e_wo_entrp">   1383.71873166 </i>
    <i name="e_0_energy">   1383.71744071 </i>
   </energy>
  </scstep>
  <scstep>
   <time name="dav">   80.18   80.22</time>
   <time name="total">   80.19   80.23</time>
   <energy>
    <i name="e_fr_energy">   -535.71641888 </i>
    <i name="e_wo_entrp">   -535.71641645 </i>
    <i name="e_0_energy">   -535.71641766 </i>
   </energy>
  </scstep>
  <scstep>
   <time name="dav">   82.11   82.15</time>
   <time name="total">   82.11   82.15</time>
   <energy>
    <i name="e_fr_energy">   -685.65754805 </i>
    <i name="e_wo_entrp">   -685.65754805 </i>
    <i name="e_0_energy">   -685.65754805 </i>
   </energy>
  </scstep>
  <scstep>
   <time name="dav">   80.96   81.00</time>
   <time name="total">   80.96   81.00</time>
   <energy>
    <i name="e_fr_energy">   -689.88014151 </i>
    <i name="e_wo_entrp">   -689.88014151 </i>
    <i name="e_0_energy">   -689.88014151 </i>
   </energy>
  </scstep>
  <scstep>
   <time name="dav">   82.20   82.24</time>
   <time name="total">   85.40   85.44</time>
   <energy>
    <i name="e_fr_energy">   -690.02654787 </i>
    <i name="e_wo_entrp">   -690.02654787 </i>
    <i name="e_0_energy">   -690.02654787 </i>
   </energy>
  </scstep>
  <scstep>
   <time name="dav">   78.53   78.56</time>
   <time name="total">   82.73   82.77</time>
   <energy>
    <i name="e_fr_energy">   -681.42812707 </i>
    <i name="e_wo_entrp">   -681.42812707 </i>
    <i name="e_0_energy">   -681.42812707 </i>
   </energy>
  </scstep>
  <scstep>
   <time name="dav">   77.84   77.86</time>
   <time name="total">   82.04   82.07</time>
   <energy>
    <i name="e_fr_energy">   -677.90684871 </i>
    <i name="e_wo_entrp">   -677.90684871 </i>
    <i name="e_0_energy">   -677.90684871 </i>
   </energy>
  </scstep>
  <scstep>
   <time name="dav">   76.92   76.96</time>
   <time name="total">   81.15   81.19</time>
   <energy>
    <i name="e_fr_energy">   -677.95726821 </i>
    <i name="e_wo_entrp">   -677.95726821 </i>
    <i name="e_0_energy">   -677.95726821 </i>
   </energy>
  </scstep>
  <scstep>
   <time name="dav">   79.27   79.30</time>
   <time name="total">   83.50   83.53</time>
   <energy>
    <i name="e_fr_energy">   -677.98078269 </i>
    <i name="e_wo_entrp">   -677.98078269 </i>
    <i name="e_0_energy">   -677.98078269 </i>
   </energy>
  </scstep>
  <scstep>
   <time name="dav">   79.53   79.55</time>
   <time name="total">   83.76   83.79</time>
   <energy>
    <i name="e_fr_energy">   -677.98321321 </i>
    <i name="e_wo_entrp">   -677.98321321 </i>
    <i name="e_0_energy">   -677.98321321 </i>
   </energy>
  </scstep>
  <scstep>
   <time name="dav">   76.40   76.44</time>
   <time name="total">   80.64   80.68</time>
   <energy>
    <i name="e_fr_energy">   -677.98500394 </i>
    <i name="e_wo_entrp">   -677.98500394 </i>
    <i name="e_0_energy">   -677.98500394 </i>
   </energy>
  </scstep>
  <scstep>
   <time name="dav">   79.95   79.98</time>
   <time name="total">   84.19   84.22</time>
   <energy>
    <i name="e_fr_energy">   -677.98504478 </i>
    <i name="e_wo_entrp">   -677.98504478 </i>
    <i name="e_0_energy">   -677.98504478 </i>
   </energy>
  </scstep>
  <scstep>
   <time name="dav">   76.40   76.42</time>
   <time name="total">   80.64   80.67</time>
   <energy>
    <i name="e_fr_energy">   -677.98508367 </i>
    <i name="e_wo_entrp">   -677.98508367 </i>
    <i name="e_0_energy">   -677.98508367 </i>
   </energy>
  </scstep>
  <scstep>
   <time name="dav">   79.78   79.82</time>
   <time name="total">   84.11   84.15</time>
   <energy>
    <i name="e_fr_energy">   -677.98508750 </i>
    <i name="e_wo_entrp">   -677.98508750 </i>
    <i name="e_0_energy">   -677.98508750 </i>
   </energy>
  </scstep>
  <scstep>
   <time name="dav">   79.53   79.57</time>
   <time name="total">   83.88   83.92</time>
   <energy>
    <i name="e_fr_energy">   -677.98509260 </i>
    <i name="e_wo_entrp">   -677.98509260 </i>
    <i name="e_0_energy">   -677.98509260 </i>
   </energy>
  </scstep>
  <scstep>
   <time name="dav">   80.20   80.22</time>
   <time name="total">   84.43   84.45</time>
   <energy>
    <i name="e_fr_energy">   -677.98509230 </i>
    <i name="e_wo_entrp">   -677.98509230 </i>
    <i name="e_0_energy">   -677.98509230 </i>
   </energy>
  </scstep>
  <scstep>
   <time name="dav">   74.70   74.72</time>
   <time name="total">   78.94   78.96</time>
   <energy>
    <i name="e_fr_energy">   -677.98509200 </i>
    <i name="e_wo_entrp">   -677.98509200 </i>
    <i name="e_0_energy">   -677.98509200 </i>
   </energy>
  </scstep>
  <scstep>
   <time name="dav">   52.53   52.54</time>
   <time name="total">   56.75   56.76</time>
   <energy>
    <i name="e_fr_energy">   -677.98509225 </i>
    <i name="e_wo_entrp">   -677.98509225 </i>
    <i name="e_0_energy">   -677.98509225 </i>
   </energy>
  </scstep>
  <scstep>
   <time name="dav">   51.44   51.45</time>
   <time name="total">   55.65   55.67</time>
   <energy>
    <i name="e_fr_energy">   -677.98509220 </i>
    <i name="e_wo_entrp">   -677.98509220 </i>
    <i name="e_0_energy">   -677.98509220 </i>
   </energy>
  </scstep>
  <scstep>
   <time name="dav">   50.46   50.48</time>
   <time name="total">   54.67   54.69</time>
   <energy>
    <i name="e_fr_energy">   -677.98509222 </i>
    <i name="e_wo_entrp">   -677.98509222 </i>
    <i name="e_0_energy">   -677.98509222 </i>
   </energy>
  </scstep>
  <scstep>
   <time name="dav">   50.17   50.18</time>
   <time name="total">   51.17   51.19</time>
   <energy>
    <i name="alphaZ">    210.77028614 </i>
    <i name="ewald"> -14470.30669928 </i>
    <i name="hartreedc">  -1001.59882042 </i>
    <i name="XCdc">  -1155.90394625 </i>
    <i name="pawpsdc">   4731.34141368 </i>
    <i name="pawaedc">  -2493.08177071 </i>
    <i name="eentropy">     -0.00000000 </i>
    <i name="bandstr">    308.31358464 </i>
    <i name="atom">  13192.48085998 </i>
    <i name="e_fr_energy">   -677.98509221 </i>
    <i name="e_wo_entrp">   -677.98509221 </i>
    <i name="e_0_energy">   -677.98509221 </i>
   </energy>
  </scstep>
  <structure>
   <crystal>
    <varray name="basis" >
     <v>       0.00000000      10.93733369      10.93733369 </v>
     <v>      10.93733369       0.00000000      10.93733369 </v>
     <v>      10.93733369      10.93733369       0.00000000 </v>
    </varray>
    <i name="volume">   2616.76295363 </i>
    <varray name="rec_basis" >
     <v>      -0.04571498       0.04571498       0.04571498 </v>
     <v>       0.04571498      -0.04571498       0.04571498 </v>
     <v>       0.04571498       0.04571498      -0.04571498 </v>
    </varray>
   </crystal>
   <varray name="positions" >
    <v>       0.98791956       0.99430534       0.00347061 </v>
    <v>       0.24590983       0.00689883       0.00060984 </v>
    <v>       0.49674915       0.99790269       0.00993260 </v>
    <v>       0.74526548       0.00209322       0.99616049 </v>
    <v>       0.00225869       0.24444357       0.01161368 </v>
    <v>       0.25461466       0.23916984       0.00247770 </v>
    <v>       0.49476255       0.25800343       0.00204560 </v>
    <v>       0.74418773       0.23724277       0.00694964 </v>
    <v>       0.01052961       0.50085668       0.99604345 </v>
    <v>       0.26215173       0.49481137       0.00439112 </v>
    <v>       0.50119906       0.50901075       0.00655798 </v>
    <v>       0.74176712       0.49910632       0.00591516 </v>
    <v>       0.98965133       0.73666338       0.01384908 </v>
    <v>       0.23977518       0.74833303       0.01248390 </v>
    <v>       0.49169802       0.74909120       0.01155597 </v>
    <v>       0.74411141       0.75723768       0.00107371 </v>
    <v>       0.99559088       0.00698420       0.25048327 </v>
    <v>       0.24558005       0.00218791       0.24610735 </v>
    <v>       0.50178523       0.00256819       0.24868981 </v>
    <v>       0.73927070       0.01054248       0.25544748 </v>
    <v>       0.01075884       0.24802724       0.24486675 </v>
    <v>       0.24858425       0.23475105       0.26796940 </v>
    <v>       0.49556569       0.25317015       0.24216166 </v>
    <v>       0.76476217       0.24422366       0.24073105 </v>
    <v>       0.00723554       0.49340070       0.24386490 </v>
    <v>       0.24885828       0.50354324       0.25471947 </v>
    <v>       0.49621252       0.49898429       0.25138878 </v>
    <v>       0.75606355       0.49620021       0.24907613 </v>
    <v>       0.99597626       0.74875653       0.25917242 </v>
    <v>       0.24893718       0.74222358       0.26188875 </v>
    <v>       0.49105119       0.75385867       0.25478949 </v>
    <v>       0.74059661       0.75105927       0.26160632 </v>
    <v>       0.00884868       0.99702003       0.49673068 </v>
    <v>       0.24384770       0.99188115       0.50263912 </v>
    <v>       0.50622808       0.99952431       0.50534068 </v>
    <v>       0.74736591       0.00089101       0.50069985 </v>
    <v>       0.99757646       0.24601218       0.50144978 </v>
    <v>       0.25085772       0.26138524       0.49368252 </v>
    <v>       0.49722952       0.25355361       0.49181130 </v>
    <v>       0.75428081       0.26641423       0.49737352 </v>
    <v>       0.00651643       0.49973506       0.49603695 </v>
    <v>       0.25869666       0.49841011       0.50448905 </v>
    <v>       0.50095326       0.50534513       0.48778041 </v>
    <v>       0.75817085       0.50380259       0.50497146 </v>
    <v>       0.01507365       0.75629247       0.49415098 </v>
    <v>       0.24750396       0.73845562       0.50019401 </v>
    <v>       0.49959565       0.74865750       0.49292728 </v>
    <v>       0.74512245       0.75585329       0.50482686 </v>
    <v>       0.99254589       0.00731705       0.74856211 </v>
    <v>       0.25238568       0.99919716       0.75734610 </v>
    <v>       0.49379658       0.01407984       0.74551054 </v>
    <v>       0.75093289       0.00410817       0.75344192 </v>
    <v>       0.00647592       0.24347704       0.74276306 </v>
    <v>       0.27046895       0.25242485       0.73763434 </v>
    <v>       0.49769318       0.25527989       0.74816179 </v>
    <v>       0.75336133       0.25085008       0.75383315 </v>
    <v>       0.00542117       0.49108887       0.75072215 </v>
    <v>       0.26515667       0.49412055       0.74669139 </v>
    <v>       0.49499228       0.49868750       0.74829165 </v>
    <v>       0.74356784       0.50187296       0.74859874 </v>
    <v>       0.00633243       0.74981587       0.74647702 </v>
    <v>       0.24956131       0.74438788       0.75196009 </v>
    <v>       0.49165366       0.75410684       0.75276176 </v>
    <v>       0.74137279       0.74890433       0.75271297 </v>
    <v>       0.05569713       0.06571840       0.05861084 </v>
    <v>       0.30575519       0.06657220       0.05612791 </v>
    <v>       0.55992206       0.07153202       0.06236380 </v>
    <v>       0.81097163       0.06026597       0.05674982 </v>
    <v>       0.06102136       0.32529373       0.05600611 </v>
    <v>       0.29800968       0.32024086       0.07030401 </v>
    <v>       0.57497955       0.31831986       0.04431940 </v>
    <v>       0.81580924       0.30559618       0.06268151 </v>
    <v>       0.06017515       0.56211476       0.05703128 </v>
    <v>       0.31513536       0.56683662       0.05876255 </v>
    <v>       0.56264739       0.56128763       0.06430069 </v>
    <v>       0.81045127       0.58147549       0.05946643 </v>
    <v>       0.06828507       0.80592115       0.05012080 </v>
    <v>       0.30772716       0.81404322       0.06496548 </v>
    <v>       0.55740883       0.80350588       0.07965117 </v>
    <v>       0.80703402       0.82449703       0.05009299 </v>
    <v>       0.06378442       0.04855885       0.32084974 </v>
    <v>       0.29708970       0.06593306       0.31701413 </v>
    <v>       0.56051630       0.06569002       0.31043850 </v>
    <v>       0.80860763       0.06494947       0.30904387 </v>
    <v>       0.05368897       0.30882344       0.31788769 </v>
    <v>       0.30420781       0.33459915       0.30974053 </v>
    <v>       0.57777858       0.31654664       0.29457385 </v>
    <v>       0.80778911       0.31637372       0.30746984 </v>
    <v>       0.05365760       0.56999289       0.30915983 </v>
    <v>       0.30264363       0.56181036       0.31860501 </v>
    <v>       0.56355434       0.57023379       0.31762913 </v>
    <v>       0.81717536       0.56607438       0.31367988 </v>
    <v>       0.05908934       0.81704654       0.31003077 </v>
    <v>       0.30738691       0.81655058       0.31828498 </v>
    <v>       0.56086418       0.81772083       0.30879569 </v>
    <v>       0.81571269       0.81482817       0.31977663 </v>
    <v>       0.06595430       0.06396696       0.55887860 </v>
    <v>       0.31624655       0.07641506       0.56940893 </v>
    <v>       0.57110693       0.06163019       0.55566430 </v>
    <v>       0.80829822       0.06455170       0.56365830 </v>
    <v>       0.06171413       0.32653399       0.56197785 </v>
    <v>       0.31233233       0.30429166       0.56388676 </v>
    <v>       0.56635914       0.31284930       0.54787782 </v>
    <v>       0.82067758       0.30840362       0.56336067 </v>
    <v>       0.05174032       0.56291257       0.57153086 </v>
    <v>       0.31728999       0.56591916       0.56819781 </v>
    <v>       0.55456354       0.57104400       0.55472965 </v>
    <v>       0.80826568       0.58002629       0.55482499 </v>
    <v>       0.06683741       0.82007375       0.55596741 </v>
    <v>       0.30954814       0.81378245       0.56413768 </v>
    <v>       0.55646769       0.80279657       0.56313023 </v>
    <v>       0.79929843       0.80804009       0.58170290 </v>
    <v>       0.06247277       0.06357896       0.80637809 </v>
    <v>       0.31149952       0.06939320       0.81010456 </v>
    <v>       0.54890420       0.06642055       0.82152055 </v>
    <v>       0.80774191       0.07534469       0.80740318 </v>
    <v>       0.07280042       0.31341006       0.80684150 </v>
    <v>       0.31621172       0.30920599       0.82215782 </v>
    <v>       0.55523941       0.31357087       0.81727093 </v>
    <v>       0.80792973       0.32092215       0.81394315 </v>
    <v>       0.08140789       0.55715879       0.79234692 </v>
    <v>       0.31339855       0.56372644       0.81593447 </v>
    <v>       0.56970411       0.57684267       0.80292224 </v>
    <v>       0.80947415       0.56250450       0.81385829 </v>
    <v>       0.06018300       0.82373347       0.80639947 </v>
    <v>       0.31358074       0.81575904       0.80649562 </v>
    <v>       0.55418004       0.81860741       0.81675710 </v>
    <v>       0.81516900       0.81143377       0.80388363 </v>
   </varray>
  </structure>
  <varray name="forces" >
   <v>      -0.97233760       0.63108972       1.93167993 </v>
   <v>      -1.38844511      -1.03508927      -1.21244838 </v>
   <v>      -0.17849426      -0.34693866      -0.26175073 </v>
   <v>       0.36505302      -0.61297628       0.89361651 </v>
   <v>      -0.44994833      -1.88973153       1.22373735 </v>
   <v>       2.61779801      -1.33486421       1.06747886 </v>
   <v>       0.14938948      -0.56186726      -0.44130121 </v>
   <v>      -0.43696266       0.69388415       3.14676807 </v>
   <v>      -0.64606776      -3.29657117      -0.26397017 </v>
   <v>       0.76514139      -2.41934205      -0.22485017 </v>
   <v>      -2.63856584      -1.81075770      -0.59750810 </v>
   <v>      -0.56709898       1.00103972       1.55877260 </v>
   <v>       0.19394107      -1.73499613       2.30654042 </v>
   <v>      -1.62394163       0.05388246       2.32352988 </v>
   <v>      -0.81815828      -0.30445957       0.69690640 </v>
   <v>      -0.38128046      -1.45511262       0.54766328 </v>
   <v>      -1.18606970      -0.43892423      -0.61639447 </v>
   <v>      -0.12727359      -0.02797379       0.16898321 </v>
   <v>       0.50687060      -0.72542294      -0.75482483 </v>
   <v>      -2.46571946      -0.06787843       0.02589725 </v>
   <v>      -0.25367469      -1.09676608      -1.64348917 </v>
   <v>       2.44817244      -2.67180069       2.53893780 </v>
   <v>       0.32901405       0.15353825       1.21250988 </v>
   <v>       1.36208351      -0.31020131      -0.58070814 </v>
   <v>       0.98088532      -0.41834067      -0.02480155 </v>
   <v>       0.73740721      -3.44418651       0.70444168 </v>
   <v>       0.88612519       0.22057205       0.82412721 </v>
   <v>       1.31218280      -0.75407324       1.01347133 </v>
   <v>      -0.91776416      -1.11609303       1.28278554 </v>
   <v>       0.25530640      -1.47955103       1.10102525 </v>
   <v>       0.65231479       1.18674854      -0.20673743 </v>
   <v>      -0.92425543       0.00615824       1.86156444 </v>
   <v>       2.06590785      -0.66382609      -0.67946450 </v>
   <v>       1.08620792       0.85957339       2.12552876 </v>
   <v>      -1.23045180      -1.27546449      -1.18029944 </v>
   <v>      -0.80465176       1.00809931       0.48957199 </v>
   <v>       0.37917296       0.89741838       1.68372468 </v>
   <v>      -0.25372016      -0.62422129      -1.16319425 </v>
   <v>      -1.36491684       0.13917612       0.43346235 </v>
   <v>      -2.06064222      -1.21017998      -2.08976133 </v>
   <v>       1.72649955      -1.93835440       0.44184336 </v>
   <v>       0.38912773      -0.45133219      -1.47268288 </v>
   <v>       1.03750642       1.81693105      -1.46240003 </v>
   <v>      -0.94153966      -1.58968216      -1.33157369 </v>
   <v>      -0.02312771      -1.18228025      -2.80086115 </v>
   <v>       2.02000038       0.01871952       1.96344915 </v>
   <v>       1.03257042      -0.94584101       0.00905854 </v>
   <v>       0.67761859      -0.85306087       0.22240257 </v>
   <v>      -0.49917512      -0.10459832       0.43708111 </v>
   <v>      -0.09826601      -1.19702166       0.01811570 </v>
   <v>      -1.19907828       0.84465355      -0.38794368 </v>
   <v>      -0.57571173      -1.16044667      -1.10459024 </v>
   <v>       2.32812244      -0.11653198       0.66598716 </v>
   <v>       1.81603973       0.13272429      -1.70016766 </v>
   <v>      -0.89305279       0.13631384       0.37066479 </v>
   <v>       0.95367201      -1.78937336       0.32224246 </v>
   <v>       1.40887908      -0.89615834      -0.20165319 </v>
   <v>       0.96449366       0.37450087      -0.63440644 </v>
   <v>       0.39355250       0.47235873       1.77989075 </v>
   <v>      -0.37979373       0.51673774       2.17034072 </v>
   <v>      -0.32590749      -0.30573392      -0.23976974 </v>
   <v>       1.01904734      -0.73304427       0.92677702 </v>
   <v>      -0.27669485       0.18724856       1.53199185 </v>
   <v>       1.45036123       1.32134312      -0.96147932 </v>
   <v>      -0.37520706       1.01631591      -0.64460685 </v>
   <v>      -0.10612206       2.79053512      -0.30719618 </v>
   <v>      -0.17173750      -0.16161267      -0.51294300 </v>
   <v>       0.80045560       0.60543637      -1.80153809 </v>
   <v>      -1.17937461       1.91811623      -1.16057462 </v>
   <v>      -1.51417317       2.01957708      -1.10921098 </v>
   <v>       2.62731715      -1.03180261      -1.91857275 </v>
   <v>      -0.38517375      -1.07573381       0.54493640 </v>
   <v>      -0.04177415       2.88525447       0.94270493 </v>
   <v>       0.69942259       1.44403783      -0.33519204 </v>
   <v>       2.05678899       0.69952530       0.55106580 </v>
   <v>      -2.04562700       1.26680991      -1.72674017 </v>
   <v>       2.43978612      -0.49526215      -1.95266779 </v>
   <v>       0.94841810       0.36918372      -0.39933067 </v>
   <v>      -0.62789226      -1.64194459       1.34932048 </v>
   <v>       0.72591933       2.07393519      -1.27534781 </v>
   <v>       0.37183986      -1.45334561       1.75936851 </v>
   <v>      -2.31340087       2.31776022      -0.59818589 </v>
   <v>       1.34377149      -0.02579901      -0.73546146 </v>
   <v>       0.52951238       1.49828503       0.07897509 </v>
   <v>      -0.09257718       1.12196557       1.11609110 </v>
   <v>      -3.08307184       1.89109092      -2.12874167 </v>
   <v>       0.21034862      -0.09015113      -1.79020081 </v>
   <v>      -0.50175016       1.82563436       0.63920875 </v>
   <v>      -1.15023643       1.36997301      -0.19465702 </v>
   <v>       0.08486135       1.89315674       0.92932847 </v>
   <v>      -2.54333765      -1.70907376       0.57955766 </v>
   <v>      -0.64392809       0.13525704      -0.86098142 </v>
   <v>       0.20844721       0.62507425       0.47286052 </v>
   <v>      -0.74790856      -0.27685488      -0.28616119 </v>
   <v>       0.18961519      -0.36769061      -0.49118498 </v>
   <v>       0.46269905      -1.67778158      -0.64436072 </v>
   <v>       0.43393831      -0.09290892      -1.04720261 </v>
   <v>      -1.56742902      -0.61217306      -1.08004114 </v>
   <v>       1.99325626      -0.33839655       0.04628216 </v>
   <v>       0.20942506       0.25594403       1.11416976 </v>
   <v>      -2.32747772       0.43756440      -1.68206277 </v>
   <v>       0.68363726      -0.30808183       2.58828415 </v>
   <v>       1.40489922       0.73435018       0.07639314 </v>
   <v>       2.44346047       0.00555031       0.36507362 </v>
   <v>      -0.92048535       0.20409379       2.29369745 </v>
   <v>      -2.14266321       0.03464546      -0.60753076 </v>
   <v>      -1.06283002       2.09669966      -0.46715638 </v>
   <v>      -0.67340068       2.52228266      -0.49231248 </v>
   <v>       0.26341448       1.32592318      -0.92650840 </v>
   <v>      -1.46569882       0.28415912      -1.09463924 </v>
   <v>       1.28607115       0.38626725       1.35380400 </v>
   <v>      -1.78560800      -1.05317661       3.08685804 </v>
   <v>       0.08527826       1.13562376      -0.63645171 </v>
   <v>       0.52457565       0.47747664      -0.39385141 </v>
   <v>      -0.45633890       0.79794672       1.15123734 </v>
   <v>      -0.43175082       1.22944732      -0.97011302 </v>
   <v>      -1.00081625       1.10221421      -1.45084921 </v>
   <v>      -0.89500579      -0.87441758       0.49204672 </v>
   <v>      -0.77091315       0.32408872       0.70904766 </v>
   <v>      -1.01716364       1.25923632      -0.40106299 </v>
   <v>       1.77688120       0.35255460      -0.37981202 </v>
   <v>      -0.28682716       0.33493989      -0.79416845 </v>
   <v>       0.42565684      -0.30615467      -3.21230195 </v>
   <v>      -0.30873075       0.55250644      -0.40163417 </v>
   <v>      -0.19870865       1.15644242      -1.40466071 </v>
   <v>       0.83116899       0.23916205      -1.70825701 </v>
   <v>       0.43007662      -0.15664076       0.00482288 </v>
   <v>       0.93652048       0.45131709      -0.00420002 </v>
  </varray>
  <varray name="stress" >
   <v>      13.78121684      -7.29035095      14.49875089 </v>
   <v>      -7.29035096      14.57010394      -3.20065199 </v>
   <v>      14.49875088      -3.20065198      11.35456926 </v>
  </varray>
  <energy>
   <i name="e_fr_energy">   -677.98509221 </i>
   <i name="e_wo_entrp">   -677.98509221 </i>
   <i name="e_0_energy">     -0.00000000 </i>
  </energy>
  <time name="totalsc"> 1726.12 1726.82</time>
  <eigenvalues>
   <array>
    <dimension dim="1">band</dimension>
    <dimension dim="2">kpoint</dimension>
    <dimension dim="3">spin</dimension>
    <field>eigene</field>
    <field>occ</field>
    <set>
     <set comment="spin 1">
      <set comment="kpoint 1">
       <r>   -6.2969    1.0000 </r>
       <r>   -5.6898    1.0000 </r>
       <r>   -5.6104    1.0000 </r>
       <r>   -5.5847    1.0000 </r>
       <r>   -5.5484    1.0000 </r>
       <r>   -5.5311    1.0000 </r>
       <r>   -5.5157    1.0000 </r>
       <r>   -5.4083    1.0000 </r>
       <r>   -5.3915    1.0000 </r>
       <r>   -5.3292    1.0000 </r>
       <r>   -5.2862    1.0000 </r>
       <r>   -5.2622    1.0000 </r>
       <r>   -5.1801    1.0000 </r>
       <r>   -5.1231    1.0000 </r>
       <r>   -5.0602    1.0000 </r>
       <r>   -4.5154    1.0000 </r>
       <r>   -4.4517    1.0000 </r>
       <r>   -4.4362    1.0000 </r>
       <r>   -4.4081    1.0000 </r>
       <r>   -4.3723    1.0000 </r>
       <r>   -4.3300    1.0000 </r>
       <r>   -4.3087    1.0000 </r>
       <r>   -4.2847    1.0000 </r>
       <r>   -4.2466    1.0000 </r>
       <r>   -4.2112    1.0000 </r>
       <r>   -4.1659    1.0000 </r>
       <r>   -4.0928    1.0000 </r>
       <r>   -4.0581    1.0000 </r>
       <r>   -4.0506    1.0000 </r>
       <r>   -4.0040    1.0000 </r>
       <r>   -3.9154    1.0000 </r>
       <r>   -3.9028    1.0000 </r>
       <r>   -3.8627    1.0000 </r>
       <r>   -3.8203    1.0000 </r>
       <r>   -3.7897    1.0000 </r>
       <r>   -3.7647    1.0000 </r>
       <r>   -3.7444    1.0000 </r>
       <r>   -3.7347    1.0000 </r>
       <r>   -3.6875    1.0000 </r>
       <r>   -3.6073    1.0000 </r>
       <r>   -3.5980    1.0000 </r>
       <r>   -3.5893    1.0000 </r>
       <r>   -3.5578    1.0000 </r>
       <r>   -3.5474    1.0000 </r>
       <r>   -3.4964    1.0000 </r>
       <r>   -3.4786    1.0000 </r>
       <r>   -3.4421    1.0000 </r>
       <r>   -3.4250    1.0000 </r>
       <r>   -3.4109    1.0000 </r>
       <r>   -3.3816    1.0000 </r>
       <r>   -3.3592    1.0000 </r>
       <r>   -3.3439    1.0000 </r>
       <r>   -3.3161    1.0000 </r>
       <r>   -3.3005    1.0000 </r>
       <r>   -3.2328    1.0000 </r>
       <r>   -2.3663    1.0000 </r>
       <r>   -2.3017    1.0000 </r>
       <r>   -2.2698    1.0000 </r>
       <r>   -2.2597    1.0000 </r>
       <r>   -2.2365    1.0000 </r>
       <r>   -2.1995    1.0000 </r>
       <r>   -2.1826    1.0000 </r>
       <r>   -2.1395    1.0000 </r>
       <r>   -2.0941    1.0000 </r>
       <r>   -2.0654    1.0000 </r>
       <r>   -2.0295    1.0000 </r>
       <r>   -2.0154    1.0000 </r>
       <r>   -1.9294    1.0000 </r>
       <r>   -1.8949    1.0000 </r>
       <r>   -1.8579    1.0000 </r>
       <r>   -1.8150    1.0000 </r>
       <r>   -1.7786    1.0000 </r>
       <r>   -1.6633    1.0000 </r>
       <r>   -1.5153    1.0000 </r>
       <r>   -1.3189    1.0000 </r>
       <r>   -1.3010    1.0000 </r>
       <r>   -1.1588    1.0000 </r>
       <r>   -1.0550    1.0000 </r>
       <r>   -1.0224    1.0000 </r>
       <r>   -1.0099    1.0000 </r>
       <r>   -0.9707    1.0000 </r>
       <r>   -0.8908    1.0000 </r>
       <r>   -0.8796    1.0000 </r>
       <r>   -0.8495    1.0000 </r>
       <r>   -0.8121    1.0000 </r>
       <r>   -0.7955    1.0000 </r>
       <r>   -0.7727    1.0000 </r>
       <r>   -0.7551    1.0000 </r>
       <r>   -0.7302    1.0000 </r>
       <r>   -0.7067    1.0000 </r>
       <r>   -0.6771    1.0000 </r>
       <r>   -0.6418    1.0000 </r>
       <r>   -0.6227    1.0000 </r>
       <r>   -0.5988    1.0000 </r>
       <r>   -0.5674    1.0000 </r>
       <r>   -0.5459    1.0000 </r>
       <r>   -0.5208    1.0000 </r>
       <r>   -0.4900    1.0000 </r>
       <r>   -0.4862    1.0000 </r>
       <r>   -0.4359    1.0000 </r>
       <r>   -0.3730    1.0000 </r>
       <r>   -0.0235    1.0000 </r>
       <r>    0.0224    1.0000 </r>
       <r>    0.0615    1.0000 </r>
       <r>    0.1263    1.0000 </r>
       <r>    0.1399    1.0000 </r>
       <r>    0.1965    1.0000 </r>
       <r>    0.2077    1.0000 </r>
       <r>    0.2338    1.0000 </r>
       <r>    0.2851    1.0000 </r>
       <r>    0.3134    1.0000 </r>
       <r>    0.3699    1.0000 </r>
       <r>    0.3941    1.0000 </r>
       <r>    1.3453    1.0000 </r>
       <r>    1.4421    1.0000 </r>
       <r>    1.4619    1.0000 </r>
       <r>    1.5005    1.0000 </r>
       <r>    1.5514    1.0000 </r>
       <r>    1.5815    1.0000 </r>
       <r>    1.5914    1.0000 </r>
       <r>    1.5970    1.0000 </r>
       <r>    1.6158    1.0000 </r>
       <r>    1.6530    1.0000 </r>
       <r>    1.6798    1.0000 </r>
       <r>    1.6964    1.0000 </r>
       <r>    1.7032    1.0000 </r>
       <r>    1.7253    1.0000 </r>
       <r>    1.7304    1.0000 </r>
       <r>    1.7466    1.0000 </r>
       <r>    1.7622    1.0000 </r>
       <r>    1.7734    1.0000 </r>
       <r>    1.7794    1.0000 </r>
       <r>    1.8079    1.0000 </r>
       <r>    1.8316    1.0000 </r>
       <r>    1.8394    1.0000 </r>
       <r>    1.8521    1.0000 </r>
       <r>    1.8640    1.0000 </r>
       <r>    1.8693    1.0000 </r>
       <r>    1.8921    1.0000 </r>
       <r>    1.9105    1.0000 </r>
       <r>    1.9199    1.0000 </r>
       <r>    1.9301    1.0000 </r>
       <r>    1.9628    1.0000 </r>
       <r>    1.9745    1.0000 </r>
       <r>    1.9895    1.0000 </r>
       <r>    2.0073    1.0000 </r>
       <r>    2.0274    1.0000 </r>
       <r>    2.0336    1.0000 </r>
       <r>    2.0380    1.0000 </r>
       <r>    2.0502    1.0000 </r>
       <r>    2.0624    1.0000 </r>
       <r>    2.0850    1.0000 </r>
       <r>    2.0966    1.0000 </r>
       <r>    2.1036    1.0000 </r>
       <r>    2.1166    1.0000 </r>
       <r>    2.1306    1.0000 </r>
       <r>    2.1388    1.0000 </r>
       <r>    2.1763    1.0000 </r>
       <r>    2.1823    1.0000 </r>
       <r>    2.1997    1.0000 </r>
       <r>    2.2128    1.0000 </r>
       <r>    2.2164    1.0000 </r>
       <r>    2.2218    1.0000 </r>
       <r>    2.2472    1.0000 </r>
       <r>    2.2827    1.0000 </r>
       <r>    2.2989    1.0000 </r>
       <r>    2.3160    1.0000 </r>
       <r>    2.3370    1.0000 </r>
       <r>    2.3487    1.0000 </r>
       <r>    2.3799    1.0000 </r>
       <r>    2.3986    1.0000 </r>
       <r>    2.4249    1.0000 </r>
       <r>    2.4652    1.0000 </r>
       <r>    2.4807    1.0000 </r>
       <r>    2.5069    1.0000 </r>
       <r>    2.7406    1.0000 </r>
       <r>    2.7766    1.0000 </r>
       <r>    2.7862    1.0000 </r>
       <r>    2.8402    1.0000 </r>
       <r>    2.8668    1.0000 </r>
       <r>    2.9239    1.0000 </r>
       <r>    3.1925    1.0000 </r>
       <r>    3.2457    1.0000 </r>
       <r>    3.2513    1.0000 </r>
       <r>    3.2853    1.0000 </r>
       <r>    3.2923    1.0000 </r>
       <r>    3.3084    1.0000 </r>
       <r>    3.3299    1.0000 </r>
       <r>    3.3503    1.0000 </r>
       <r>    3.3722    1.0000 </r>
       <r>    3.3963    1.0000 </r>
       <r>    3.4275    1.0000 </r>
       <r>    3.4388    1.0000 </r>
       <r>    3.4487    1.0000 </r>
       <r>    3.4494    1.0000 </r>
       <r>    3.4832    1.0000 </r>
       <r>    3.4924    1.0000 </r>
       <r>    3.5082    1.0000 </r>
       <r>    3.5352    1.0000 </r>
       <r>    3.5474    1.0000 </r>
       <r>    3.5595    1.0000 </r>
       <r>    3.5682    1.0000 </r>
       <r>    3.6086    1.0000 </r>
       <r>    3.6281    1.0000 </r>
       <r>    3.6333    1.0000 </r>
       <r>    3.6707    1.0000 </r>
       <r>    3.6776    1.0000 </r>
       <r>    3.7010    1.0000 </r>
       <r>    3.7343    1.0000 </r>
       <r>    3.7419    1.0000 </r>
       <r>    3.7825    1.0000 </r>
       <r>    3.8261    1.0000 </r>
       <r>    3.8610    1.0000 </r>
       <r>    3.8867    1.0000 </r>
       <r>    3.9014    1.0000 </r>
       <r>    3.9165    1.0000 </r>
       <r>    3.9962    1.0000 </r>
       <r>    4.0821    1.0000 </r>
       <r>    4.1518    1.0000 </r>
       <r>    4.1735    1.0000 </r>
       <r>    4.1935    1.0000 </r>
       <r>    4.2383    1.0000 </r>
       <r>    4.2775    1.0000 </r>
       <r>    4.2875    1.0000 </r>
       <r>    4.3034    1.0000 </r>
       <r>    4.3207    1.0000 </r>
       <r>    4.3423    1.0000 </r>
       <r>    4.3995    1.0000 </r>
       <r>    4.4466    1.0000 </r>
       <r>    4.4760    1.0000 </r>
       <r>    4.5086    1.0000 </r>
       <r>    4.5518    1.0000 </r>
       <r>    4.5717    1.0000 </r>
       <r>    4.6133    1.0000 </r>
       <r>    4.6389    1.0000 </r>
       <r>    4.6500    1.0000 </r>
       <r>    4.6750    1.0000 </r>
       <r>    4.7319    1.0000 </r>
       <r>    4.7495    1.0000 </r>
       <r>    4.7611    1.0000 </r>
       <r>    4.8377    1.0000 </r>
       <r>    4.8553    1.0000 </r>
       <r>    4.9093    1.0000 </r>
       <r>    4.9303    1.0000 </r>
       <r>    4.9833    1.0000 </r>
       <r>    5.0066    1.0000 </r>
       <r>    5.0412    1.0000 </r>
       <r>    5.0849    1.0000 </r>
       <r>    5.1538    1.0000 </r>
       <r>    5.1599    1.0000 </r>
       <r>    5.2235    1.0000 </r>
       <r>    5.2820    1.0000 </r>
       <r>    5.3271    1.0000 </r>
       <r>    5.6018    1.0000 </r>
       <r>    5.8157    1.0000 </r>
       <r>    5.9193    1.0000 </r>
       <r>    6.0816    0.0000 </r>
       <r>    6.1487    0.0000 </r>
       <r>    6.2011    0.0000 </r>
       <r>    6.2506    0.0000 </r>
       <r>    6.3671    0.0000 </r>
       <r>    6.3828    0.0000 </r>
       <r>    6.4920    0.0000 </r>
       <r>    6.5588    0.0000 </r>
       <r>    6.5699    0.0000 </r>
       <r>    6.6737    0.0000 </r>
       <r>    6.6966    0.0000 </r>
       <r>    6.7347    0.0000 </r>
       <r>    6.7553    0.0000 </r>
       <r>    6.7800    0.0000 </r>
       <r>    6.8254    0.0000 </r>
       <r>    6.8521    0.0000 </r>
       <r>    6.8694    0.0000 </r>
       <r>    6.9022    0.0000 </r>
       <r>    6.9110    0.0000 </r>
       <r>    6.9496    0.0000 </r>
       <r>    6.9597    0.0000 </r>
       <r>    6.9757    0.0000 </r>
       <r>    6.9945    0.0000 </r>
       <r>    7.0052    0.0000 </r>
       <r>    7.0159    0.0000 </r>
       <r>    7.0276    0.0000 </r>
       <r>    7.0318    0.0000 </r>
       <r>    7.0743    0.0000 </r>
       <r>    7.1004    0.0000 </r>
       <r>    7.1150    0.0000 </r>
       <r>    7.1413    0.0000 </r>
       <r>    7.1505    0.0000 </r>
       <r>    7.1798    0.0000 </r>
       <r>    7.1974    0.0000 </r>
       <r>    7.2195    0.0000 </r>
       <r>    7.2328    0.0000 </r>
       <r>    7.2719    0.0000 </r>
       <r>    7.2969    0.0000 </r>
       <r>    7.3168    0.0000 </r>
       <r>    7.3833    0.0000 </r>
       <r>    7.4347    0.0000 </r>
       <r>    7.4377    0.0000 </r>
       <r>    7.5118    0.0000 </r>
       <r>    7.5187    0.0000 </r>
       <r>    7.5546    0.0000 </r>
       <r>    7.5785    0.0000 </r>
       <r>    7.6058    0.0000 </r>
       <r>    7.6523    0.0000 </r>
       <r>    7.7548    0.0000 </r>
       <r>    7.7838    0.0000 </r>
       <r>    7.8293    0.0000 </r>
       <r>    7.8531    0.0000 </r>
       <r>    7.9339    0.0000 </r>
       <r>    7.9475    0.0000 </r>
       <r>    7.9588    0.0000 </r>
       <r>    7.9966    0.0000 </r>
       <r>    8.0411    0.0000 </r>
       <r>    8.0579    0.0000 </r>
       <r>    8.1145    0.0000 </r>
       <r>    8.1247    0.0000 </r>
       <r>    8.1993    0.0000 </r>
       <r>    8.2508    0.0000 </r>
       <r>    8.2837    0.0000 </r>
       <r>    8.5152    0.0000 </r>
       <r>    8.5590    0.0000 </r>
       <r>    8.5697    0.0000 </r>
      </set>
      <set comment="kpoint 2">
       <r>   -6.1568    1.0000 </r>
       <r>   -6.0456    1.0000 </r>
       <r>   -5.6820    1.0000 </r>
       <r>   -5.6203    1.0000 </r>
       <r>   -5.5961    1.0000 </r>
       <r>   -5.5575    1.0000 </r>
       <r>   -5.5358    1.0000 </r>
[...]
       <r>    -3.1155    38.0854   100.7552 </r>
       <r>    -3.0610    48.0704   103.3756 </r>
       <r>    -3.0064    39.3371   105.5199 </r>
       <r>    -2.9519    53.9051   108.4583 </r>
       <r>    -2.8974    28.1044   109.9904 </r>
       <r>    -2.8429    16.3630   110.8823 </r>
       <r>    -2.7884    41.1423   113.1250 </r>
       <r>    -2.7339    30.2415   114.7735 </r>
       <r>    -2.6794    32.6162   116.5515 </r>
       <r>    -2.6249    41.3709   118.8067 </r>
       <r>    -2.5704    28.9182   120.3830 </r>
       <r>    -2.5158    18.0614   121.3676 </r>
       <r>    -2.4613    20.0200   122.4589 </r>
       <r>    -2.4068     5.3396   122.7500 </r>
       <r>    -2.3523     4.4750   122.9939 </r>
       <r>    -2.2978     3.3554   123.1768 </r>
       <r>    -2.2433    17.1709   124.1128 </r>
       <r>    -2.1888    27.1495   125.5928 </r>
       <r>    -2.1343    30.3882   127.2493 </r>
       <r>    -2.0798    22.5504   128.4785 </r>
       <r>    -2.0252    22.4027   129.6997 </r>
       <r>    -1.9707    19.2611   130.7497 </r>
       <r>    -1.9162    12.3228   131.4214 </r>
       <r>    -1.8617    16.5426   132.3232 </r>
       <r>    -1.8072     7.2149   132.7164 </r>
       <r>    -1.7527     5.2015   133.0000 </r>
       <r>    -1.6982     9.4039   133.5126 </r>
       <r>    -1.6437    30.7562   135.1892 </r>
       <r>    -1.5892    16.1269   136.0683 </r>
       <r>    -1.5346    28.7006   137.6328 </r>
       <r>    -1.4801    45.3601   140.1054 </r>
       <r>    -1.4256    28.3238   141.6494 </r>
       <r>    -1.3711    50.9901   144.4289 </r>
       <r>    -1.3166    35.1051   146.3425 </r>
       <r>    -1.2621    62.2648   149.7367 </r>
       <r>    -1.2076    57.1439   152.8517 </r>
       <r>    -1.1531    62.2764   156.2465 </r>
       <r>    -1.0986    61.7782   159.6140 </r>
       <r>    -1.0440    55.9062   162.6616 </r>
       <r>    -0.9895    77.3706   166.8791 </r>
       <r>    -0.9350    71.1648   170.7584 </r>
       <r>    -0.8805    58.7050   173.9585 </r>
       <r>    -0.8260    51.9414   176.7898 </r>
       <r>    -0.7715    70.7365   180.6457 </r>
       <r>    -0.7170    45.1843   183.1088 </r>
       <r>    -0.6625    35.9422   185.0680 </r>
       <r>    -0.6080    26.9766   186.5385 </r>
       <r>    -0.5535    34.5194   188.4202 </r>
       <r>    -0.4989    24.1436   189.7363 </r>
       <r>    -0.4444    36.8949   191.7475 </r>
       <r>    -0.3899    31.0120   193.4380 </r>
       <r>    -0.3354    42.6564   195.7632 </r>
       <r>    -0.2809    46.9002   198.3198 </r>
       <r>    -0.2264    45.3782   200.7935 </r>
       <r>    -0.1719    47.8427   203.4014 </r>
       <r>    -0.1174    50.5183   206.1552 </r>
       <r>    -0.0629    48.7912   208.8149 </r>
       <r>    -0.0083    30.0431   210.4526 </r>
       <r>     0.0462    25.9388   211.8666 </r>
       <r>     0.1007    21.4594   213.0364 </r>
       <r>     0.1552    17.5722   213.9942 </r>
       <r>     0.2097    16.4755   214.8923 </r>
       <r>     0.2642    20.2589   215.9967 </r>
       <r>     0.3187    20.0595   217.0901 </r>
       <r>     0.3732    15.3066   217.9245 </r>
       <r>     0.4277    28.5242   219.4794 </r>
       <r>     0.4823    15.8801   220.3450 </r>
       <r>     0.5368    34.5784   222.2299 </r>
       <r>     0.5913    28.0820   223.7607 </r>
       <r>     0.6458    15.9139   224.6282 </r>
       <r>     0.7003    18.6079   225.6425 </r>
       <r>     0.7548    23.3914   226.9176 </r>
       <r>     0.8093     6.5085   227.2724 </r>
       <r>     0.8638    12.9898   227.9805 </r>
       <r>     0.9183    13.1762   228.6987 </r>
       <r>     0.9729    17.5031   229.6528 </r>
       <r>     1.0274    19.9992   230.7430 </r>
       <r>     1.0819    23.7414   232.0372 </r>
       <r>     1.1364    34.0155   233.8914 </r>
       <r>     1.1909    33.3402   235.7088 </r>
       <r>     1.2454    17.8425   236.6815 </r>
       <r>     1.2999    25.4940   238.0712 </r>
       <r>     1.3544    41.6281   240.3403 </r>
       <r>     1.4089    44.2315   242.7514 </r>
       <r>     1.4634    60.2181   246.0340 </r>
       <r>     1.5180    72.0677   249.9625 </r>
       <r>     1.5725    84.7816   254.5840 </r>
       <r>     1.6270    83.3084   259.1252 </r>
       <r>     1.6815    55.4086   262.1456 </r>
       <r>     1.7360    70.4754   265.9873 </r>
       <r>     1.7905    65.4200   269.5534 </r>
       <r>     1.8450    33.0599   271.3556 </r>
       <r>     1.8995    32.3669   273.1199 </r>
       <r>     1.9540    16.6482   274.0274 </r>
       <r>     2.0086    41.9847   276.3161 </r>
       <r>     2.0631    76.1756   280.4685 </r>
       <r>     2.1176    76.7301   284.6511 </r>
       <r>     2.1721   100.8811   290.1502 </r>
       <r>     2.2266   115.3994   296.4408 </r>
       <r>     2.2811    95.2636   301.6337 </r>
       <r>     2.3356   103.9379   307.2995 </r>
       <r>     2.3901    97.2448   312.6004 </r>
       <r>     2.4446    88.1620   317.4062 </r>
       <r>     2.4992    81.4116   321.8440 </r>
       <r>     2.5537    43.0902   324.1930 </r>
       <r>     2.6082    41.5704   326.4591 </r>
       <r>     2.6627    58.1250   329.6275 </r>
       <r>     2.7172    68.9251   333.3847 </r>
       <r>     2.7717    82.6821   337.8917 </r>
       <r>     2.8262    88.7313   342.7286 </r>
       <r>     2.8807   102.3742   348.3091 </r>
       <r>     2.9352    98.4680   353.6767 </r>
       <r>     2.9898    82.3388   358.1651 </r>
       <r>     3.0443    88.4416   362.9861 </r>
       <r>     3.0988    90.9355   367.9431 </r>
       <r>     3.1533    75.1204   372.0380 </r>
       <r>     3.2078    83.1897   376.5728 </r>
       <r>     3.2623    87.5291   381.3441 </r>
       <r>     3.3168   102.1088   386.9102 </r>
       <r>     3.3713    95.6452   392.1239 </r>
       <r>     3.4258    82.6828   396.6310 </r>
       <r>     3.4804   104.1660   402.3092 </r>
       <r>     3.5349    72.7209   406.2732 </r>
       <r>     3.5894    85.0245   410.9080 </r>
       <r>     3.6439    72.7744   414.8750 </r>
       <r>     3.6984    89.4707   419.7522 </r>
       <r>     3.7529    71.0790   423.6268 </r>
       <r>     3.8074    80.3634   428.0075 </r>
       <r>     3.8619    75.7252   432.1353 </r>
       <r>     3.9164    75.9748   436.2768 </r>
       <r>     3.9709    78.9299   440.5793 </r>
       <r>     4.0255    77.0866   444.7814 </r>
       <r>     4.0800    62.9805   448.2146 </r>
       <r>     4.1345    71.2284   452.0973 </r>
       <r>     4.1890    57.2760   455.2194 </r>
       <r>     4.2435    65.9500   458.8144 </r>
       <r>     4.2980    79.2338   463.1336 </r>
       <r>     4.3525    81.3640   467.5688 </r>
       <r>     4.4070    69.7864   471.3729 </r>
       <r>     4.4615    47.9686   473.9878 </r>
       <r>     4.5161    60.9463   477.3100 </r>
       <r>     4.5706    52.5965   480.1771 </r>
       <r>     4.6251    62.1511   483.5650 </r>
       <r>     4.6796    51.6929   486.3828 </r>
       <r>     4.7341    58.8027   489.5882 </r>
       <r>     4.7886    36.1876   491.5609 </r>
       <r>     4.8431    28.2373   493.1002 </r>
       <r>     4.8976    27.4963   494.5990 </r>
       <r>     4.9521    42.3147   496.9056 </r>
       <r>     5.0067    18.1241   497.8936 </r>
       <r>     5.0612    38.5122   499.9929 </r>
       <r>     5.1157    35.4398   501.9248 </r>
       <r>     5.1702    23.9228   503.2289 </r>
       <r>     5.2247    10.1776   503.7837 </r>
       <r>     5.2792    10.7892   504.3718 </r>
       <r>     5.3337    21.0214   505.5177 </r>
       <r>     5.3882     4.2696   505.7504 </r>
       <r>     5.4427    21.1664   506.9042 </r>
       <r>     5.4973    15.5173   507.7501 </r>
       <r>     5.5518    15.6659   508.6040 </r>
       <r>     5.6063    14.0798   509.3716 </r>
       <r>     5.6608    25.2887   510.7501 </r>
       <r>     5.7153    13.7574   511.5000 </r>
       <r>     5.7698     0.0000   511.5000 </r>
       <r>     5.8243     4.0779   511.7223 </r>
       <r>     5.8788     0.5083   511.7500 </r>
       <r>     5.9333     4.4799   511.9942 </r>
       <r>     5.9878     0.1063   512.0000 </r>
       <r>     6.0424     0.0000   512.0000 </r>
       <r>     6.0969     4.5387   512.2474 </r>
       <r>     6.1514    16.7935   513.1628 </r>
       <r>     6.2059    22.5943   514.3945 </r>
       <r>     6.2604    13.7324   515.1430 </r>
       <r>     6.3149    14.1763   515.9158 </r>
       <r>     6.3694    10.8608   516.5078 </r>
       <r>     6.4239    23.2855   517.7772 </r>
       <r>     6.4784    19.2145   518.8246 </r>
       <r>     6.5330    21.2095   519.9807 </r>
       <r>     6.5875    28.2164   521.5188 </r>
       <r>     6.6420    18.4965   522.5271 </r>
       <r>     6.6965    21.3891   523.6930 </r>
       <r>     6.7510    34.2034   525.5575 </r>
       <r>     6.8055    34.0174   527.4118 </r>
       <r>     6.8600    33.3407   529.2292 </r>
       <r>     6.9145    36.0871   531.1964 </r>
       <r>     6.9690    35.1888   533.1145 </r>
       <r>     7.0236    50.6220   535.8740 </r>
       <r>     7.0781    33.0938   537.6780 </r>
       <r>     7.1326    26.9434   539.1467 </r>
       <r>     7.1871    40.5619   541.3577 </r>
       <r>     7.2416    44.9857   543.8099 </r>
       <r>     7.2961    66.1250   547.4145 </r>
       <r>     7.3506    66.5249   551.0409 </r>
       <r>     7.4051    82.0227   555.5120 </r>
       <r>     7.4596    92.1915   560.5374 </r>
       <r>     7.5142    78.0123   564.7900 </r>
       <r>     7.5687    92.5522   569.8351 </r>
       <r>     7.6232    84.6227   574.4480 </r>
       <r>     7.6777    82.7630   578.9595 </r>
       <r>     7.7322    88.7106   583.7951 </r>
       <r>     7.7867    93.1346   588.8720 </r>
       <r>     7.8412    94.8368   594.0416 </r>
       <r>     7.8957    97.2838   599.3447 </r>
       <r>     7.9502    80.5064   603.7331 </r>
       <r>     8.0048    84.2539   608.3259 </r>
       <r>     8.0593    84.8135   612.9492 </r>
       <r>     8.1138    77.1378   617.1540 </r>
       <r>     8.1683    94.3662   622.2980 </r>
       <r>     8.2228    82.1007   626.7734 </r>
       <r>     8.2773   100.1474   632.2326 </r>
       <r>     8.3318    79.9822   636.5925 </r>
       <r>     8.3863    64.9688   640.1341 </r>
       <r>     8.4408    44.5254   642.5612 </r>
       <r>     8.4953    12.6481   643.2506 </r>
       <r>     8.5499     5.0332   643.5250 </r>
       <r>     8.6044     8.7140   644.0000 </r>
       <r>     8.6589     0.0000   644.0000 </r>
       <r>     8.7134     0.0000   644.0000 </r>
       <r>     8.7679     0.0000   644.0000 </r>
       <r>     8.8224     0.0000   644.0000 </r>
       <r>     8.8769     0.0000   644.0000 </r>
       <r>     8.9314     0.0000   644.0000 </r>
       <r>     8.9859     0.0000   644.0000 </r>
       <r>     9.0405     0.0000   644.0000 </r>
       <r>     9.0950     0.0000   644.0000 </r>
       <r>     9.1495     0.0000   644.0000 </r>
       <r>     9.2040     0.0000   644.0000 </r>
       <r>     9.2585     0.0000   644.0000 </r>
       <r>     9.3130     0.0000   644.0000 </r>
      </set>
     </set>
    </array>
   </total>
  </dos>
 </calculation>
 <structure name="finalpos" >
  <crystal>
   <varray name="basis" >
    <v>       0.00000000      10.93733369      10.93733369 </v>
    <v>      10.93733369       0.00000000      10.93733369 </v>
    <v>      10.93733369      10.93733369       0.00000000 </v>
   </varray>
   <i name="volume">   2616.76295363 </i>
   <varray name="rec_basis" >
    <v>      -0.04571498       0.04571498       0.04571498 </v>
    <v>       0.04571498      -0.04571498       0.04571498 </v>
    <v>       0.04571498       0.04571498      -0.04571498 </v>
   </varray>
  </crystal>
  <varray name="positions" >
   <v>       0.98791956       0.99430534       0.00347061 </v>
   <v>       0.24590983       0.00689883       0.00060984 </v>
   <v>       0.49674915       0.99790269       0.00993260 </v>
   <v>       0.74526548       0.00209322       0.99616049 </v>
   <v>       0.00225869       0.24444357       0.01161368 </v>
   <v>       0.25461466       0.23916984       0.00247770 </v>
   <v>       0.49476255       0.25800343       0.00204560 </v>
   <v>       0.74418773       0.23724277       0.00694964 </v>
   <v>       0.01052961       0.50085668       0.99604345 </v>
   <v>       0.26215173       0.49481137       0.00439112 </v>
   <v>       0.50119906       0.50901075       0.00655798 </v>
   <v>       0.74176712       0.49910632       0.00591516 </v>
   <v>       0.98965133       0.73666338       0.01384908 </v>
   <v>       0.23977518       0.74833303       0.01248390 </v>
   <v>       0.49169802       0.74909120       0.01155597 </v>
   <v>       0.74411141       0.75723768       0.00107371 </v>
   <v>       0.99559088       0.00698420       0.25048327 </v>
   <v>       0.24558005       0.00218791       0.24610735 </v>
   <v>       0.50178523       0.00256819       0.24868981 </v>
   <v>       0.73927070       0.01054248       0.25544748 </v>
   <v>       0.01075884       0.24802724       0.24486675 </v>
   <v>       0.24858425       0.23475105       0.26796940 </v>
   <v>       0.49556569       0.25317015       0.24216166 </v>
   <v>       0.76476217       0.24422366       0.24073105 </v>
   <v>       0.00723554       0.49340070       0.24386490 </v>
   <v>       0.24885828       0.50354324       0.25471947 </v>
   <v>       0.49621252       0.49898429       0.25138878 </v>
   <v>       0.75606355       0.49620021       0.24907613 </v>
   <v>       0.99597626       0.74875653       0.25917242 </v>
   <v>       0.24893718       0.74222358       0.26188875 </v>
   <v>       0.49105119       0.75385867       0.25478949 </v>
   <v>       0.74059661       0.75105927       0.26160632 </v>
   <v>       0.00884868       0.99702003       0.49673068 </v>
   <v>       0.24384770       0.99188115       0.50263912 </v>
   <v>       0.50622808       0.99952431       0.50534068 </v>
   <v>       0.74736591       0.00089101       0.50069985 </v>
   <v>       0.99757646       0.24601218       0.50144978 </v>
   <v>       0.25085772       0.26138524       0.49368252 </v>
   <v>       0.49722952       0.25355361       0.49181130 </v>
   <v>       0.75428081       0.26641423       0.49737352 </v>
   <v>       0.00651643       0.49973506       0.49603695 </v>
   <v>       0.25869666       0.49841011       0.50448905 </v>
   <v>       0.50095326       0.50534513       0.48778041 </v>
   <v>       0.75817085       0.50380259       0.50497146 </v>
   <v>       0.01507365       0.75629247       0.49415098 </v>
   <v>       0.24750396       0.73845562       0.50019401 </v>
   <v>       0.49959565       0.74865750       0.49292728 </v>
   <v>       0.74512245       0.75585329       0.50482686 </v>
   <v>       0.99254589       0.00731705       0.74856211 </v>
   <v>       0.25238568       0.99919716       0.75734610 </v>
   <v>       0.49379658       0.01407984       0.74551054 </v>
   <v>       0.75093289       0.00410817       0.75344192 </v>
   <v>       0.00647592       0.24347704       0.74276306 </v>
   <v>       0.27046895       0.25242485       0.73763434 </v>
   <v>       0.49769318       0.25527989       0.74816179 </v>
   <v>       0.75336133       0.25085008       0.75383315 </v>
   <v>       0.00542117       0.49108887       0.75072215 </v>
   <v>       0.26515667       0.49412055       0.74669139 </v>
   <v>       0.49499228       0.49868750       0.74829165 </v>
   <v>       0.74356784       0.50187296       0.74859874 </v>
   <v>       0.00633243       0.74981587       0.74647702 </v>
   <v>       0.24956131       0.74438788       0.75196009 </v>
   <v>       0.49165366       0.75410684       0.75276176 </v>
   <v>       0.74137279       0.74890433       0.75271297 </v>
   <v>       0.05569713       0.06571840       0.05861084 </v>
   <v>       0.30575519       0.06657220       0.05612791 </v>
   <v>       0.55992206       0.07153202       0.06236380 </v>
   <v>       0.81097163       0.06026597       0.05674982 </v>
   <v>       0.06102136       0.32529373       0.05600611 </v>
   <v>       0.29800968       0.32024086       0.07030401 </v>
   <v>       0.57497955       0.31831986       0.04431940 </v>
   <v>       0.81580924       0.30559618       0.06268151 </v>
   <v>       0.06017515       0.56211476       0.05703128 </v>
   <v>       0.31513536       0.56683662       0.05876255 </v>
   <v>       0.56264739       0.56128763       0.06430069 </v>
   <v>       0.81045127       0.58147549       0.05946643 </v>
   <v>       0.06828507       0.80592115       0.05012080 </v>
   <v>       0.30772716       0.81404322       0.06496548 </v>
   <v>       0.55740883       0.80350588       0.07965117 </v>
   <v>       0.80703402       0.82449703       0.05009299 </v>
   <v>       0.06378442       0.04855885       0.32084974 </v>
   <v>       0.29708970       0.06593306       0.31701413 </v>
   <v>       0.56051630       0.06569002       0.31043850 </v>
   <v>       0.80860763       0.06494947       0.30904387 </v>
   <v>       0.05368897       0.30882344       0.31788769 </v>
   <v>       0.30420781       0.33459915       0.30974053 </v>
   <v>       0.57777858       0.31654664       0.29457385 </v>
   <v>       0.80778911       0.31637372       0.30746984 </v>
   <v>       0.05365760       0.56999289       0.30915983 </v>
   <v>       0.30264363       0.56181036       0.31860501 </v>
   <v>       0.56355434       0.57023379       0.31762913 </v>
   <v>       0.81717536       0.56607438       0.31367988 </v>
   <v>       0.05908934       0.81704654       0.31003077 </v>
   <v>       0.30738691       0.81655058       0.31828498 </v>
   <v>       0.56086418       0.81772083       0.30879569 </v>
   <v>       0.81571269       0.81482817       0.31977663 </v>
   <v>       0.06595430       0.06396696       0.55887860 </v>
   <v>       0.31624655       0.07641506       0.56940893 </v>
   <v>       0.57110693       0.06163019       0.55566430 </v>
   <v>       0.80829822       0.06455170       0.56365830 </v>
   <v>       0.06171413       0.32653399       0.56197785 </v>
   <v>       0.31233233       0.30429166       0.56388676 </v>
   <v>       0.56635914       0.31284930       0.54787782 </v>
   <v>       0.82067758       0.30840362       0.56336067 </v>
   <v>       0.05174032       0.56291257       0.57153086 </v>
   <v>       0.31728999       0.56591916       0.56819781 </v>
   <v>       0.55456354       0.57104400       0.55472965 </v>
   <v>       0.80826568       0.58002629       0.55482499 </v>
   <v>       0.06683741       0.82007375       0.55596741 </v>
   <v>       0.30954814       0.81378245       0.56413768 </v>
   <v>       0.55646769       0.80279657       0.56313023 </v>
   <v>       0.79929843       0.80804009       0.58170290 </v>
   <v>       0.06247277       0.06357896       0.80637809 </v>
   <v>       0.31149952       0.06939320       0.81010456 </v>
   <v>       0.54890420       0.06642055       0.82152055 </v>
   <v>       0.80774191       0.07534469       0.80740318 </v>
   <v>       0.07280042       0.31341006       0.80684150 </v>
   <v>       0.31621172       0.30920599       0.82215782 </v>
   <v>       0.55523941       0.31357087       0.81727093 </v>
   <v>       0.80792973       0.32092215       0.81394315 </v>
   <v>       0.08140789       0.55715879       0.79234692 </v>
   <v>       0.31339855       0.56372644       0.81593447 </v>
   <v>       0.56970411       0.57684267       0.80292224 </v>
   <v>       0.80947415       0.56250450       0.81385829 </v>
   <v>       0.06018300       0.82373347       0.80639947 </v>
   <v>       0.31358074       0.81575904       0.80649562 </v>
   <v>       0.55418004       0.81860741       0.81675710 </v>
   <v>       0.81516900       0.81143377       0.80388363 </v>
  </varray>
 </structure>
</modeling>
