potpaw_PBE@./ARUN.APL1ZEROSTATE         
           1
     0.000000   10.937334   10.937334
    10.937334    0.000000   10.937334
    10.937334   10.937334    0.000000
   Si
 128
Direct configuration=     1
   0.98791956  0.99430534  0.00347061
   0.24590983  0.00689883  0.00060984
   0.49674915  0.99790269  0.00993260
   0.74526548  0.00209322  0.99616049
   0.00225869  0.24444357  0.01161368
   0.25461466  0.23916984  0.00247770
   0.49476255  0.25800343  0.00204560
   0.74418773  0.23724277  0.00694964
   0.01052961  0.50085668  0.99604345
   0.26215173  0.49481137  0.00439112
   0.50119906  0.50901075  0.00655798
   0.74176712  0.49910632  0.00591516
   0.98965133  0.73666338  0.01384908
   0.23977518  0.74833303  0.01248390
   0.49169802  0.74909120  0.01155597
   0.74411141  0.75723768  0.00107371
   0.99559088  0.00698420  0.25048327
   0.24558005  0.00218791  0.24610735
   0.50178523  0.00256819  0.24868981
   0.73927070  0.01054248  0.25544748
   0.01075884  0.24802724  0.24486675
   0.24858425  0.23475105  0.26796940
   0.49556569  0.25317015  0.24216166
   0.76476217  0.24422366  0.24073105
   0.00723554  0.49340070  0.24386490
   0.24885828  0.50354324  0.25471947
   0.49621252  0.49898429  0.25138878
   0.75606355  0.49620021  0.24907613
   0.99597626  0.74875653  0.25917242
   0.24893718  0.74222358  0.26188875
   0.49105119  0.75385867  0.25478949
   0.74059661  0.75105927  0.26160632
   0.00884868  0.99702003  0.49673068
   0.24384770  0.99188115  0.50263912
   0.50622808  0.99952431  0.50534068
   0.74736591  0.00089101  0.50069985
   0.99757646  0.24601218  0.50144978
   0.25085772  0.26138524  0.49368252
   0.49722952  0.25355361  0.49181130
   0.75428081  0.26641423  0.49737352
   0.00651643  0.49973506  0.49603695
   0.25869666  0.49841011  0.50448905
   0.50095326  0.50534513  0.48778041
   0.75817085  0.50380259  0.50497146
   0.01507365  0.75629247  0.49415098
   0.24750396  0.73845562  0.50019401
   0.49959565  0.74865750  0.49292728
   0.74512245  0.75585329  0.50482686
   0.99254589  0.00731705  0.74856211
   0.25238568  0.99919716  0.75734610
   0.49379658  0.01407984  0.74551054
   0.75093289  0.00410817  0.75344192
   0.00647592  0.24347704  0.74276306
   0.27046895  0.25242485  0.73763434
   0.49769318  0.25527989  0.74816179
   0.75336133  0.25085008  0.75383315
   0.00542117  0.49108887  0.75072215
   0.26515667  0.49412055  0.74669139
   0.49499228  0.49868750  0.74829165
   0.74356784  0.50187296  0.74859874
   0.00633243  0.74981587  0.74647702
   0.24956131  0.74438788  0.75196009
   0.49165366  0.75410684  0.75276176
   0.74137279  0.74890433  0.75271297
   0.05569713  0.06571840  0.05861084
   0.30575519  0.06657220  0.05612791
   0.55992206  0.07153202  0.06236380
   0.81097163  0.06026597  0.05674982
   0.06102136  0.32529373  0.05600611
   0.29800968  0.32024086  0.07030401
   0.57497955  0.31831986  0.04431940
   0.81580924  0.30559618  0.06268151
   0.06017515  0.56211476  0.05703128
   0.31513536  0.56683662  0.05876255
   0.56264739  0.56128763  0.06430069
   0.81045127  0.58147549  0.05946643
   0.06828507  0.80592115  0.05012080
   0.30772716  0.81404322  0.06496548
   0.55740883  0.80350588  0.07965117
   0.80703402  0.82449703  0.05009299
   0.06378442  0.04855885  0.32084974
   0.29708970  0.06593306  0.31701413
   0.56051630  0.06569002  0.31043850
   0.80860763  0.06494947  0.30904387
   0.05368897  0.30882344  0.31788769
   0.30420781  0.33459915  0.30974053
   0.57777858  0.31654664  0.29457385
   0.80778911  0.31637372  0.30746984
   0.05365760  0.56999289  0.30915983
   0.30264363  0.56181036  0.31860501
   0.56355434  0.57023379  0.31762913
   0.81717536  0.56607438  0.31367988
   0.05908934  0.81704654  0.31003077
   0.30738691  0.81655058  0.31828498
   0.56086418  0.81772083  0.30879569
   0.81571269  0.81482817  0.31977663
   0.06595430  0.06396696  0.55887860
   0.31624655  0.07641506  0.56940893
   0.57110693  0.06163019  0.55566430
   0.80829822  0.06455170  0.56365830
   0.06171413  0.32653399  0.56197785
   0.31233233  0.30429166  0.56388676
   0.56635914  0.31284930  0.54787782
   0.82067758  0.30840362  0.56336067
   0.05174032  0.56291257  0.57153086
   0.31728999  0.56591916  0.56819781
   0.55456354  0.57104400  0.55472965
   0.80826568  0.58002629  0.55482499
   0.06683741  0.82007375  0.55596741
   0.30954814  0.81378245  0.56413768
   0.55646769  0.80279657  0.56313023
   0.79929843  0.80804009  0.58170290
   0.06247277  0.06357896  0.80637809
   0.31149952  0.06939320  0.81010456
   0.54890420  0.06642055  0.82152055
   0.80774191  0.07534469  0.80740318
   0.07280042  0.31341006  0.80684150
   0.31621172  0.30920599  0.82215782
   0.55523941  0.31357087  0.81727093
   0.80792973  0.32092215  0.81394315
   0.08140789  0.55715879  0.79234692
   0.31339855  0.56372644  0.81593447
   0.56970411  0.57684267  0.80292224
   0.80947415  0.56250450  0.81385829
   0.06018300  0.82373347  0.80639947
   0.31358074  0.81575904  0.80649562
   0.55418004  0.81860741  0.81675710
   0.81516900  0.81143377  0.80388363
