 128 128   0   0
  0.2044346E+02  0.1546773E-08  0.1546773E-08  0.1546773E-08  0.5000000E-15
  1.000000000000000E-004
  CAR 
 potpaw_PBE@./ARUN.APL1ZEROSTATE         
      9.32873008     -7.05659739  301      6.05849181      1.00000000
     -7.057  0.0000E+00  0.0000E+00
     -7.002  0.0000E+00  0.0000E+00
     -6.947  0.0000E+00  0.0000E+00
     -6.893  0.0000E+00  0.0000E+00
     -6.838  0.0000E+00  0.0000E+00
     -6.784  0.0000E+00  0.0000E+00
     -6.729  0.0000E+00  0.0000E+00
     -6.674  0.0000E+00  0.0000E+00
     -6.620  0.0000E+00  0.0000E+00
     -6.565  0.0000E+00  0.0000E+00
     -6.510  0.0000E+00  0.0000E+00
     -6.456  0.0000E+00  0.0000E+00
     -6.401  0.0000E+00  0.0000E+00
     -6.347  0.2028E-05  0.1108E-06
     -6.292  0.4566E+01  0.2494E+00
     -6.237  0.1138E-01  0.2500E+00
     -6.183  0.3562E+01  0.4445E+00
     -6.128  0.1501E+02  0.1264E+01
     -6.073  0.2515E+02  0.2638E+01
     -6.019  0.1643E+02  0.3535E+01
     -5.964  0.3938E+01  0.3750E+01
     -5.910  0.2828E-03  0.3750E+01
     -5.855  0.1335E+02  0.4479E+01
     -5.800  0.4868E+00  0.4506E+01
     -5.746  0.3882E+02  0.6626E+01
     -5.691  0.1771E+02  0.7593E+01
     -5.637  0.2638E+02  0.9034E+01
     -5.582  0.2335E+02  0.1031E+02
     -5.527  0.2713E+02  0.1179E+02
     -5.473  0.2414E+02  0.1311E+02
     -5.418  0.2713E+02  0.1459E+02
     -5.363  0.2916E+01  0.1475E+02
     -5.309  0.4635E+01  0.1500E+02
     -5.254  0.1835E+02  0.1601E+02
     -5.200  0.1819E+02  0.1700E+02
     -5.145  0.2210E+02  0.1821E+02
     -5.090  0.4253E+02  0.2053E+02
     -5.036  0.4664E+02  0.2308E+02
     -4.981  0.4562E+02  0.2557E+02
     -4.927  0.2817E+02  0.2711E+02
     -4.872  0.1963E+02  0.2818E+02
     -4.817  0.2454E+02  0.2952E+02
     -4.763  0.1712E+02  0.3045E+02
     -4.708  0.5102E+02  0.3324E+02
     -4.653  0.3581E+02  0.3520E+02
     -4.599  0.4138E+02  0.3746E+02
     -4.544  0.3109E+02  0.3916E+02
     -4.490  0.1878E+02  0.4018E+02
     -4.435  0.3435E+02  0.4206E+02
     -4.380  0.1865E+02  0.4308E+02
     -4.326  0.3588E+02  0.4504E+02
     -4.271  0.1931E+02  0.4609E+02
     -4.216  0.5466E+02  0.4908E+02
     -4.162  0.6546E+02  0.5265E+02
     -4.107  0.5029E+02  0.5540E+02
     -4.053  0.7279E+02  0.5937E+02
     -3.998  0.4232E+02  0.6168E+02
     -3.943  0.4318E+02  0.6404E+02
     -3.889  0.5122E+02  0.6684E+02
     -3.834  0.5373E+02  0.6977E+02
     -3.780  0.5401E+02  0.7272E+02
     -3.725  0.5132E+02  0.7553E+02
     -3.670  0.2271E+02  0.7677E+02
     -3.616  0.3070E+02  0.7844E+02
     -3.561  0.4069E+02  0.8067E+02
     -3.506  0.4831E+02  0.8331E+02
     -3.452  0.5561E+02  0.8634E+02
     -3.397  0.4719E+02  0.8892E+02
     -3.343  0.6111E+02  0.9226E+02
     -3.288  0.4399E+02  0.9466E+02
     -3.233  0.3418E+02  0.9653E+02
     -3.179  0.2997E+02  0.9816E+02
     -3.124  0.4150E+02  0.1004E+03
     -3.070  0.4810E+02  0.1031E+03
     -3.015  0.3998E+02  0.1052E+03
     -2.960  0.4831E+02  0.1079E+03
     -2.906  0.4225E+02  0.1102E+03
     -2.851  0.1968E+02  0.1113E+03
     -2.796  0.3571E+02  0.1132E+03
     -2.742  0.4089E+02  0.1154E+03
     -2.687  0.3118E+02  0.1171E+03
     -2.633  0.3086E+02  0.1188E+03
     -2.578  0.3961E+02  0.1210E+03
     -2.523  0.2231E+02  0.1222E+03
     -2.469  0.1284E+01  0.1223E+03
     -2.414  0.1256E+02  0.1230E+03
     -2.359  0.2607E+01  0.1231E+03
     -2.305  0.6016E+01  0.1234E+03
     -2.250  0.2456E+02  0.1248E+03
     -2.196  0.2389E+02  0.1261E+03
     -2.141  0.1168E+02  0.1267E+03
     -2.086  0.2474E+02  0.1281E+03
     -2.032  0.2247E+02  0.1293E+03
     -1.977  0.2306E+02  0.1306E+03
     -1.923  0.1857E+02  0.1316E+03
     -1.868  0.1518E+02  0.1324E+03
     -1.813  0.6283E+01  0.1328E+03
     -1.759  0.8931E+01  0.1332E+03
     -1.704  0.3972E+01  0.1335E+03
     -1.649  0.1149E+02  0.1341E+03
     -1.595  0.2312E+02  0.1353E+03
     -1.540  0.4397E+02  0.1377E+03
     -1.486  0.3210E+02  0.1395E+03
     -1.431  0.4527E+02  0.1420E+03
     -1.376  0.4587E+02  0.1445E+03
     -1.322  0.4634E+02  0.1470E+03
     -1.267  0.5079E+02  0.1498E+03
     -1.212  0.6865E+02  0.1535E+03
     -1.158  0.4436E+02  0.1560E+03
     -1.103  0.7278E+02  0.1599E+03
     -1.049  0.6878E+02  0.1637E+03
     -0.994  0.5518E+02  0.1667E+03
     -0.939  0.7558E+02  0.1708E+03
     -0.885  0.5623E+02  0.1739E+03
     -0.830  0.4260E+02  0.1762E+03
     -0.776  0.6249E+02  0.1796E+03
     -0.721  0.4871E+02  0.1823E+03
     -0.666  0.4075E+02  0.1845E+03
     -0.612  0.3591E+02  0.1865E+03
     -0.557  0.3218E+02  0.1882E+03
     -0.502  0.2359E+02  0.1895E+03
     -0.448  0.2246E+02  0.1908E+03
     -0.393  0.3458E+02  0.1927E+03
     -0.339  0.4479E+02  0.1951E+03
     -0.284  0.5447E+02  0.1981E+03
     -0.229  0.4866E+02  0.2007E+03
     -0.175  0.4563E+02  0.2032E+03
     -0.120  0.3557E+02  0.2052E+03
     -0.066  0.3894E+02  0.2073E+03
     -0.011  0.6222E+02  0.2107E+03
      0.044  0.2405E+02  0.2120E+03
      0.098  0.1694E+02  0.2129E+03
      0.153  0.1847E+02  0.2139E+03
      0.208  0.1032E+02  0.2145E+03
      0.262  0.1834E+02  0.2155E+03
      0.317  0.2341E+02  0.2168E+03
      0.371  0.2034E+02  0.2179E+03
      0.426  0.1794E+02  0.2189E+03
      0.481  0.3064E+02  0.2205E+03
      0.535  0.2334E+02  0.2218E+03
      0.590  0.3007E+02  0.2235E+03
      0.645  0.1494E+02  0.2243E+03
      0.699  0.2330E+02  0.2256E+03
      0.754  0.1355E+02  0.2263E+03
      0.808  0.1755E+02  0.2272E+03
      0.863  0.9708E+01  0.2278E+03
      0.918  0.2070E+02  0.2289E+03
      0.972  0.2047E+02  0.2300E+03
      1.027  0.1858E+02  0.2310E+03
      1.081  0.2497E+02  0.2324E+03
      1.136  0.3474E+02  0.2343E+03
      1.191  0.2608E+02  0.2357E+03
      1.245  0.3107E+02  0.2374E+03
      1.300  0.2626E+02  0.2389E+03
      1.355  0.2706E+02  0.2403E+03
      1.409  0.3186E+02  0.2421E+03
      1.464  0.6892E+02  0.2458E+03
      1.518  0.7478E+02  0.2499E+03
      1.573  0.9168E+02  0.2549E+03
      1.628  0.9319E+02  0.2600E+03
      1.682  0.6683E+02  0.2637E+03
      1.737  0.5289E+02  0.2666E+03
      1.791  0.4883E+02  0.2692E+03
      1.846  0.3904E+02  0.2714E+03
      1.901  0.2978E+02  0.2730E+03
      1.955  0.2244E+02  0.2742E+03
      2.010  0.3360E+02  0.2760E+03
      2.065  0.5960E+02  0.2793E+03
      2.119  0.9117E+02  0.2843E+03
      2.174  0.1085E+03  0.2902E+03
      2.228  0.1091E+03  0.2962E+03
      2.283  0.1242E+03  0.3030E+03
      2.338  0.1104E+03  0.3090E+03
      2.392  0.9801E+02  0.3143E+03
      2.447  0.7559E+02  0.3185E+03
      2.502  0.5532E+02  0.3215E+03
      2.556  0.3566E+02  0.3234E+03
      2.611  0.4533E+02  0.3259E+03
      2.665  0.5311E+02  0.3288E+03
      2.720  0.8051E+02  0.3332E+03
      2.775  0.8700E+02  0.3380E+03
      2.829  0.1040E+03  0.3436E+03
      2.884  0.9749E+02  0.3490E+03
      2.938  0.9292E+02  0.3540E+03
      2.993  0.9359E+02  0.3592E+03
      3.048  0.8923E+02  0.3640E+03
      3.102  0.6831E+02  0.3678E+03
      3.157  0.8581E+02  0.3724E+03
      3.212  0.8241E+02  0.3769E+03
      3.266  0.8592E+02  0.3816E+03
      3.321  0.1052E+03  0.3874E+03
      3.375  0.9221E+02  0.3924E+03
      3.430  0.9582E+02  0.3977E+03
      3.485  0.7057E+02  0.4015E+03
      3.539  0.9055E+02  0.4065E+03
      3.594  0.8012E+02  0.4108E+03
      3.648  0.7298E+02  0.4148E+03
      3.703  0.8754E+02  0.4196E+03
      3.758  0.8854E+02  0.4244E+03
      3.812  0.7148E+02  0.4283E+03
      3.867  0.6930E+02  0.4321E+03
      3.922  0.8132E+02  0.4366E+03
      3.976  0.7189E+02  0.4405E+03
      4.031  0.6960E+02  0.4443E+03
      4.085  0.7078E+02  0.4482E+03
      4.140  0.7599E+02  0.4523E+03
      4.195  0.6496E+02  0.4559E+03
      4.249  0.8036E+02  0.4602E+03
      4.304  0.6680E+02  0.4639E+03
      4.359  0.7976E+02  0.4682E+03
      4.413  0.5059E+02  0.4710E+03
      4.468  0.6531E+02  0.4746E+03
      4.522  0.6524E+02  0.4781E+03
      4.577  0.5090E+02  0.4809E+03
      4.632  0.6742E+02  0.4846E+03
      4.686  0.4575E+02  0.4871E+03
      4.741  0.3937E+02  0.4893E+03
      4.795  0.3347E+02  0.4911E+03
      4.850  0.3483E+02  0.4930E+03
      4.905  0.2945E+02  0.4946E+03
      4.959  0.3411E+02  0.4965E+03
      5.014  0.2534E+02  0.4978E+03
      5.069  0.4141E+02  0.5001E+03
      5.123  0.2948E+02  0.5017E+03
      5.178  0.1659E+02  0.5026E+03
      5.232  0.1985E+02  0.5037E+03
      5.287  0.1891E+02  0.5047E+03
      5.342  0.1667E+02  0.5056E+03
      5.396  0.1809E+02  0.5066E+03
      5.451  0.8388E+01  0.5071E+03
      5.505  0.2043E+02  0.5082E+03
      5.560  0.2745E+02  0.5097E+03
      5.615  0.5436E+01  0.5100E+03
      5.669  0.1350E+02  0.5107E+03
      5.724  0.1762E+00  0.5108E+03
      5.779  0.1547E+02  0.5116E+03
      5.833  0.2839E+01  0.5118E+03
      5.888  0.0000E+00  0.5118E+03
      5.942  0.1357E-04  0.5118E+03
      5.997  0.4574E+01  0.5120E+03
      6.052  0.3197E-02  0.5120E+03
      6.106  0.9642E+00  0.5121E+03
      6.161  0.1843E+02  0.5131E+03
      6.216  0.2196E+02  0.5143E+03
      6.270  0.6308E+01  0.5146E+03
      6.325  0.2756E+02  0.5161E+03
      6.379  0.1867E+02  0.5171E+03
      6.434  0.2209E+02  0.5183E+03
      6.489  0.2561E+02  0.5197E+03
      6.543  0.1987E+02  0.5208E+03
      6.598  0.1234E+02  0.5215E+03
      6.652  0.2521E+02  0.5229E+03
      6.707  0.1988E+02  0.5240E+03
      6.762  0.3626E+02  0.5259E+03
      6.816  0.3158E+02  0.5277E+03
      6.871  0.2910E+02  0.5293E+03
      6.926  0.3925E+02  0.5314E+03
      6.980  0.4476E+02  0.5338E+03
      7.035  0.4312E+02  0.5362E+03
      7.089  0.3477E+02  0.5381E+03
      7.144  0.2350E+02  0.5394E+03
      7.199  0.4225E+02  0.5417E+03
      7.253  0.4665E+02  0.5442E+03
      7.308  0.5477E+02  0.5472E+03
      7.362  0.8178E+02  0.5517E+03
      7.417  0.8939E+02  0.5566E+03
      7.472  0.8298E+02  0.5611E+03
      7.526  0.7827E+02  0.5654E+03
      7.581  0.9420E+02  0.5705E+03
      7.636  0.7769E+02  0.5748E+03
      7.690  0.8481E+02  0.5794E+03
      7.745  0.9680E+02  0.5847E+03
      7.799  0.9323E+02  0.5898E+03
      7.854  0.1013E+03  0.5953E+03
      7.909  0.9157E+02  0.6003E+03
      7.963  0.1018E+03  0.6059E+03
      8.018  0.7522E+02  0.6100E+03
      8.073  0.8440E+02  0.6146E+03
      8.127  0.8120E+02  0.6190E+03
      8.182  0.8255E+02  0.6235E+03
      8.236  0.8596E+02  0.6282E+03
      8.291  0.8341E+02  0.6328E+03
      8.346  0.8379E+02  0.6374E+03
      8.400  0.7195E+02  0.6413E+03
      8.455  0.3587E+02  0.6432E+03
      8.509  0.4252E+01  0.6435E+03
      8.564  0.3436E+01  0.6437E+03
      8.619  0.6057E+01  0.6440E+03
      8.673  0.0000E+00  0.6440E+03
      8.728  0.0000E+00  0.6440E+03
      8.783  0.0000E+00  0.6440E+03
      8.837  0.0000E+00  0.6440E+03
      8.892  0.0000E+00  0.6440E+03
      8.946  0.0000E+00  0.6440E+03
      9.001  0.0000E+00  0.6440E+03
      9.056  0.0000E+00  0.6440E+03
      9.110  0.0000E+00  0.6440E+03
      9.165  0.0000E+00  0.6440E+03
      9.219  0.0000E+00  0.6440E+03
      9.274  0.0000E+00  0.6440E+03
      9.329  0.0000E+00  0.6440E+03
