 vasp.5.4.4.18Apr17-6-g9f103f2a35 (build Nov 08 2017 09:05:29) complex          
  
 executed on          Intel_17.33 date 2020.07.18  22:36:32
 running on   32 total cores
 distrk:  each k-point on   32 cores,    1 groups
 distr:  one band on NCORES_PER_BAND=  16 cores,    2 groups


--------------------------------------------------------------------------------------------------------


 INCAR:
 POTCAR:   PAW_PBE Si 05Jan2001                   

 ----------------------------------------------------------------------------- 
|                                                                             |
|           W    W    AA    RRRRR   N    N  II  N    N   GGGG   !!!           |
|           W    W   A  A   R    R  NN   N  II  NN   N  G    G  !!!           |
|           W    W  A    A  R    R  N N  N  II  N N  N  G       !!!           |
|           W WW W  AAAAAA  RRRRR   N  N N  II  N  N N  G  GGG   !            |
|           WW  WW  A    A  R   R   N   NN  II  N   NN  G    G                |
|           W    W  A    A  R    R  N    N  II  N    N   GGGG   !!!           |
|                                                                             |
|      For optimal performance we recommend to set                            |
|        NCORE= 4 - approx SQRT( number of cores)                             |
|      NCORE specifies how many cores store one orbital (NPAR=cpu/NCORE).     |
|      This setting can  greatly improve the performance of VASP for DFT.     |
|      The default,   NCORE=1            might be grossly inefficient         |
|      on modern multi-core architectures or massively parallel machines.     |
|      Do your own testing !!!!                                               |
|      Unfortunately you need to use the default for GW and RPA calculations. |
|      (for HF NCORE is supported but not extensively tested yet)             |
|                                                                             |
 ----------------------------------------------------------------------------- 

 POTCAR:   PAW_PBE Si 05Jan2001                   
   VRHFIN =Si: s2p2                                                             
   LEXCH  = PE                                                                  
   EATOM  =   103.0669 eV,    7.5752 Ry                                         
                                                                                
   TITEL  = PAW_PBE Si 05Jan2001                                                
   LULTRA =        F    use ultrasoft PP ?                                      
   IUNSCR =        1    unscreen: 0-lin 1-nonlin 2-no                           
   RPACOR =    1.500    partial core radius                                     
   POMASS =   28.085; ZVAL   =    4.000    mass and valenz                      
   RCORE  =    1.900    outmost cutoff radius                                   
   RWIGS  =    2.480; RWIGS  =    1.312    wigner-seitz radius (au A)           
   ENMAX  =  245.345; ENMIN  =  184.009 eV                                      
   ICORE  =        2    local potential                                         
   LCOR   =        T    correct aug charges                                     
   LPAW   =        T    paw PP                                                  
   EAUG   =  322.069                                                            
   DEXC   =    -.007                                                            
   RMAX   =    2.944    core radius for proj-oper                               
   RAUG   =    1.300    factor for augmentation sphere                          
   RDEP   =    1.993    radius for radial grids                                 
   QCUT   =   -4.246; QGAM   =    8.493    optimization parameters              
                                                                                
   Description                                                                  
     l     E      TYP  RCUT    TYP  RCUT                                        
     0   .000     23  1.900                                                     
     0   .000     23  1.900                                                     
     1   .000     23  1.900                                                     
     1   .000     23  1.900                                                     
     2   .000      7  1.900                                                     
  local pseudopotential read in
  partial core-charges read in
  atomic valenz-charges read in
  non local Contribution for L=           0  read in
    real space projection operators read in
  non local Contribution for L=           0  read in
    real space projection operators read in
  non local Contribution for L=           1  read in
    real space projection operators read in
  non local Contribution for L=           1  read in
    real space projection operators read in
    PAW grid and wavefunctions read in
 
   number of l-projection  operators is LMAX  =           4
   number of lm-projection operators is LMMAX =           8
 

 ----------------------------------------------------------------------------- 
|                                                                             |
|  ADVICE TO THIS USER RUNNING 'VASP/VAMP'   (HEAR YOUR MASTER'S VOICE ...):  |
|                                                                             |
|      You have a (more or less) 'large supercell' and for larger cells       |
|      it might be more efficient to use real space projection operators      |
|      So try LREAL= Auto  in the INCAR   file.                               |
|      Mind: If you want to do a very accurate calculations keep the          |
|      reciprocal projection scheme          (i.e. LREAL=.FALSE.)             |
|                                                                             |
 ----------------------------------------------------------------------------- 

 PAW_PBE Si 05Jan2001                   :
 energy of atom  1       EATOM= -103.0669
 kinetic energy error for atom=    0.0006 (will be added to EATOM!!)
 
 
 POSCAR: kk                                      
  positions in direct lattice
  No initial velocities read in
 exchange correlation table for  LEXCH =        8
   RHO(1)=    0.500       N(1)  =     2000
   RHO(2)=  100.500       N(2)  =     4000
 


--------------------------------------------------------------------------------------------------------


 ion  position               nearest neighbor table
   1  0.995  0.004  0.013-  68 2.31  65 2.35  77 2.44 113 2.50
   2  0.256  0.994  0.986- 114 2.23  65 2.34  78 2.50  66 2.64
   3  0.497  0.998  0.995-  66 2.23 115 2.34  79 2.44  67 2.47
   4  0.763  0.995  0.986- 116 2.21  80 2.31  68 2.35  67 2.61
   5  0.993  0.255  0.989-  72 2.24 117 2.26  65 2.41  69 2.65
   6  0.255  0.253  0.989-  70 2.22 118 2.27  69 2.41  66 2.48
   7  0.500  0.257  0.990- 119 2.33  70 2.39  71 2.45  67 2.53
   8  0.742  0.250  0.005-  71 2.13  68 2.40  72 2.48 120 2.49
   9  0.996  0.509  0.985- 121 2.26  76 2.40  69 2.52  73 2.60
  10  0.251  0.506  0.996-  73 2.31 122 2.32  74 2.40  70 2.62
  11  0.502  0.509  0.004-  75 2.26  74 2.28 123 2.35  71 2.48
  12  0.755  0.498  0.996-  76 2.20  72 2.32 124 2.32  75 2.36
  13  0.011  0.747  0.985- 125 2.17  73 2.32  77 2.44  80 2.49
  14  0.245  0.751  0.992- 126 2.30  77 2.33  78 2.35  74 2.48
  15  0.499  0.744  1.000-  75 2.33 127 2.35  78 2.39  79 2.56
  16  0.744  0.752  0.012-  79 2.22  80 2.37  76 2.49 128 2.60
  17  0.988  0.999  0.262-  81 2.26  84 2.29  93 2.34  65 2.57
  18  0.243  0.002  0.249-  66 2.31  94 2.40  81 2.41  82 2.56
  19  0.493  0.996  0.264-  82 2.18  83 2.22  95 2.37  67 2.44
  20  0.749  0.991  0.255-  96 2.27  83 2.28  84 2.36  68 2.51
  21  0.012  0.242  0.254-  85 2.21  69 2.32  81 2.34  88 2.64
  22  0.245  0.256  0.241-  70 2.28  85 2.30  82 2.54  86 2.62
  23  0.499  0.235  0.254-  86 2.31  83 2.31  87 2.38  71 2.55
  24  0.756  0.239  0.255-  84 2.29  87 2.37  88 2.40  72 2.44
  25  0.003  0.502  0.245-  73 2.31  92 2.40  89 2.49  85 2.53
  26  0.259  0.500  0.259-  90 2.15  86 2.45  74 2.46  89 2.56
  27  0.504  0.495  0.251-  91 2.24  75 2.33  90 2.36  87 2.42
  28  0.755  0.506  0.243-  76 2.33  88 2.37  92 2.45  91 2.61
  29  0.994  0.742  0.248-  89 2.26  77 2.33  96 2.55  93 2.55
  30  0.257  0.754  0.245-  94 2.28  78 2.29  90 2.45  93 2.51
  31  0.494  0.741  0.262-  91 2.33  94 2.33  79 2.40  95 2.44
  32  0.749  0.745  0.256-  95 2.26  92 2.33  80 2.40  96 2.41
  33  0.993  0.013  0.502- 100 2.26  97 2.33  81 2.35 109 2.57
  34  0.249  0.991  0.513-  97 2.32 110 2.42  82 2.45  98 2.49
  35  0.497  0.988  0.493- 111 2.27  98 2.31  83 2.35  99 2.61
  36  0.743  0.002  0.494-  84 2.23  99 2.34 112 2.40 100 2.58
  37  0.998  0.248  0.498- 104 2.27  85 2.30  97 2.30 101 2.44
  38  0.247  0.253  0.507- 102 2.25  86 2.30 101 2.36  98 2.38
  39  0.494  0.247  0.513- 102 2.27  99 2.34 103 2.37  87 2.67
  40  0.740  0.258  0.496-  88 2.26 103 2.28 100 2.49 104 2.62
  41  0.000  0.508  0.490-  89 2.07 105 2.34 108 2.48 101 2.50
  42  0.239  0.507  0.507- 106 2.35 105 2.36 102 2.50  90 2.50
  43  0.492  0.499  0.508- 106 2.22 103 2.26  91 2.37 107 2.48
  44  0.741  0.492  0.505- 104 2.23  92 2.31 107 2.33 108 2.36
  45  0.998  0.751  0.493-  93 2.27 112 2.29 105 2.33 109 2.46
  46  0.251  0.746  0.503- 110 2.22  94 2.37 106 2.41 109 2.53
  47  0.486  0.762  0.488- 110 2.22  95 2.27 111 2.45 107 2.51
  48  0.748  0.740  0.511-  96 2.28 108 2.34 111 2.35 112 2.48
  49  0.991  0.016  0.748- 113 2.26 116 2.37  97 2.39 125 2.58
  50  0.248  0.994  0.747-  98 2.26 113 2.27 126 2.28 114 2.51
  51  0.499  0.003  0.751- 114 2.31 115 2.34  99 2.36 127 2.43
  52  0.743  0.997  0.756- 116 2.29 128 2.35 115 2.39 100 2.39
  53  0.996  0.254  0.751- 120 2.31 101 2.34 117 2.43 113 2.61
  54  0.237  0.256  0.750- 117 2.22 102 2.38 114 2.47 118 2.51
  55  0.507  0.241  0.751- 115 2.12 119 2.35 118 2.37 103 2.41
  56  0.759  0.256  0.740- 120 2.15 104 2.20 119 2.48 116 2.49
  57  0.001  0.500  0.751- 121 2.23 117 2.25 124 2.28 105 2.37
  58  0.247  0.498  0.766- 122 2.26 121 2.36 118 2.37 106 2.52
  59  0.512  0.490  0.753- 119 2.19 123 2.26 107 2.28 122 2.45
  60  0.753  0.506  0.747- 124 2.31 108 2.32 123 2.52 120 2.58
  61  0.996  0.748  0.752- 109 2.22 128 2.36 121 2.38 125 2.53
  62  0.245  0.760  0.742- 125 2.23 110 2.29 126 2.42 122 2.55
  63  0.502  0.754  0.739- 111 2.29 126 2.37 123 2.48 127 2.50
  64  0.753  0.745  0.750- 128 2.26 127 2.32 112 2.34 124 2.37
  65  0.073  0.066  0.059-   2 2.34   1 2.35   5 2.41  17 2.57
  66  0.321  0.057  0.067-   3 2.23  18 2.31   6 2.48   2 2.64
  67  0.557  0.057  0.071-  19 2.44   3 2.47   7 2.53   4 2.61
  68  0.814  0.060  0.056-   1 2.31   4 2.35   8 2.40  20 2.51
  69  0.065  0.311  0.071-  21 2.32   6 2.41   9 2.52   5 2.65
  70  0.313  0.299  0.061-   6 2.22  22 2.28   7 2.39  10 2.62
  71  0.573  0.314  0.054-   8 2.13   7 2.45  11 2.48  23 2.55
  72  0.816  0.314  0.062-   5 2.24  12 2.32  24 2.44   8 2.48
  73  0.068  0.564  0.063-  25 2.31  10 2.31  13 2.32   9 2.60
  74  0.323  0.556  0.064-  11 2.28  10 2.40  26 2.46  14 2.48
  75  0.568  0.560  0.066-  11 2.26  15 2.33  27 2.33  12 2.36
  76  0.807  0.556  0.059-  12 2.20  28 2.33   9 2.40  16 2.49
  77  0.061  0.811  0.064-  14 2.33  29 2.33  13 2.44   1 2.44
  78  0.311  0.797  0.066-  30 2.29  14 2.35  15 2.39   2 2.50
  79  0.568  0.806  0.073-  16 2.22  31 2.40   3 2.44  15 2.56
  80  0.815  0.813  0.067-   4 2.31  16 2.37  32 2.40  13 2.49
  81  0.052  0.058  0.317-  17 2.26  21 2.34  33 2.35  18 2.41
  82  0.320  0.056  0.319-  19 2.18  34 2.45  22 2.54  18 2.56
  83  0.568  0.052  0.307-  19 2.22  20 2.28  23 2.31  35 2.35
  84  0.807  0.058  0.318-  36 2.23  17 2.29  24 2.29  20 2.36
  85  0.064  0.302  0.316-  21 2.21  22 2.30  37 2.30  25 2.53
  86  0.317  0.306  0.325-  38 2.30  23 2.31  26 2.45  22 2.62
  87  0.570  0.304  0.302-  24 2.37  23 2.38  27 2.42  39 2.67
  88  0.803  0.319  0.317-  40 2.26  28 2.37  24 2.40  21 2.64
  89  0.056  0.565  0.326-  41 2.07  29 2.26  25 2.49  26 2.56
  90  0.317  0.560  0.310-  26 2.15  27 2.36  30 2.45  42 2.50
  91  0.549  0.557  0.321-  27 2.24  31 2.33  43 2.37  28 2.61
  92  0.814  0.560  0.323-  44 2.31  32 2.33  25 2.40  28 2.45
  93  0.058  0.814  0.313-  45 2.27  17 2.34  30 2.51  29 2.55
  94  0.310  0.812  0.315-  30 2.28  31 2.33  46 2.37  18 2.40
  95  0.569  0.810  0.310-  32 2.26  47 2.27  19 2.37  31 2.44
  96  0.794  0.813  0.332-  20 2.27  48 2.28  32 2.41  29 2.55
  97  0.066  0.066  0.560-  37 2.30  34 2.32  33 2.33  49 2.39
  98  0.317  0.065  0.569-  50 2.26  35 2.31  38 2.38  34 2.49
  99  0.558  0.063  0.564-  39 2.34  36 2.34  51 2.36  35 2.61
 100  0.815  0.062  0.567-  33 2.26  52 2.39  40 2.49  36 2.58
 101  0.061  0.310  0.566-  53 2.34  38 2.36  37 2.44  41 2.50
 102  0.314  0.310  0.562-  38 2.25  39 2.27  54 2.38  42 2.50
 103  0.560  0.320  0.562-  43 2.26  40 2.28  39 2.37  55 2.41
 104  0.819  0.317  0.566-  56 2.20  44 2.23  37 2.27  40 2.62
 105  0.052  0.567  0.564-  45 2.33  41 2.34  42 2.36  57 2.37
 106  0.316  0.555  0.567-  43 2.22  42 2.35  46 2.41  58 2.52
 107  0.557  0.565  0.573-  59 2.28  44 2.33  43 2.48  47 2.51
 108  0.805  0.555  0.565-  60 2.32  48 2.34  44 2.36  41 2.48
 109  0.051  0.810  0.575-  61 2.22  45 2.46  46 2.53  33 2.57
 110  0.312  0.800  0.563-  46 2.22  47 2.22  62 2.29  34 2.42
 111  0.563  0.809  0.558-  35 2.27  63 2.29  48 2.35  47 2.45
 112  0.817  0.813  0.564-  45 2.29  64 2.34  36 2.40  48 2.48
 113  0.069  0.048  0.816-  49 2.26  50 2.27   1 2.50  53 2.61
 114  0.316  0.061  0.810-   2 2.23  51 2.31  54 2.47  50 2.51
 115  0.554  0.073  0.811-  55 2.12   3 2.34  51 2.34  52 2.39
 116  0.805  0.060  0.812-   4 2.21  52 2.29  49 2.37  56 2.49
 117  0.061  0.322  0.810-  54 2.22  57 2.25   5 2.26  53 2.43
 118  0.319  0.311  0.810-   6 2.27  58 2.37  55 2.37  54 2.51
 119  0.563  0.317  0.805-  59 2.19   7 2.33  55 2.35  56 2.48
 120  0.814  0.302  0.808-  56 2.15  53 2.31   8 2.49  60 2.58
 121  0.062  0.559  0.807-  57 2.23   9 2.26  58 2.36  61 2.38
 122  0.318  0.559  0.813-  58 2.26  10 2.32  59 2.45  62 2.55
 123  0.555  0.559  0.819-  59 2.26  11 2.35  63 2.48  60 2.52
 124  0.820  0.557  0.812-  57 2.28  60 2.31  12 2.32  64 2.37
 125  0.069  0.812  0.813-  13 2.17  62 2.23  61 2.53  49 2.58
 126  0.315  0.814  0.811-  50 2.28  14 2.30  63 2.37  62 2.42
 127  0.570  0.810  0.814-  64 2.32  15 2.35  51 2.43  63 2.50
 128  0.809  0.811  0.806-  64 2.26  52 2.35  61 2.36  16 2.60
 
  LATTYP: Found a face centered cubic cell.
 ALAT       =    21.8746673814
  
  Lattice vectors:
  
 A1 = (   0.0000000000,  10.9373336907,  10.9373336907)
 A2 = (  10.9373336907,   0.0000000000,  10.9373336907)
 A3 = (  10.9373336907,  10.9373336907,   0.0000000000)


Analysis of symmetry for initial positions (statically):
=====================================================================
 Subroutine PRICEL returns:
 Original cell was already a primitive cell.
 

 Routine SETGRP: Setting up the symmetry group for a 
 face centered cubic supercell.


 Subroutine GETGRP returns: Found  1 space group operations
 (whereof  1 operations were pure point group operations)
 out of a pool of 48 trial point group operations.


The static configuration has the point symmetry C_1 .


Analysis of symmetry for dynamics (positions and initial velocities):
=====================================================================
 Subroutine PRICEL returns:
 Original cell was already a primitive cell.
 

 Routine SETGRP: Setting up the symmetry group for a 
 face centered cubic supercell.


 Subroutine GETGRP returns: Found  1 space group operations
 (whereof  1 operations were pure point group operations)
 out of a pool of 48 trial point group operations.


The dynamic configuration has the point symmetry C_1 .


 Subroutine INISYM returns: Found  1 space group operations
 (whereof  1 operations are pure point group operations),
 and found     1 'primitive' translations

 
 
 KPOINTS: KPOINTS File, automatically generated by

Automatic generation of k-mesh.
Space group operators:
 irot       det(A)        alpha          n_x          n_y          n_z        tau_x        tau_y        tau_z
    1     1.000000     0.000001     1.000000     0.000000     0.000000     0.000000     0.000000     0.000000
 
 Subroutine IBZKPT returns following result:
 ===========================================
 
 Found      8 irreducible k-points:
 
 Following reciprocal coordinates:
            Coordinates               Weight
  0.000000  0.000000  0.000000      1.000000
  0.500000  0.000000  0.000000      1.000000
  0.000000  0.500000  0.000000      1.000000
  0.500000  0.500000  0.000000      1.000000
  0.000000  0.000000  0.500000      1.000000
  0.500000  0.000000  0.500000      1.000000
  0.000000  0.500000  0.500000      1.000000
  0.500000  0.500000  0.500000      1.000000
 
 Following cartesian coordinates:
            Coordinates               Weight
  0.000000  0.000000  0.000000      1.000000
 -0.022857  0.022857  0.022857      1.000000
  0.022857 -0.022857  0.022857      1.000000
  0.000000  0.000000  0.045715      1.000000
  0.022857  0.022857 -0.022857      1.000000
  0.000000  0.045715  0.000000      1.000000
  0.045715  0.000000  0.000000      1.000000
  0.022857  0.022857  0.022857      1.000000
 


--------------------------------------------------------------------------------------------------------




 Dimension of arrays:
   k-points           NKPTS =      8   k-points in BZ     NKDIM =      8   number of bands    NBANDS=    322
   number of dos      NEDOS =    301   number of ions     NIONS =    128
   non local maximal  LDIM  =      4   non local SUM 2l+1 LMDIM =      8
   total plane-waves  NPLWV = ******
   max r-space proj   IRMAX =      1   max aug-charges    IRDMAX= 176811
   dimension x,y,z NGX =   120 NGY =  120 NGZ =  120
   dimension x,y,z NGXF=   240 NGYF=  240 NGZF=  240
   support grid    NGXF=   480 NGYF=  480 NGZF=  480
   ions per type =             128
   NGX,Y,Z   is equivalent  to a cutoff of  12.90, 12.90, 12.90 a.u.
   NGXF,Y,Z  is equivalent  to a cutoff of  25.80, 25.80, 25.80 a.u.

 SYSTEM =  potpaw_PBE@./ARUN.APL1ZEROSTATE         
 POSCAR =  kk                                      

 Startparameter for this run:
   NWRITE =      2    write-flag & timer
   PREC   = accura    normal or accurate (medium, high low for compatibility)
   ISTART =      0    job   : 0-new  1-cont  2-samecut
   ICHARG =      2    charge: 1-file 2-atom 10-const
   ISPIN  =      1    spin polarized calculation?
   LNONCOLLINEAR =      F non collinear calculations
   LSORBIT =      F    spin-orbit coupling
   INIWAV =      1    electr: 0-lowe 1-rand  2-diag
   LASPH  =      F    aspherical Exc in radial PAW
   METAGGA=      F    non-selfconsistent MetaGGA calc.

 Electronic Relaxation 1
   ENCUT  =  500.0 eV  36.75 Ry    6.06 a.u.  28.20 28.20 28.20*2*pi/ulx,y,z
   ENINI  =  500.0     initial cutoff
   ENAUG  =  322.1 eV  augmentation charge cutoff
   NELM   =    120;   NELMIN=  4; NELMDL= -5     # of ELM steps 
   EDIFF  = 0.1E-07   stopping-criterion for ELM
   LREAL  =      F    real-space projection
   NLSPLINE    = F    spline interpolate recip. space projectors
   LCOMPAT=      F    compatible to vasp.4.4
   GGA_COMPAT  = T    GGA compatible to vasp.4.4-vasp.4.6
   LMAXPAW     = -100 max onsite density
   LMAXMIX     =    2 max onsite mixed and CHGCAR
   VOSKOWN=      0    Vosko Wilk Nusair interpolation
   ROPT   =    0.00000
 Ionic relaxation
   EDIFFG = 0.1E-06   stopping-criterion for IOM
   NSW    =      0    number of steps for IOM
   NBLOCK =      1;   KBLOCK =      1    inner block; outer block 
   IBRION =     -1    ionic relax: 0-MD 1-quasi-New 2-CG
   NFREE  =      0    steps in history (QN), initial steepest desc. (CG)
   ISIF   =      2    stress and relaxation
   IWAVPR =     10    prediction:  0-non 1-charg 2-wave 3-comb
   ISYM   =      2    0-nonsym 1-usesym 2-fastsym
   LCORR  =      T    Harris-Foulkes like correction to forces

   POTIM  = 0.5000    time-step for ionic-motion
   TEIN   =    0.0    initial temperature
   TEBEG  =    0.0;   TEEND  =   0.0 temperature during run
   SMASS  =  -3.00    Nose mass-parameter (am)
   estimated Nose-frequenzy (Omega)   =  0.10E-29 period in steps =****** mass=  -0.547E-26a.u.
   SCALEE = 1.0000    scale energy and forces
   NPACO  =    256;   APACO  = 16.0  distance and # of slots for P.C.
   PSTRESS=    0.0 pullay stress

  Mass of Ions in am
   POMASS =  28.09
  Ionic Valenz
   ZVAL   =   4.00
  Atomic Wigner-Seitz radii
   RWIGS  =  -1.00
  virtual crystal weights 
   VCA    =   1.00
   NELECT =     512.0000    total number of electrons
   NUPDOWN=      -1.0000    fix difference up-down

 DOS related values:
   EMIN   =  10.00;   EMAX   =-10.00  energy-range for DOS
   EFERMI =   0.00
   ISMEAR =     0;   SIGMA  =   0.01  broadening in eV -4-tet -1-fermi 0-gaus

 Electronic relaxation 2 (details)
   IALGO  =     38    algorithm
   LDIAG  =      T    sub-space diagonalisation (order eigenvalues)
   LSUBROT=      F    optimize rotation matrix (better conditioning)
   TURBO    =      0    0=normal 1=particle mesh
   IRESTART =      0    0=no restart 2=restart with 2 vectors
   NREBOOT  =      0    no. of reboots
   NMIN     =      0    reboot dimension
   EREF     =   0.00    reference energy to select bands
   IMIX   =      4    mixing-type and parameters
     AMIX     =   0.40;   BMIX     =  1.00
     AMIX_MAG =   1.60;   BMIX_MAG =  1.00
     AMIN     =   0.10
     WC   =   100.;   INIMIX=   1;  MIXPRE=   1;  MAXMIX= -45

 Intra band minimization:
   WEIMIN = 0.0000     energy-eigenvalue tresh-hold
   EBREAK =  0.78E-11  absolut break condition
   DEPER  =   0.30     relativ break condition  

   TIME   =   0.40     timestep for ELM

  volume/ion in A,a.u.               =      20.44       137.96
  Fermi-wavevector in a.u.,A,eV,Ry     =   0.950408  1.796010 12.289804  0.903275
  Thomas-Fermi vector in A             =   2.078782
 
 Write flags
   LWAVE        =      F    write WAVECAR
   LDOWNSAMPLE  =      F    k-point downsampling of WAVECAR
   LCHARG       =      F    write CHGCAR
   LVTOT        =      F    write LOCPOT, total local potential
   LVHAR        =      F    write LOCPOT, Hartree potential only
   LELF         =      F    write electronic localiz. function (ELF)
   LORBIT       =      0    0 simple, 1 ext, 2 COOP (PROOUT), +10 PAW based schemes


 Dipole corrections
   LMONO  =      F    monopole corrections only (constant potential shift)
   LDIPOL =      F    correct potential (dipole corrections)
   IDIPOL =      0    1-x, 2-y, 3-z, 4-all directions 
   EPSILON=  1.0000000 bulk dielectric constant

 Exchange correlation treatment:
   GGA     =    --    GGA type
   LEXCH   =     8    internal setting for exchange type
   VOSKOWN=      0    Vosko Wilk Nusair interpolation
   LHFCALC =     F    Hartree Fock is set to
   LHFONE  =     F    Hartree Fock one center treatment
   AEXX    =    0.0000 exact exchange contribution

 Linear response parameters
   LEPSILON=     F    determine dielectric tensor
   LRPA    =     F    only Hartree local field effects (RPA)
   LNABLA  =     F    use nabla operator in PAW spheres
   LVEL    =     F    velocity operator in full k-point grid
   LINTERFAST=   F  fast interpolation
   KINTER  =     0    interpolate to denser k-point grid
   CSHIFT  =0.1000    complex shift for real part using Kramers Kronig
   OMEGAMAX=  -1.0    maximum frequency
   DEG_THRESHOLD= 0.2000000E-02 threshold for treating states as degnerate
   RTIME   =   -0.100 relaxation time in fs
  (WPLASMAI=    0.000 imaginary part of plasma frequency in eV, 0.658/RTIME)
   DFIELD  = 0.0000000 0.0000000 0.0000000 field for delta impulse in time
 
 Orbital magnetization related:
   ORBITALMAG=     F  switch on orbital magnetization
   LCHIMAG   =     F  perturbation theory with respect to B field
   DQ        =  0.001000  dq finite difference perturbation B field
   LLRAUG    =     F  two centre corrections for induced B field



--------------------------------------------------------------------------------------------------------


 Static calculation
 charge density and potential will be updated during run
 non-spin polarized calculation
 Variant of blocked Davidson
 Davidson routine will perform the subspace rotation
 perform sub-space diagonalisation
    after iterative eigenvector-optimisation
 modified Broyden-mixing scheme, WC =      100.0
 initial mixing is a Kerker type mixing with AMIX =  0.4000 and BMIX =      1.0000
 Hartree-type preconditioning will be used
 using additional bands           66
 reciprocal scheme for non local part
 use partial core corrections
 calculate Harris-corrections to forces 
   (improved forces if not selfconsistent)
 use gradient corrections 
 use of overlap-Matrix (Vanderbilt PP)
 Gauss-broadening in eV      SIGMA  =   0.01


--------------------------------------------------------------------------------------------------------


  energy-cutoff  :      500.00
  volume of cell :     2616.76
      direct lattice vectors                 reciprocal lattice vectors
     0.000000000 10.937333691 10.937333691    -0.045714981  0.045714981  0.045714981
    10.937333691  0.000000000 10.937333691     0.045714981 -0.045714981  0.045714981
    10.937333691 10.937333691  0.000000000     0.045714981  0.045714981 -0.045714981

  length of vectors
    15.467725642 15.467725642 15.467725642     0.079180669  0.079180669  0.079180669


 
 k-points in units of 2pi/SCALE and weight: KPOINTS File, automatically generated by
   0.00000000  0.00000000  0.00000000       0.125
  -0.02285749  0.02285749  0.02285749       0.125
   0.02285749 -0.02285749  0.02285749       0.125
   0.00000000  0.00000000  0.04571498       0.125
   0.02285749  0.02285749 -0.02285749       0.125
   0.00000000  0.04571498  0.00000000       0.125
   0.04571498  0.00000000  0.00000000       0.125
   0.02285749  0.02285749  0.02285749       0.125
 
 k-points in reciprocal lattice and weights: KPOINTS File, automatically generated by
   0.00000000  0.00000000  0.00000000       0.125
   0.50000000  0.00000000  0.00000000       0.125
   0.00000000  0.50000000  0.00000000       0.125
   0.50000000  0.50000000  0.00000000       0.125
   0.00000000  0.00000000  0.50000000       0.125
   0.50000000  0.00000000  0.50000000       0.125
   0.00000000  0.50000000  0.50000000       0.125
   0.50000000  0.50000000  0.50000000       0.125
 
 position of ions in fractional coordinates (direct lattice) 
   0.99511343  0.00422860  0.01323923
   0.25612586  0.99409787  0.98644106
   0.49719198  0.99808627  0.99500824
   0.76277718  0.99546669  0.98626327
   0.99264599  0.25499961  0.98878103
   0.25456064  0.25286055  0.98925386
   0.50036358  0.25699642  0.98959211
   0.74211382  0.25000016  0.00467428
   0.99635094  0.50885787  0.98509895
   0.25125476  0.50554422  0.99644039
   0.50216584  0.50947159  0.00422286
   0.75480043  0.49796781  0.99601401
   0.01145527  0.74683788  0.98527464
   0.24523689  0.75056641  0.99183413
   0.49942017  0.74429322  0.99976864
   0.74371271  0.75193557  0.01178701
   0.98820113  0.99902534  0.26183930
   0.24324639  0.00154158  0.24901799
   0.49280653  0.99634070  0.26414729
   0.74873162  0.99113349  0.25510584
   0.01187680  0.24204289  0.25366909
   0.24501873  0.25634794  0.24077695
   0.49880446  0.23472405  0.25422013
   0.75632266  0.23892617  0.25514233
   0.00323342  0.50201344  0.24546720
   0.25857667  0.49963054  0.25876833
   0.50408923  0.49471034  0.25078369
   0.75505251  0.50596844  0.24278440
   0.99420648  0.74226409  0.24754400
   0.25722708  0.75370032  0.24516727
   0.49388626  0.74050172  0.26215001
   0.74854832  0.74455156  0.25601706
   0.99335871  0.01306633  0.50217347
   0.24938376  0.99134479  0.51260997
   0.49677672  0.98846803  0.49303962
   0.74277622  0.00209129  0.49385786
   0.99775189  0.24837074  0.49801810
   0.24737249  0.25314432  0.50689206
   0.49375304  0.24741360  0.51301285
   0.74029133  0.25831646  0.49638552
   0.00039277  0.50785538  0.48987287
   0.23867706  0.50701724  0.50742180
   0.49205583  0.49908152  0.50848551
   0.74086763  0.49150114  0.50516878
   0.99845703  0.75133436  0.49282304
   0.25099695  0.74572634  0.50256786
   0.48647608  0.76231378  0.48756256
   0.74804734  0.73958478  0.51135417
   0.99132562  0.01624340  0.74846142
   0.24832579  0.99414722  0.74671502
   0.49883647  0.00257380  0.75108991
   0.74256684  0.99712661  0.75568302
   0.99588461  0.25428418  0.75105855
   0.23685941  0.25630569  0.74953371
   0.50719322  0.24098235  0.75138062
   0.75937991  0.25550208  0.74043432
   0.00098058  0.49987438  0.75078236
   0.24683282  0.49784040  0.76627528
   0.51184906  0.48992039  0.75285216
   0.75334400  0.50574017  0.74746320
   0.99561939  0.74777956  0.75153907
   0.24528135  0.76019781  0.74244587
   0.50240342  0.75414936  0.73921060
   0.75325193  0.74469275  0.74972207
   0.07275229  0.06618784  0.05904162
   0.32115510  0.05696422  0.06727568
   0.55723155  0.05705510  0.07107660
   0.81414473  0.06019553  0.05611667
   0.06482137  0.31062884  0.07055281
   0.31256221  0.29866569  0.06088105
   0.57340983  0.31371481  0.05382096
   0.81627722  0.31413669  0.06219460
   0.06819968  0.56444429  0.06270502
   0.32267536  0.55553652  0.06436420
   0.56835520  0.55997203  0.06608199
   0.80743898  0.55643041  0.05921137
   0.06120603  0.81130917  0.06358303
   0.31055866  0.79659296  0.06571283
   0.56786053  0.80589088  0.07264698
   0.81495098  0.81338351  0.06653649
   0.05229398  0.05823948  0.31708035
   0.32043024  0.05649875  0.31881411
   0.56830582  0.05199188  0.30747975
   0.80683632  0.05756107  0.31765240
   0.06411233  0.30209291  0.31628875
   0.31733086  0.30577240  0.32503988
   0.56978845  0.30369909  0.30242685
   0.80286082  0.31900159  0.31738081
   0.05613381  0.56538506  0.32569129
   0.31726892  0.56011245  0.31006124
   0.54914958  0.55653201  0.32096263
   0.81366929  0.56006685  0.32330184
   0.05831850  0.81398166  0.31342669
   0.30952533  0.81176269  0.31499797
   0.56934870  0.80956005  0.30986651
   0.79409111  0.81259292  0.33191914
   0.06637886  0.06649340  0.55952614
   0.31680329  0.06466783  0.56894441
   0.55793389  0.06287726  0.56400670
   0.81459875  0.06203752  0.56654744
   0.06077235  0.31044446  0.56618812
   0.31440078  0.30961015  0.56164242
   0.55952464  0.32029423  0.56168507
   0.81919040  0.31693661  0.56598479
   0.05193321  0.56714296  0.56390062
   0.31598457  0.55500397  0.56694930
   0.55735034  0.56549377  0.57318444
   0.80505771  0.55450489  0.56484294
   0.05106632  0.80974526  0.57548955
   0.31211879  0.80036828  0.56258967
   0.56256466  0.80887027  0.55769304
   0.81733401  0.81284120  0.56436728
   0.06879030  0.04766945  0.81638944
   0.31627388  0.06114356  0.81042017
   0.55406151  0.07308051  0.81051942
   0.80469478  0.05975013  0.81227198
   0.06112139  0.32195653  0.81048232
   0.31943842  0.31128524  0.80977887
   0.56275906  0.31675840  0.80534659
   0.81391708  0.30238847  0.80837290
   0.06176666  0.55933870  0.80669251
   0.31776917  0.55867012  0.81261589
   0.55457182  0.55857286  0.81948980
   0.82011303  0.55682199  0.81200262
   0.06912425  0.81239641  0.81346571
   0.31468846  0.81391557  0.81053611
   0.56957604  0.81007985  0.81407190
   0.80875740  0.81117931  0.80622079
 
 position of ions in cartesian coordinates  (Angst):
   0.19105145 11.02868947 10.93013724
  21.66181525 13.59036904 13.67411413
  21.79913968 16.32069171 16.35435713
  21.67484187 19.12983908 19.23049995
  13.60364387 21.67152845 13.64591619
  13.58541977 13.60401421  5.54983479
  13.63435471 16.29614253  8.28349897
   2.78545924  8.16787059 10.85108161
  16.33990428 21.67177864 16.46297106
  16.42770689 13.64645826  8.27736296
   5.61844762  5.53854226 11.06461619
  16.34017769 19.14924178 13.70194426
  18.94469261 10.90156759  8.29370523
  19.05721606 13.53025845 10.89143290
  19.07538660 16.39712827 13.60290835
   8.35308874  8.26315256 16.35840442
  13.79049725 13.67210932 21.73495906
   2.74045363  5.38405982  2.67732774
  13.78637775  8.27905652 16.28730019
  13.63053532 10.97930520 19.02948522
   5.42176726  2.90436393  2.77720432
   5.43722080  5.31330945  5.48361466
   5.34774571  8.23608122  8.02284613
   5.40379210 11.06273018 10.88536861
   8.17544518  2.72012167  5.52605355
   8.29486146  5.65837493  8.29276525
   8.15371697  8.25629707 10.92420423
   8.18935963 10.91367518 13.79220688
  10.82586141 13.58143939 18.99235814
  10.92494814  5.49485455 11.05685031
  10.96633653  8.26902098 13.50091323
  10.94355288 10.98726684 16.33053160
   5.63534962 16.35713452 11.00760657
  16.44925502  8.33417961 13.57026214
  16.20374350 10.82595163 16.24461744
   5.42436141 13.52547969  8.14686458
   8.16350375 16.35973547 13.62925900
   8.31277152  8.24964310  5.47431938
   8.31703783 11.01133452  8.10638685
   8.25442742 13.52594738 10.92210667
  10.91248686  5.36219898  5.55887968
  11.09525832  8.16033225  8.15590739
  11.02009689 10.94325457 10.84039999
  10.90091149 13.62831604 13.47882843
  13.60776465 16.31062782 19.13805229
  13.65301015  8.24198974 10.90149516
  13.67031459 10.65338566 13.65843137
  13.68193669 13.77449455 16.27072887
   8.36383176 19.02863133 11.02011858
  19.04039121 10.88309337 13.58934190
   8.24307148 13.67086192  5.48409147
  19.17106381 16.38685864 19.02760783
  10.99576890 19.10690018 13.67351322
  11.00120111 10.78851063  5.39391122
  10.85380495 13.76544196  8.18304587
  10.89288875 16.40396873 11.10010293
  13.67885008  8.22228211  5.47801776
  13.82605502 11.08070133  8.14473942
  13.59261808 13.83245934 10.95668678
  13.70670343 16.41482907 13.77102370
  16.39854819 19.10925512 19.06813607
  16.43491535 10.80310216 10.99726105
  16.33337624 13.57994684 13.74333709
  16.34491349 16.43852808 16.38352074
   1.36967641  1.44147389  1.51963456
   1.35885327  4.24839713  4.13561723
   1.40141914  6.87201588  6.71865798
   1.27214530  9.51833931  9.56295118
   4.16911093  1.48063258  4.10642429
   3.93248269  4.08447353  6.68520347
   4.01986138  6.86023238  9.70277821
   4.11606089  9.60813939 12.36371419
   6.85934132  1.43174842  6.91943822
   6.78006108  4.23318087  9.60529643
   6.84736180  6.93905126 12.34089141
   6.73347955  9.47884401 14.91709463
   9.56898784  1.36485949  9.54298980
   9.43132611  4.11540678 12.10928666
   9.60886182  7.00544440 15.02517759
   9.62397868  9.64112257 17.80963771
   4.10499814  4.03997024  1.20894129
   4.10492200  6.99162884  4.12259814
   3.93166118  9.57875901  6.78440295
   4.10383492 12.29890838  9.45420270
   6.76344656  4.16057349  4.00530889
   6.89940440  7.02582312  6.81508831
   6.62940167  9.53970983  9.55362466
   6.96032672 12.25245654 12.27018355
   9.74599943  4.17614850  6.79775927
   9.51738001  6.86131926  9.59621276
   9.59745174  9.51670759 12.09320854
   9.66169820 12.43543264 15.02501060
  12.33084125  4.06590112  9.54063785
  12.32375731  6.83061972 12.26390132
  12.24354180  9.61627010 15.08158507
  12.51791034 12.31554987 17.57283937
   6.84698458  6.84573185  1.45326824
   6.93002844  9.68771816  4.17227692
   6.85643909 12.27103863  6.79001872
   6.87504351 15.10605675  9.58806342
   9.58802307  6.85727583  4.06012215
   9.52918008  9.58157673  6.82501578
   9.64650188 12.26304476  9.62287253
   9.65680598 15.15012321 12.42620019
  12.37060109  6.73558009  6.77104265
  12.27117731  9.65694244  9.52629231
  12.45410358 12.36503616 12.28092075
  12.24268074 14.98306060 14.86998984
  15.15077542  6.85285066  9.41498357
  14.90712596  9.56697831 12.16764230
  14.94655897 12.25263226 14.99984143
  15.06298872 15.11212802 17.82977027
   9.45050037  9.68150617  1.27375909
   9.53258337 12.32302883  4.12794053
   9.66422731 14.92487700  6.85926152
   9.53759688 17.68530504  9.45472246
  12.38586159  9.53302066  4.18985108
  12.26145228 12.35062626  6.89843514
  12.27283674 14.96342797  9.61957596
  12.14876777 17.74352684 12.20940627
  14.94073916  9.49862770  6.79323655
  14.99821270 12.36339867  9.58590901
  15.07233116 15.02857049 12.17483488
  14.97129151 17.85099350 15.05999784
  17.78259660  9.65318094  9.64148562
  17.76717011 12.30695653 12.34391888
  17.76388967 15.13341920 15.08975686
  17.69004458 17.66355538 17.71778835
 


--------------------------------------------------------------------------------------------------------


 k-point  1 :   0.0000 0.0000 0.0000  plane waves:   66299
 k-point  2 :   0.5000 0.0000 0.0000  plane waves:   66394
 k-point  3 :   0.0000 0.5000 0.0000  plane waves:   66394
 k-point  4 :   0.5000 0.5000 0.0000  plane waves:   66552
 k-point  5 :   0.0000 0.0000 0.5000  plane waves:   66394
 k-point  6 :   0.5000 0.0000 0.5000  plane waves:   66552
 k-point  7 :   0.0000 0.5000 0.5000  plane waves:   66552
 k-point  8 :   0.5000 0.5000 0.5000  plane waves:   66394

 maximum and minimum number of plane-waves per node :      4207     4110

 maximum number of plane-waves:     66552
 maximum index in each direction: 
   IXMAX=   28   IYMAX=   28   IZMAX=   28
   IXMIN=  -28   IYMIN=  -28   IZMIN=  -28


 parallel 3D FFT for wavefunctions:
    minimum data exchange during FFTs selected (reduces bandwidth)
 parallel 3D FFT for charge:
    minimum data exchange during FFTs selected (reduces bandwidth)


 total amount of memory used by VASP MPI-rank0   221701. kBytes
=======================================================================

   base      :      30000. kBytes
   nonl-proj :      10690. kBytes
   fftplans  :      66746. kBytes
   grid      :      26864. kBytes
   one-center:         24. kBytes
   wavefun   :      87377. kBytes
 
     INWAV:  cpu time    0.0001: real time    0.0003
 Broyden mixing: mesh for mixing (old mesh)
   NGX = 57   NGY = 57   NGZ = 57
  (NGX  =240   NGY  =240   NGZ  =240)
  gives a total of 185193 points

 initial charge density was supplied:
 charge density of overlapping atoms calculated
 number of electron     512.0000000 magnetization 
 keeping initial charge density in first step


--------------------------------------------------------------------------------------------------------


 Maximum index for augmentation-charges         5601 (set IRDMAX)


--------------------------------------------------------------------------------------------------------


 First call to EWALD:  gamma=   0.129
 Maximum number of real-space cells 3x 3x 3
 Maximum number of reciprocal cells 3x 3x 3

    FEWALD:  cpu time    0.0060: real time    0.0060


--------------------------------------- Iteration      1(   1)  ---------------------------------------


    POTLOK:  cpu time    0.4872: real time    0.4960
    SETDIJ:  cpu time    0.5106: real time    0.5108
     EDDAV:  cpu time   70.5937: real time   70.6170
       DOS:  cpu time    0.0029: real time    0.0029
    --------------------------------------------
      LOOP:  cpu time   71.5944: real time   71.6267

 eigenvalue-minimisations  :  5152
 total energy-change (2. order) : 0.1384225E+04  (-0.1908309E+05)
 number of electron     512.0000000 magnetization 
 augmentation part      512.0000000 magnetization 

 Free energy of the ion-electron system (eV)
  ---------------------------------------------------
  alpha Z        PSCENC =       210.77028614
  Ewald energy   TEWEN  =    -14469.52330898
  -Hartree energ DENC   =      -756.92033589
  -exchange      EXHF   =         0.00000000
  -V(xc)+E(xc)   XCENC  =     -1195.35603522
  PAW double counting   =      4221.13331941    -1969.18571412
  entropy T*S    EENTRO =        -0.00140526
  eigenvalues    EBANDS =      2150.82748417
  atomic energy  EATOM  =     13192.48085998
  Solvation  Ediel_sol  =         0.00000000
  ---------------------------------------------------
  free energy    TOTEN  =      1384.22515025 eV

  energy without entropy =     1384.22655551  energy(sigma->0) =     1384.22585288


--------------------------------------------------------------------------------------------------------




--------------------------------------- Iteration      1(   2)  ---------------------------------------


     EDDAV:  cpu time   80.2919: real time   80.3136
       DOS:  cpu time    0.0052: real time    0.0052
    --------------------------------------------
      LOOP:  cpu time   80.2972: real time   80.3188

 eigenvalue-minimisations  :  6104
 total energy-change (2. order) :-0.1919319E+04  (-0.1825463E+04)
 number of electron     512.0000000 magnetization 
 augmentation part      512.0000000 magnetization 

 Free energy of the ion-electron system (eV)
  ---------------------------------------------------
  alpha Z        PSCENC =       210.77028614
  Ewald energy   TEWEN  =    -14469.52330898
  -Hartree energ DENC   =      -756.92033589
  -exchange      EXHF   =         0.00000000
  -V(xc)+E(xc)   XCENC  =     -1195.35603522
  PAW double counting   =      4221.13331941    -1969.18571412
  entropy T*S    EENTRO =        -0.00007004
  eigenvalues    EBANDS =       231.50708446
  atomic energy  EATOM  =     13192.48085998
  Solvation  Ediel_sol  =         0.00000000
  ---------------------------------------------------
  free energy    TOTEN  =      -535.09391425 eV

  energy without entropy =     -535.09384421  energy(sigma->0) =     -535.09387923


--------------------------------------------------------------------------------------------------------




--------------------------------------- Iteration      1(   3)  ---------------------------------------


     EDDAV:  cpu time   82.3347: real time   82.3457
       DOS:  cpu time    0.0018: real time    0.0018
    --------------------------------------------
      LOOP:  cpu time   82.3365: real time   82.3475

 eigenvalue-minimisations  :  6296
 total energy-change (2. order) :-0.1500698E+03  (-0.1469230E+03)
 number of electron     512.0000000 magnetization 
 augmentation part      512.0000000 magnetization 

 Free energy of the ion-electron system (eV)
  ---------------------------------------------------
  alpha Z        PSCENC =       210.77028614
  Ewald energy   TEWEN  =    -14469.52330898
  -Hartree energ DENC   =      -756.92033589
  -exchange      EXHF   =         0.00000000
  -V(xc)+E(xc)   XCENC  =     -1195.35603522
  PAW double counting   =      4221.13331941    -1969.18571412
  entropy T*S    EENTRO =        -0.00000000
  eigenvalues    EBANDS =        81.43721277
  atomic energy  EATOM  =     13192.48085998
  Solvation  Ediel_sol  =         0.00000000
  ---------------------------------------------------
  free energy    TOTEN  =      -685.16371589 eV

  energy without entropy =     -685.16371589  energy(sigma->0) =     -685.16371589


--------------------------------------------------------------------------------------------------------




--------------------------------------- Iteration      1(   4)  ---------------------------------------


     EDDAV:  cpu time   81.1147: real time   81.1233
       DOS:  cpu time    0.0012: real time    0.0012
    --------------------------------------------
      LOOP:  cpu time   81.1160: real time   81.1245

 eigenvalue-minimisations  :  6176
 total energy-change (2. order) :-0.4277875E+01  (-0.4242614E+01)
 number of electron     512.0000000 magnetization 
 augmentation part      512.0000000 magnetization 

 Free energy of the ion-electron system (eV)
  ---------------------------------------------------
  alpha Z        PSCENC =       210.77028614
  Ewald energy   TEWEN  =    -14469.52330898
  -Hartree energ DENC   =      -756.92033589
  -exchange      EXHF   =         0.00000000
  -V(xc)+E(xc)   XCENC  =     -1195.35603522
  PAW double counting   =      4221.13331941    -1969.18571412
  entropy T*S    EENTRO =        -0.00000000
  eigenvalues    EBANDS =        77.15933819
  atomic energy  EATOM  =     13192.48085998
  Solvation  Ediel_sol  =         0.00000000
  ---------------------------------------------------
  free energy    TOTEN  =      -689.44159048 eV

  energy without entropy =     -689.44159048  energy(sigma->0) =     -689.44159048


--------------------------------------------------------------------------------------------------------




--------------------------------------- Iteration      1(   5)  ---------------------------------------


     EDDAV:  cpu time   82.4480: real time   82.4624
       DOS:  cpu time    0.0010: real time    0.0010
    CHARGE:  cpu time    3.2044: real time    3.2048
    MIXING:  cpu time    0.0282: real time    0.0282
    --------------------------------------------
      LOOP:  cpu time   85.6816: real time   85.6964

 eigenvalue-minimisations  :  6320
 total energy-change (2. order) :-0.1496378E+00  (-0.1492316E+00)
 number of electron     511.9999998 magnetization 
 augmentation part      -30.1913603 magnetization 

 Broyden mixing:
  rms(total) = 0.23992E+01    rms(broyden)= 0.23992E+01
  rms(prec ) = 0.29065E+01
  weight for this iteration     100.00

 Free energy of the ion-electron system (eV)
  ---------------------------------------------------
  alpha Z        PSCENC =       210.77028614
  Ewald energy   TEWEN  =    -14469.52330898
  -Hartree energ DENC   =      -756.92033589
  -exchange      EXHF   =         0.00000000
  -V(xc)+E(xc)   XCENC  =     -1195.35603522
  PAW double counting   =      4221.13331941    -1969.18571412
  entropy T*S    EENTRO =        -0.00000000
  eigenvalues    EBANDS =        77.00970039
  atomic energy  EATOM  =     13192.48085998
  Solvation  Ediel_sol  =         0.00000000
  ---------------------------------------------------
  free energy    TOTEN  =      -689.59122827 eV

  energy without entropy =     -689.59122827  energy(sigma->0) =     -689.59122827


--------------------------------------------------------------------------------------------------------




--------------------------------------- Iteration      1(   6)  ---------------------------------------


    POTLOK:  cpu time    0.4929: real time    0.4933
    SETDIJ:  cpu time    0.5085: real time    0.5086
     EDDAV:  cpu time   77.9581: real time   77.9696
       DOS:  cpu time    0.0022: real time    0.0021
    CHARGE:  cpu time    3.2105: real time    3.2108
    MIXING:  cpu time    0.0284: real time    0.0284
    --------------------------------------------
      LOOP:  cpu time   82.2006: real time   82.2127

 eigenvalue-minimisations  :  5904
 total energy-change (2. order) : 0.8501689E+01  (-0.5900341E+00)
 number of electron     511.9999998 magnetization 
 augmentation part      -29.8486919 magnetization 

 Broyden mixing:
  rms(total) = 0.14246E+01    rms(broyden)= 0.14246E+01
  rms(prec ) = 0.17165E+01
  weight for this iteration     100.00

 eigenvalues of (default mixing * dielectric matrix)
  average eigenvalue GAMMA=   2.4282
  2.4282

 Free energy of the ion-electron system (eV)
  ---------------------------------------------------
  alpha Z        PSCENC =       210.77028614
  Ewald energy   TEWEN  =    -14469.52330898
  -Hartree energ DENC   =      -851.94336328
  -exchange      EXHF   =         0.00000000
  -V(xc)+E(xc)   XCENC  =     -1180.72458064
  PAW double counting   =      4466.26838589    -2221.10582022
  entropy T*S    EENTRO =        -0.00000000
  eigenvalues    EBANDS =       172.68800177
  atomic energy  EATOM  =     13192.48085998
  Solvation  Ediel_sol  =         0.00000000
  ---------------------------------------------------
  free energy    TOTEN  =      -681.08953934 eV

  energy without entropy =     -681.08953934  energy(sigma->0) =     -681.08953934


--------------------------------------------------------------------------------------------------------




--------------------------------------- Iteration      1(   7)  ---------------------------------------


    POTLOK:  cpu time    0.4922: real time    0.4933
    SETDIJ:  cpu time    0.5132: real time    0.5133
     EDDAV:  cpu time   77.0864: real time   77.1058
       DOS:  cpu time    0.0021: real time    0.0021
    CHARGE:  cpu time    3.1517: real time    3.1518
    MIXING:  cpu time    0.0314: real time    0.0314
    --------------------------------------------
      LOOP:  cpu time   81.2769: real time   81.2977

 eigenvalue-minimisations  :  5800
 total energy-change (2. order) : 0.3548848E+01  (-0.1127534E+01)
 number of electron     511.9999998 magnetization 
 augmentation part      -29.4005243 magnetization 

 Broyden mixing:
  rms(total) = 0.15642E+00    rms(broyden)= 0.15641E+00
  rms(prec ) = 0.20173E+00
  weight for this iteration     100.00

 eigenvalues of (default mixing * dielectric matrix)
  average eigenvalue GAMMA=   2.1022
  2.1022  2.1022

 Free energy of the ion-electron system (eV)
  ---------------------------------------------------
  alpha Z        PSCENC =       210.77028614
  Ewald energy   TEWEN  =    -14469.52330898
  -Hartree energ DENC   =     -1001.93154129
  -exchange      EXHF   =         0.00000000
  -V(xc)+E(xc)   XCENC  =     -1156.85917987
  PAW double counting   =      4786.39576674    -2549.77156128
  entropy T*S    EENTRO =        -0.00000000
  eigenvalues    EBANDS =       310.89798700
  atomic energy  EATOM  =     13192.48085998
  Solvation  Ediel_sol  =         0.00000000
  ---------------------------------------------------
  free energy    TOTEN  =      -677.54069155 eV

  energy without entropy =     -677.54069155  energy(sigma->0) =     -677.54069155


--------------------------------------------------------------------------------------------------------




--------------------------------------- Iteration      1(   8)  ---------------------------------------


    POTLOK:  cpu time    0.4927: real time    0.4933
    SETDIJ:  cpu time    0.5114: real time    0.5114
     EDDAV:  cpu time   77.6749: real time   77.7008
       DOS:  cpu time    0.0019: real time    0.0019
    CHARGE:  cpu time    3.1187: real time    3.1190
    MIXING:  cpu time    0.0355: real time    0.0355
    --------------------------------------------
      LOOP:  cpu time   81.8351: real time   81.8619

 eigenvalue-minimisations  :  5880
 total energy-change (2. order) :-0.5606945E-01  (-0.1064644E+00)
 number of electron     511.9999998 magnetization 
 augmentation part      -29.4714832 magnetization 

 Broyden mixing:
  rms(total) = 0.62774E-01    rms(broyden)= 0.62774E-01
  rms(prec ) = 0.77379E-01
  weight for this iteration     100.00

 eigenvalues of (default mixing * dielectric matrix)
  average eigenvalue GAMMA=   2.0040
  2.6705  1.6707  1.6707

 Free energy of the ion-electron system (eV)
  ---------------------------------------------------
  alpha Z        PSCENC =       210.77028614
  Ewald energy   TEWEN  =    -14469.52330898
  -Hartree energ DENC   =      -995.56553640
  -exchange      EXHF   =         0.00000000
  -V(xc)+E(xc)   XCENC  =     -1156.96280979
  PAW double counting   =      4739.78850647    -2501.71326262
  entropy T*S    EENTRO =        -0.00000000
  eigenvalues    EBANDS =       303.12850419
  atomic energy  EATOM  =     13192.48085998
  Solvation  Ediel_sol  =         0.00000000
  ---------------------------------------------------
  free energy    TOTEN  =      -677.59676100 eV

  energy without entropy =     -677.59676100  energy(sigma->0) =     -677.59676100


--------------------------------------------------------------------------------------------------------




--------------------------------------- Iteration      1(   9)  ---------------------------------------


    POTLOK:  cpu time    0.4927: real time    0.4935
    SETDIJ:  cpu time    0.5137: real time    0.5137
     EDDAV:  cpu time   79.7455: real time   79.7551
       DOS:  cpu time    0.0019: real time    0.0019
    CHARGE:  cpu time    3.1185: real time    3.1187
    MIXING:  cpu time    0.0320: real time    0.0319
    --------------------------------------------
      LOOP:  cpu time   83.9042: real time   83.9148

 eigenvalue-minimisations  :  6088
 total energy-change (2. order) :-0.2239878E-01  (-0.9906419E-02)
 number of electron     511.9999998 magnetization 
 augmentation part      -29.4767299 magnetization 

 Broyden mixing:
  rms(total) = 0.27642E-01    rms(broyden)= 0.27642E-01
  rms(prec ) = 0.32217E-01
  weight for this iteration     100.00

 eigenvalues of (default mixing * dielectric matrix)
  average eigenvalue GAMMA=   1.7963
  2.5757  0.9270  1.8413  1.8413

 Free energy of the ion-electron system (eV)
  ---------------------------------------------------
  alpha Z        PSCENC =       210.77028614
  Ewald energy   TEWEN  =    -14469.52330898
  -Hartree energ DENC   =     -1001.91170416
  -exchange      EXHF   =         0.00000000
  -V(xc)+E(xc)   XCENC  =     -1155.83219115
  PAW double counting   =      4741.93996242    -2503.92124440
  entropy T*S    EENTRO =        -0.00000000
  eigenvalues    EBANDS =       308.37818037
  atomic energy  EATOM  =     13192.48085998
  Solvation  Ediel_sol  =         0.00000000
  ---------------------------------------------------
  free energy    TOTEN  =      -677.61915978 eV

  energy without entropy =     -677.61915978  energy(sigma->0) =     -677.61915978


--------------------------------------------------------------------------------------------------------




--------------------------------------- Iteration      1(  10)  ---------------------------------------


    POTLOK:  cpu time    0.4880: real time    0.4911
    SETDIJ:  cpu time    0.5096: real time    0.5097
     EDDAV:  cpu time   79.5158: real time   79.5217
       DOS:  cpu time    0.0020: real time    0.0020
    CHARGE:  cpu time    3.1270: real time    3.1272
    MIXING:  cpu time    0.0275: real time    0.0275
    --------------------------------------------
      LOOP:  cpu time   83.6700: real time   83.6793

 eigenvalue-minimisations  :  6064
 total energy-change (2. order) :-0.2549275E-02  (-0.8599237E-03)
 number of electron     511.9999998 magnetization 
 augmentation part      -29.4855564 magnetization 

 Broyden mixing:
  rms(total) = 0.10502E-01    rms(broyden)= 0.10502E-01
  rms(prec ) = 0.12763E-01
  weight for this iteration     100.00

 eigenvalues of (default mixing * dielectric matrix)
  average eigenvalue GAMMA=   1.8386
  2.6459  2.6459  1.4922  1.4922  0.9170

 Free energy of the ion-electron system (eV)
  ---------------------------------------------------
  alpha Z        PSCENC =       210.77028614
  Ewald energy   TEWEN  =    -14469.52330898
  -Hartree energ DENC   =     -1000.88721523
  -exchange      EXHF   =         0.00000000
  -V(xc)+E(xc)   XCENC  =     -1155.98667624
  PAW double counting   =      4735.09831815    -2496.91135341
  entropy T*S    EENTRO =        -0.00000000
  eigenvalues    EBANDS =       307.33738053
  atomic energy  EATOM  =     13192.48085998
  Solvation  Ediel_sol  =         0.00000000
  ---------------------------------------------------
  free energy    TOTEN  =      -677.62170905 eV

  energy without entropy =     -677.62170905  energy(sigma->0) =     -677.62170905


--------------------------------------------------------------------------------------------------------




--------------------------------------- Iteration      1(  11)  ---------------------------------------


    POTLOK:  cpu time    0.4890: real time    0.4904
    SETDIJ:  cpu time    0.5110: real time    0.5112
     EDDAV:  cpu time   77.1826: real time   77.1881
       DOS:  cpu time    0.0010: real time    0.0010
    CHARGE:  cpu time    3.1324: real time    3.1326
    MIXING:  cpu time    0.0371: real time    0.0371
    --------------------------------------------
      LOOP:  cpu time   81.3531: real time   81.3604

 eigenvalue-minimisations  :  5832
 total energy-change (2. order) :-0.1372192E-02  (-0.2022824E-03)
 number of electron     511.9999998 magnetization 
 augmentation part      -29.4875946 magnetization 

 Broyden mixing:
  rms(total) = 0.35954E-02    rms(broyden)= 0.35954E-02
  rms(prec ) = 0.50568E-02
  weight for this iteration     100.00

 eigenvalues of (default mixing * dielectric matrix)
  average eigenvalue GAMMA=   1.7840
  2.8370  2.0977  2.0977  1.3973  1.3973  0.8770

 Free energy of the ion-electron system (eV)
  ---------------------------------------------------
  alpha Z        PSCENC =       210.77028614
  Ewald energy   TEWEN  =    -14469.52330898
  -Hartree energ DENC   =     -1000.91593813
  -exchange      EXHF   =         0.00000000
  -V(xc)+E(xc)   XCENC  =     -1155.97960565
  PAW double counting   =      4731.47380802    -2493.20469490
  entropy T*S    EENTRO =        -0.00000000
  eigenvalues    EBANDS =       307.27551227
  atomic energy  EATOM  =     13192.48085998
  Solvation  Ediel_sol  =         0.00000000
  ---------------------------------------------------
  free energy    TOTEN  =      -677.62308124 eV

  energy without entropy =     -677.62308124  energy(sigma->0) =     -677.62308124


--------------------------------------------------------------------------------------------------------




--------------------------------------- Iteration      1(  12)  ---------------------------------------


    POTLOK:  cpu time    0.4905: real time    0.4912
    SETDIJ:  cpu time    0.5099: real time    0.5099
     EDDAV:  cpu time   80.1756: real time   80.1864
       DOS:  cpu time    0.0016: real time    0.0016
    CHARGE:  cpu time    3.1123: real time    3.1125
    MIXING:  cpu time    0.0297: real time    0.0297
    --------------------------------------------
      LOOP:  cpu time   84.3196: real time   84.3313

 eigenvalue-minimisations  :  6128
 total energy-change (2. order) :-0.9147282E-04  (-0.4095190E-04)
 number of electron     511.9999998 magnetization 
 augmentation part      -29.4857727 magnetization 

 Broyden mixing:
  rms(total) = 0.18312E-02    rms(broyden)= 0.18312E-02
  rms(prec ) = 0.21647E-02
  weight for this iteration     100.00

 eigenvalues of (default mixing * dielectric matrix)
  average eigenvalue GAMMA=   1.8286
  3.1561  2.6805  1.7713  1.7713  0.8976  1.2618  1.2618

 Free energy of the ion-electron system (eV)
  ---------------------------------------------------
  alpha Z        PSCENC =       210.77028614
  Ewald energy   TEWEN  =    -14469.52330898
  -Hartree energ DENC   =     -1001.50278769
  -exchange      EXHF   =         0.00000000
  -V(xc)+E(xc)   XCENC  =     -1155.91516745
  PAW double counting   =      4732.55066451    -2494.32029965
  entropy T*S    EENTRO =        -0.00000000
  eigenvalues    EBANDS =       307.83658041
  atomic energy  EATOM  =     13192.48085998
  Solvation  Ediel_sol  =         0.00000000
  ---------------------------------------------------
  free energy    TOTEN  =      -677.62317272 eV

  energy without entropy =     -677.62317272  energy(sigma->0) =     -677.62317272


--------------------------------------------------------------------------------------------------------




--------------------------------------- Iteration      1(  13)  ---------------------------------------


    POTLOK:  cpu time    0.4900: real time    0.4908
    SETDIJ:  cpu time    0.5154: real time    0.5155
     EDDAV:  cpu time   76.2296: real time   76.2349
       DOS:  cpu time    0.0021: real time    0.0021
    CHARGE:  cpu time    3.1423: real time    3.1425
    MIXING:  cpu time    0.0316: real time    0.0316
    --------------------------------------------
      LOOP:  cpu time   80.4110: real time   80.4174

 eigenvalue-minimisations  :  5736
 total energy-change (2. order) :-0.2545197E-04  (-0.1114748E-04)
 number of electron     511.9999998 magnetization 
 augmentation part      -29.4858612 magnetization 

 Broyden mixing:
  rms(total) = 0.56701E-03    rms(broyden)= 0.56700E-03
  rms(prec ) = 0.73574E-03
  weight for this iteration     100.00

 eigenvalues of (default mixing * dielectric matrix)
  average eigenvalue GAMMA=   1.7831
  3.1355  2.5386  1.9383  1.9383  1.4035  1.4035  0.9537  0.9537

 Free energy of the ion-electron system (eV)
  ---------------------------------------------------
  alpha Z        PSCENC =       210.77028614
  Ewald energy   TEWEN  =    -14469.52330898
  -Hartree energ DENC   =     -1001.47866934
  -exchange      EXHF   =         0.00000000
  -V(xc)+E(xc)   XCENC  =     -1155.92747927
  PAW double counting   =      4731.94093743    -2493.69781621
  entropy T*S    EENTRO =        -0.00000000
  eigenvalues    EBANDS =       307.81199207
  atomic energy  EATOM  =     13192.48085998
  Solvation  Ediel_sol  =         0.00000000
  ---------------------------------------------------
  free energy    TOTEN  =      -677.62319817 eV

  energy without entropy =     -677.62319817  energy(sigma->0) =     -677.62319817


--------------------------------------------------------------------------------------------------------




--------------------------------------- Iteration      1(  14)  ---------------------------------------


    POTLOK:  cpu time    0.4903: real time    0.4918
    SETDIJ:  cpu time    0.5129: real time    0.5130
     EDDAV:  cpu time   80.8790: real time   80.8877
       DOS:  cpu time    0.0015: real time    0.0015
    CHARGE:  cpu time    3.1292: real time    3.1327
    MIXING:  cpu time    0.0339: real time    0.0339
    --------------------------------------------
      LOOP:  cpu time   85.0468: real time   85.0606

 eigenvalue-minimisations  :  6200
 total energy-change (2. order) :-0.4363550E-05  (-0.7878412E-06)
 number of electron     511.9999998 magnetization 
 augmentation part      -29.4857226 magnetization 

 Broyden mixing:
  rms(total) = 0.17914E-03    rms(broyden)= 0.17908E-03
  rms(prec ) = 0.24339E-03
  weight for this iteration     100.00

 eigenvalues of (default mixing * dielectric matrix)
  average eigenvalue GAMMA=   1.7744
  3.2153  2.5969  2.2416  1.6652  1.6652  1.3259  1.3259  0.9984  0.9353

 Free energy of the ion-electron system (eV)
  ---------------------------------------------------
  alpha Z        PSCENC =       210.77028614
  Ewald energy   TEWEN  =    -14469.52330898
  -Hartree energ DENC   =     -1001.52714632
  -exchange      EXHF   =         0.00000000
  -V(xc)+E(xc)   XCENC  =     -1155.92088795
  PAW double counting   =      4732.09189075    -2493.85204197
  entropy T*S    EENTRO =        -0.00000000
  eigenvalues    EBANDS =       307.85714581
  atomic energy  EATOM  =     13192.48085998
  Solvation  Ediel_sol  =         0.00000000
  ---------------------------------------------------
  free energy    TOTEN  =      -677.62320253 eV

  energy without entropy =     -677.62320253  energy(sigma->0) =     -677.62320253


--------------------------------------------------------------------------------------------------------




--------------------------------------- Iteration      1(  15)  ---------------------------------------


    POTLOK:  cpu time    0.4903: real time    0.4912
    SETDIJ:  cpu time    0.5127: real time    0.5127
     EDDAV:  cpu time   79.5958: real time   79.6056
       DOS:  cpu time    0.0011: real time    0.0011
    CHARGE:  cpu time    3.1507: real time    3.1542
    MIXING:  cpu time    0.0261: real time    0.0261
    --------------------------------------------
      LOOP:  cpu time   83.7767: real time   83.7908

 eigenvalue-minimisations  :  6072
 total energy-change (2. order) :-0.3429634E-05  (-0.1611447E-06)
 number of electron     511.9999998 magnetization 
 augmentation part      -29.4856031 magnetization 

 Broyden mixing:
  rms(total) = 0.67050E-04    rms(broyden)= 0.66892E-04
  rms(prec ) = 0.87591E-04
  weight for this iteration     100.00

 eigenvalues of (default mixing * dielectric matrix)
  average eigenvalue GAMMA=   1.7353
  3.2438  2.5589  2.1942  1.7250  1.7250  1.4631  1.4631  0.9374  1.0210  1.0210

 Free energy of the ion-electron system (eV)
  ---------------------------------------------------
  alpha Z        PSCENC =       210.77028614
  Ewald energy   TEWEN  =    -14469.52330898
  -Hartree energ DENC   =     -1001.55134512
  -exchange      EXHF   =         0.00000000
  -V(xc)+E(xc)   XCENC  =     -1155.91942734
  PAW double counting   =      4732.15973103    -2493.92197039
  entropy T*S    EENTRO =        -0.00000000
  eigenvalues    EBANDS =       307.88196870
  atomic energy  EATOM  =     13192.48085998
  Solvation  Ediel_sol  =         0.00000000
  ---------------------------------------------------
  free energy    TOTEN  =      -677.62320596 eV

  energy without entropy =     -677.62320596  energy(sigma->0) =     -677.62320596


--------------------------------------------------------------------------------------------------------




--------------------------------------- Iteration      1(  16)  ---------------------------------------


    POTLOK:  cpu time    0.4889: real time    0.4911
    SETDIJ:  cpu time    0.5141: real time    0.5141
     EDDAV:  cpu time   79.9827: real time   79.9975
       DOS:  cpu time    0.0011: real time    0.0011
    CHARGE:  cpu time    3.1758: real time    3.1760
    MIXING:  cpu time    0.0218: real time    0.0218
    --------------------------------------------
      LOOP:  cpu time   84.1844: real time   84.2017

 eigenvalue-minimisations  :  6096
 total energy-change (2. order) : 0.5197144E-06  (-0.1903261E-07)
 number of electron     511.9999998 magnetization 
 augmentation part      -29.4856060 magnetization 

 Broyden mixing:
  rms(total) = 0.24773E-04    rms(broyden)= 0.24342E-04
  rms(prec ) = 0.31708E-04
  weight for this iteration     100.00

 eigenvalues of (default mixing * dielectric matrix)
  average eigenvalue GAMMA=   1.7110
  3.2900  2.6345  2.0838  2.0838  1.4787  1.4787  1.4084  1.4084  0.9131  1.0206
  1.0206

 Free energy of the ion-electron system (eV)
  ---------------------------------------------------
  alpha Z        PSCENC =       210.77028614
  Ewald energy   TEWEN  =    -14469.52330898
  -Hartree energ DENC   =     -1001.54988116
  -exchange      EXHF   =         0.00000000
  -V(xc)+E(xc)   XCENC  =     -1155.91947003
  PAW double counting   =      4732.15307035    -2493.91488638
  entropy T*S    EENTRO =        -0.00000000
  eigenvalues    EBANDS =       307.88012464
  atomic energy  EATOM  =     13192.48085998
  Solvation  Ediel_sol  =         0.00000000
  ---------------------------------------------------
  free energy    TOTEN  =      -677.62320544 eV

  energy without entropy =     -677.62320544  energy(sigma->0) =     -677.62320544


--------------------------------------------------------------------------------------------------------




--------------------------------------- Iteration      1(  17)  ---------------------------------------


    POTLOK:  cpu time    0.4930: real time    0.4937
    SETDIJ:  cpu time    0.5065: real time    0.5065
     EDDAV:  cpu time   57.3758: real time   57.3862
       DOS:  cpu time    0.0011: real time    0.0011
    CHARGE:  cpu time    3.1838: real time    3.1840
    MIXING:  cpu time    0.0419: real time    0.0419
    --------------------------------------------
      LOOP:  cpu time   61.6021: real time   61.6134

 eigenvalue-minimisations  :  3840
 total energy-change (2. order) : 0.7043855E-07  (-0.2479036E-08)
 number of electron     511.9999998 magnetization 
 augmentation part      -29.4856066 magnetization 

 Broyden mixing:
  rms(total) = 0.12981E-04    rms(broyden)= 0.12139E-04
  rms(prec ) = 0.15131E-04
  weight for this iteration     100.00

 eigenvalues of (default mixing * dielectric matrix)
  average eigenvalue GAMMA=   1.7178
  3.3046  2.6240  2.2755  1.8402  1.8402  1.7667  1.3953  1.3953  0.9315  0.9771
  1.1314  1.1314

 Free energy of the ion-electron system (eV)
  ---------------------------------------------------
  alpha Z        PSCENC =       210.77028614
  Ewald energy   TEWEN  =    -14469.52330898
  -Hartree energ DENC   =     -1001.54936228
  -exchange      EXHF   =         0.00000000
  -V(xc)+E(xc)   XCENC  =     -1155.91955401
  PAW double counting   =      4732.15326704    -2493.91498670
  entropy T*S    EENTRO =        -0.00000000
  eigenvalues    EBANDS =       307.87959342
  atomic energy  EATOM  =     13192.48085998
  Solvation  Ediel_sol  =         0.00000000
  ---------------------------------------------------
  free energy    TOTEN  =      -677.62320537 eV

  energy without entropy =     -677.62320537  energy(sigma->0) =     -677.62320537


--------------------------------------------------------------------------------------------------------




--------------------------------------- Iteration      1(  18)  ---------------------------------------


    POTLOK:  cpu time    0.4899: real time    0.4914
    SETDIJ:  cpu time    0.5153: real time    0.5153
     EDDAV:  cpu time   52.4827: real time   52.4863
       DOS:  cpu time    0.0011: real time    0.0011
    CHARGE:  cpu time    3.1710: real time    3.1712
    MIXING:  cpu time    0.0318: real time    0.0318
    --------------------------------------------
      LOOP:  cpu time   56.6918: real time   56.6971

 eigenvalue-minimisations  :  3336
 total energy-change (2. order) :-0.7855124E-07  (-0.7006814E-09)
 number of electron     511.9999998 magnetization 
 augmentation part      -29.4856028 magnetization 

 Broyden mixing:
  rms(total) = 0.65659E-05    rms(broyden)= 0.46870E-05
  rms(prec ) = 0.68530E-05
  weight for this iteration     100.00
  WARNING: grid for Broyden might be to small

 eigenvalues of (default mixing * dielectric matrix)
  average eigenvalue GAMMA=   1.7201
  3.2577  2.6853  2.3358  2.3358  1.7154  1.7154  1.3990  1.3990  0.9290  0.9994
  0.9994  1.2949  1.2949

 Free energy of the ion-electron system (eV)
  ---------------------------------------------------
  alpha Z        PSCENC =       210.77028614
  Ewald energy   TEWEN  =    -14469.52330898
  -Hartree energ DENC   =     -1001.55006929
  -exchange      EXHF   =         0.00000000
  -V(xc)+E(xc)   XCENC  =     -1155.91945891
  PAW double counting   =      4732.15660467    -2493.91836758
  entropy T*S    EENTRO =        -0.00000000
  eigenvalues    EBANDS =       307.88024852
  atomic energy  EATOM  =     13192.48085998
  Solvation  Ediel_sol  =         0.00000000
  ---------------------------------------------------
  free energy    TOTEN  =      -677.62320545 eV

  energy without entropy =     -677.62320545  energy(sigma->0) =     -677.62320545


--------------------------------------------------------------------------------------------------------




--------------------------------------- Iteration      1(  19)  ---------------------------------------


    POTLOK:  cpu time    0.4898: real time    0.4930
    SETDIJ:  cpu time    0.5139: real time    0.5139
     EDDAV:  cpu time   51.6719: real time   51.6834
       DOS:  cpu time    0.0011: real time    0.0011
    CHARGE:  cpu time    3.1702: real time    3.1705
    MIXING:  cpu time    0.0286: real time    0.0286
    --------------------------------------------
      LOOP:  cpu time   55.8755: real time   55.8904

 eigenvalue-minimisations  :  3272
 total energy-change (2. order) : 0.2486559E-07  (-0.1430093E-09)
 number of electron     511.9999998 magnetization 
 augmentation part      -29.4856043 magnetization 

 Broyden mixing:
  rms(total) = 0.51720E-05    rms(broyden)= 0.23678E-05
  rms(prec ) = 0.31548E-05
  weight for this iteration     100.00
  WARNING: grid for Broyden might be to small

 eigenvalues of (default mixing * dielectric matrix)
  average eigenvalue GAMMA=   1.6938
  3.3230  2.6859  2.2791  2.2791  1.7812  1.7812  1.5110  1.5110  1.3190  1.3190
  0.9304  0.9304  1.0317  1.0317

 Free energy of the ion-electron system (eV)
  ---------------------------------------------------
  alpha Z        PSCENC =       210.77028614
  Ewald energy   TEWEN  =    -14469.52330898
  -Hartree energ DENC   =     -1001.54973692
  -exchange      EXHF   =         0.00000000
  -V(xc)+E(xc)   XCENC  =     -1155.91949177
  PAW double counting   =      4732.15645864    -2493.91819886
  entropy T*S    EENTRO =        -0.00000000
  eigenvalues    EBANDS =       307.87992633
  atomic energy  EATOM  =     13192.48085998
  Solvation  Ediel_sol  =         0.00000000
  ---------------------------------------------------
  free energy    TOTEN  =      -677.62320543 eV

  energy without entropy =     -677.62320543  energy(sigma->0) =     -677.62320543


--------------------------------------------------------------------------------------------------------




--------------------------------------- Iteration      1(  20)  ---------------------------------------


    POTLOK:  cpu time    0.4929: real time    0.4951
    SETDIJ:  cpu time    0.5151: real time    0.5152
     EDDAV:  cpu time   50.7413: real time   50.7507
       DOS:  cpu time    0.0010: real time    0.0010
    --------------------------------------------
      LOOP:  cpu time   51.7503: real time   51.7619

 eigenvalue-minimisations  :  3176
 total energy-change (2. order) :-0.8982170E-08  (-0.5573625E-10)
 number of electron     511.9999998 magnetization 
 augmentation part      -29.4856043 magnetization 

 Free energy of the ion-electron system (eV)
  ---------------------------------------------------
  alpha Z        PSCENC =       210.77028614
  Ewald energy   TEWEN  =    -14469.52330898
  -Hartree energ DENC   =     -1001.54996849
  -exchange      EXHF   =         0.00000000
  -V(xc)+E(xc)   XCENC  =     -1155.91946443
  PAW double counting   =      4732.15676039    -2493.91850858
  entropy T*S    EENTRO =        -0.00000000
  eigenvalues    EBANDS =       307.88013852
  atomic energy  EATOM  =     13192.48085998
  Solvation  Ediel_sol  =         0.00000000
  ---------------------------------------------------
  free energy    TOTEN  =      -677.62320543 eV

  energy without entropy =     -677.62320543  energy(sigma->0) =     -677.62320543


--------------------------------------------------------------------------------------------------------




 average (electrostatic) potential at core
  the test charge radii are     0.9892
  (the norm of the test charge is              1.0000)
       1 -83.4619       2 -83.3745       3 -83.4091       4 -83.5104       5 -83.4900
       6 -83.3058       7 -83.4528       8 -83.4824       9 -83.5255      10 -83.3829
      11 -83.4819      12 -83.5816      13 -83.4046      14 -83.4821      15 -83.4484
      16 -83.4419      17 -83.6062      18 -83.5153      19 -83.4967      20 -83.5955
      21 -83.4436      22 -83.5550      23 -83.5097      24 -83.5693      25 -83.7127
      26 -83.4603      27 -83.5297      28 -83.5746      29 -83.5304      30 -83.4995
      31 -83.4543      32 -83.6568      33 -83.4918      34 -83.4768      35 -83.5355
      36 -83.5592      37 -83.5813      38 -83.4961      39 -83.4894      40 -83.4551
      41 -83.5026      42 -83.5628      43 -83.4950      44 -83.6732      45 -83.4910
      46 -83.4726      47 -83.6627      48 -83.4608      49 -83.5882      50 -83.3893
      51 -83.5854      52 -83.6086      53 -83.5080      54 -83.5714      55 -83.5621
      56 -83.5958      57 -83.5962      58 -83.5379      59 -83.6256      60 -83.6183
      61 -83.5051      62 -83.5415      63 -83.5537      64 -83.5814      65 -83.5755
      66 -83.3393      67 -83.4759      68 -83.5778      69 -83.4915      70 -83.3695
      71 -83.4473      72 -83.5856      73 -83.5282      74 -83.4864      75 -83.4499
      76 -83.4799      77 -83.4444      78 -83.4776      79 -83.4144      80 -83.6388
      81 -83.5389      82 -83.4477      83 -83.4619      84 -83.5612      85 -83.5138
      86 -83.5491      87 -83.5319      88 -83.4503      89 -83.4649      90 -83.3683
      91 -83.5514      92 -83.7343      93 -83.5324      94 -83.3970      95 -83.5548
      96 -83.5039      97 -83.4995      98 -83.5059      99 -83.4813     100 -83.5269
     101 -83.5746     102 -83.4417     103 -83.4511     104 -83.5958     105 -83.6080
     106 -83.4409     107 -83.7212     108 -83.5228     109 -83.5136     110 -83.5399
     111 -83.4553     112 -83.5926     113 -83.5306     114 -83.4592     115 -83.5940
     116 -83.6249     117 -83.5311     118 -83.5110     119 -83.5589     120 -83.4743
     121 -83.5558     122 -83.4841     123 -83.6382     124 -83.7161     125 -83.5355
     126 -83.4740     127 -83.6487     128 -83.5463
 
 
 
 E-fermi :   6.0585     XC(G=0):  -9.3337     alpha+bet :-11.7321


 k-point     1 :       0.0000    0.0000    0.0000
  band No.  band energies     occupation 
      1      -6.3118      2.00000
      2      -5.7550      2.00000
      3      -5.6792      2.00000
      4      -5.5812      2.00000
      5      -5.5449      2.00000
      6      -5.5195      2.00000
      7      -5.4552      2.00000
      8      -5.4348      2.00000
      9      -5.4165      2.00000
     10      -5.3434      2.00000
     11      -5.2706      2.00000
     12      -5.2368      2.00000
     13      -5.1634      2.00000
     14      -5.1120      2.00000
     15      -5.0800      2.00000
     16      -4.5728      2.00000
     17      -4.4753      2.00000
     18      -4.4045      2.00000
     19      -4.3942      2.00000
     20      -4.3762      2.00000
     21      -4.3560      2.00000
     22      -4.2609      2.00000
     23      -4.2541      2.00000
     24      -4.2175      2.00000
     25      -4.1868      2.00000
     26      -4.1762      2.00000
     27      -4.1564      2.00000
     28      -4.0722      2.00000
     29      -4.0218      2.00000
     30      -3.9975      2.00000
     31      -3.9945      2.00000
     32      -3.8873      2.00000
     33      -3.8625      2.00000
     34      -3.8258      2.00000
     35      -3.7761      2.00000
     36      -3.7195      2.00000
     37      -3.6950      2.00000
     38      -3.6557      2.00000
     39      -3.6250      2.00000
     40      -3.5961      2.00000
     41      -3.5929      2.00000
     42      -3.5714      2.00000
     43      -3.5627      2.00000
     44      -3.5521      2.00000
     45      -3.5314      2.00000
     46      -3.4863      2.00000
     47      -3.4645      2.00000
     48      -3.4463      2.00000
     49      -3.4317      2.00000
     50      -3.3954      2.00000
     51      -3.3747      2.00000
     52      -3.3548      2.00000
     53      -3.3365      2.00000
     54      -3.2844      2.00000
     55      -3.2519      2.00000
     56      -2.4238      2.00000
     57      -2.3588      2.00000
     58      -2.3000      2.00000
     59      -2.2645      2.00000
     60      -2.2484      2.00000
     61      -2.2026      2.00000
     62      -2.1474      2.00000
     63      -2.0975      2.00000
     64      -2.0839      2.00000
     65      -2.0654      2.00000
     66      -2.0099      2.00000
     67      -1.9883      2.00000
     68      -1.9733      2.00000
     69      -1.9192      2.00000
     70      -1.8869      2.00000
     71      -1.8391      2.00000
     72      -1.7959      2.00000
     73      -1.7106      2.00000
     74      -1.4407      2.00000
     75      -1.3491      2.00000
     76      -1.2612      2.00000
     77      -1.2088      2.00000
     78      -1.0978      2.00000
     79      -0.9962      2.00000
     80      -0.9626      2.00000
     81      -0.9436      2.00000
     82      -0.9259      2.00000
     83      -0.8998      2.00000
     84      -0.8875      2.00000
     85      -0.8210      2.00000
     86      -0.8005      2.00000
     87      -0.7724      2.00000
     88      -0.7665      2.00000
     89      -0.7193      2.00000
     90      -0.7077      2.00000
     91      -0.6659      2.00000
     92      -0.6475      2.00000
     93      -0.6058      2.00000
     94      -0.5612      2.00000
     95      -0.5534      2.00000
     96      -0.5296      2.00000
     97      -0.5225      2.00000
     98      -0.4814      2.00000
     99      -0.4249      2.00000
    100      -0.3822      2.00000
    101      -0.3696      2.00000
    102      -0.0453      2.00000
    103      -0.0132      2.00000
[...]
   -.811E+01 -.741E+01 -.596E+01   0.756E+01 0.724E+01 0.594E+01   0.211E+01 0.109E+01 0.222E+01   0.774E-06 -.155E-05 0.203E-05
   -.612E+01 0.398E+00 0.109E+01   0.569E+01 -.757E+00 -.109E+01   0.358E+00 -.616E+00 -.171E-01   -.962E-07 0.101E-05 0.339E-08
   -.448E+01 0.285E+01 -.190E+01   0.440E+01 -.310E+01 0.166E+01   0.237E+00 -.674E+00 0.187E+01   0.362E-05 -.176E-06 0.645E-06
   -.385E+01 0.823E+01 0.500E+01   0.311E+01 -.715E+01 -.411E+01   0.115E+01 -.317E+01 -.222E+01   0.365E-05 -.111E-05 0.203E-05
   0.205E+01 -.808E+01 -.363E+00   -.272E+01 0.664E+01 0.749E+00   -.517E+00 0.184E+01 -.329E+00   -.217E-05 -.241E-05 -.119E-05
   0.487E+01 -.219E+01 -.215E+01   -.435E+01 0.156E+01 0.203E+01   -.499E-01 0.160E+01 0.122E+01   -.667E-05 0.408E-06 0.328E-05
   -.721E+01 0.158E+02 0.549E+01   0.724E+01 -.148E+02 -.495E+01   0.166E+01 -.338E+01 -.239E+01   -.240E-05 -.233E-05 0.109E-05
   -.281E+01 0.184E+01 -.120E+02   0.264E+01 -.233E+01 0.113E+02   0.145E+01 0.993E+00 0.856E+00   -.150E-06 -.435E-05 0.139E-05
   0.486E+01 0.618E+01 -.423E+01   -.409E+01 -.533E+01 0.433E+01   -.154E+01 -.164E+01 0.198E+00   -.548E-05 -.402E-05 0.340E-05
   -.716E+01 0.218E+01 -.106E+02   0.557E+01 -.222E+01 0.979E+01   0.281E+01 -.374E+00 0.243E+01   -.853E-06 0.201E-06 0.493E-05
   0.552E+01 0.140E+02 0.179E+01   -.512E+01 -.132E+02 -.152E+01   -.931E+00 -.289E+01 -.307E+00   -.149E-05 -.281E-05 0.158E-05
   -.346E+01 -.119E+01 0.329E+01   0.258E+01 0.121E+01 -.312E+01   0.209E+01 0.628E+00 -.862E+00   -.126E-05 -.498E-05 -.198E-06
   0.924E+01 0.790E+00 -.901E+01   -.790E+01 -.663E+00 0.859E+01   -.283E+01 0.175E+00 0.157E+01   -.410E-06 0.716E-06 -.232E-06
   0.224E+02 0.301E+01 -.982E+01   -.201E+02 -.287E+01 0.902E+01   -.643E+01 -.175E+01 0.301E+01   -.582E-05 0.186E-05 0.308E-05
   -.945E+01 -.474E+01 -.319E+01   0.798E+01 0.324E+01 0.218E+01   0.377E+01 0.278E+01 0.221E+01   0.811E-06 -.617E-06 0.220E-06
   0.515E+01 -.868E+01 -.534E+01   -.510E+01 0.764E+01 0.525E+01   -.100E+00 0.267E+01 0.178E+01   0.312E-05 -.187E-05 -.131E-05
   0.991E+01 0.721E+00 -.188E+01   -.100E+02 -.106E+01 0.223E+01   -.122E+01 -.511E+00 -.174E+00   -.627E-05 -.231E-05 0.377E-05
   0.130E+02 0.385E+01 -.761E+01   -.120E+02 -.384E+01 0.721E+01   -.265E+01 -.467E+00 0.817E+00   -.315E-05 0.128E-05 0.524E-05
   -.622E+01 0.650E+01 -.181E+01   0.565E+01 -.674E+01 0.221E+01   0.121E+01 0.287E+00 0.210E+00   0.828E-06 -.103E-05 0.121E-06
   0.115E+02 0.887E+01 -.317E+01   -.112E+02 -.841E+01 0.277E+01   -.519E+00 -.190E+01 -.530E+00   -.118E-06 -.705E-05 -.393E-06
   0.874E+01 -.288E+01 -.757E+01   -.810E+01 0.272E+01 0.701E+01   -.287E+01 0.497E+00 0.112E+01   -.471E-06 -.258E-05 0.423E-05
   0.536E+01 -.310E+01 -.482E-01   -.538E+01 0.276E+01 -.474E-01   0.308E+00 0.637E+00 -.654E+00   -.862E-06 0.218E-05 0.105E-05
   -.191E+01 0.687E+01 -.631E+01   0.200E+01 -.630E+01 0.543E+01   -.109E+01 -.195E+01 0.260E+00   0.154E-05 0.271E-07 0.177E-06
   0.531E+01 0.383E+01 0.377E+01   -.478E+01 -.348E+01 -.332E+01   -.121E+01 -.781E+00 -.120E+01   0.409E-06 -.269E-05 -.368E-05
   0.484E-01 0.727E+01 0.434E+01   -.141E+00 -.651E+01 -.358E+01   0.619E+00 -.269E+01 -.154E+01   0.393E-05 -.150E-05 0.243E-06
   0.394E+01 0.397E+01 -.394E+01   -.355E+01 -.339E+01 0.346E+01   -.389E+00 -.149E+01 0.996E+00   -.905E-06 0.301E-05 0.262E-05
   -.336E+01 0.221E+01 -.756E+01   0.289E+01 -.217E+01 0.677E+01   0.245E+01 -.464E+00 0.106E+01   0.570E-05 -.326E-05 -.238E-05
   0.469E+01 0.944E+00 0.287E+01   -.482E+01 -.102E+01 -.212E+01   -.176E+00 0.571E+00 -.218E+01   0.361E-05 0.197E-05 0.435E-06
   0.143E+02 0.569E+01 0.253E+01   -.133E+02 -.547E+01 -.269E+01   -.297E+01 -.187E+01 -.105E+01   -.454E-05 0.252E-05 -.443E-05
   0.222E+01 -.807E+00 -.466E+00   -.236E+01 0.311E+00 0.107E+01   -.647E-01 0.781E+00 -.411E+00   0.117E-06 0.705E-05 0.588E-06
   -.523E+01 0.335E+01 0.798E+01   0.464E+01 -.316E+01 -.718E+01   0.242E+01 -.820E+00 -.184E+01   0.179E-06 -.293E-05 0.811E-06
   -.238E+01 0.961E+01 -.452E+01   0.232E+01 -.905E+01 0.408E+01   -.683E+00 -.231E+01 0.663E+00   0.174E-05 -.744E-05 -.475E-05
   0.538E+01 -.251E+01 -.204E+01   -.455E+01 0.217E+01 0.195E+01   -.102E+01 0.670E+00 0.116E+01   0.206E-05 0.525E-05 0.293E-05
   0.367E+01 0.741E+01 -.127E+02   -.282E+01 -.642E+01 0.114E+02   -.212E+01 -.218E+01 0.323E+01   -.405E-05 0.476E-05 0.209E-05
   -.456E+01 0.388E+01 0.290E+01   0.418E+01 -.438E+01 -.331E+01   0.221E+01 -.193E+00 0.111E+01   -.193E-05 -.253E-05 -.461E-05
   0.253E+01 -.404E+01 0.301E+01   -.148E+01 0.408E+01 -.268E+01   -.154E+01 -.314E+00 -.895E+00   0.181E-05 -.304E-05 -.446E-06
   -.481E+01 0.531E+01 -.154E+01   0.427E+01 -.481E+01 0.185E+01   0.418E+00 -.179E+01 -.118E+01   -.174E-05 0.219E-05 -.482E-06
   -.131E+02 -.447E+01 0.675E+00   0.124E+02 0.416E+01 -.775E+00   0.328E+01 -.126E+00 0.592E+00   0.177E-05 0.344E-05 0.275E-05
   -.102E+01 0.660E+01 -.159E+01   0.145E+01 -.539E+01 0.380E+00   -.663E+00 -.318E+01 0.108E+01   0.587E-05 0.431E-07 -.250E-05
   0.567E+01 -.793E+01 0.663E+01   -.527E+01 0.719E+01 -.631E+01   -.244E+01 0.275E+01 -.200E+01   0.885E-05 -.970E-07 -.695E-06
   0.724E+00 0.531E+01 -.111E+01   -.828E+00 -.417E+01 0.232E+00   -.122E+00 -.172E+01 0.283E+01   0.144E-05 -.877E-06 -.183E-05
   0.453E+01 -.229E+01 0.615E+01   -.425E+01 0.269E+01 -.598E+01   -.956E+00 -.129E+01 -.155E+01   0.110E-05 0.133E-05 0.286E-05
   0.708E+01 0.571E+01 0.237E+01   -.564E+01 -.514E+01 -.292E+01   -.195E+01 -.162E+01 0.282E+00   -.156E-05 0.283E-05 -.328E-05
   0.648E+01 -.823E+01 0.566E+01   -.507E+01 0.790E+01 -.572E+01   -.290E+01 0.184E+01 -.508E+00   -.197E-05 0.935E-06 -.730E-05
   -.144E+02 -.941E+01 -.534E+00   0.130E+02 0.897E+01 0.391E+00   0.465E+01 0.188E+01 0.175E+01   0.354E-05 0.387E-05 -.543E-06
   -.898E+00 -.365E+01 -.955E+01   0.182E+01 0.374E+01 0.837E+01   -.198E+00 0.354E+00 0.262E+01   -.413E-05 -.211E-05 -.893E-06
   -.479E+01 -.152E+01 -.794E+01   0.524E+01 0.133E+01 0.651E+01   0.589E+00 0.142E+00 0.270E+01   0.291E-05 0.320E-06 -.861E-06
   -.666E+01 -.321E+01 -.333E+01   0.676E+01 0.323E+01 0.324E+01   0.437E+00 0.744E+00 0.227E+01   0.554E-05 0.447E-05 -.389E-05
   -.313E+01 0.299E+01 0.388E+01   0.278E+01 -.291E+01 -.375E+01   0.950E+00 -.579E+00 -.959E-01   -.280E-05 0.540E-05 -.404E-06
   -.972E+00 0.162E+02 0.109E+01   0.136E+01 -.146E+02 -.125E+01   -.781E+00 -.491E+01 0.460E+00   -.287E-05 0.942E-07 -.444E-06
   0.310E+01 -.843E+01 0.134E+01   -.258E+01 0.769E+01 -.498E+00   -.159E+01 0.385E+00 -.868E+00   0.707E-06 -.132E-05 -.920E-06
   -.322E+01 0.432E+01 0.165E+01   0.328E+01 -.358E+01 -.194E+01   -.162E+00 -.189E+01 -.305E+00   0.314E-05 0.341E-06 -.234E-05
   -.112E+02 -.767E+01 0.653E+00   0.103E+02 0.713E+01 -.915E+00   0.258E+01 0.216E+01 0.191E+00   0.326E-05 0.519E-05 -.305E-06
 -----------------------------------------------------------------------------------------------
   0.121E+01 0.185E+00 -.451E-02   -.178E-14 0.711E-13 0.137E-12   -.121E+01 -.185E+00 0.451E-02   -.973E-06 0.734E-06 -.239E-05
 
 
 POSITION                                       TOTAL-FORCE (eV/Angst)
 -----------------------------------------------------------------------------------
      0.19105     11.02869     10.93014        -1.642374      0.100917      0.337292
     21.66182     13.59037     13.67411         1.346014      2.338246     -0.528598
     21.79914     16.32069     16.35436         0.162613      2.018031      0.496614
     21.67484     19.12984     19.23050         2.366084      0.382508     -1.683983
     13.60364     21.67153     13.64592         0.514217      2.737299      0.682082
     13.58542     13.60401      5.54983        -0.315771      0.363191     -2.095663
     13.63435     16.29614      8.28350         0.146357      1.384267     -0.689068
      2.78546      8.16787     10.85108        -2.061429      1.801921      2.104117
     16.33990     21.67178     16.46297         1.049650      2.290527     -1.022689
     16.42771     13.64646      8.27736        -0.823683      1.506833     -0.766312
      5.61845      5.53854     11.06462        -1.716594      0.238407     -0.872717
     16.34018     19.14924     13.70194        -0.354203     -0.826816     -1.128590
     18.94469     10.90157      8.29371         2.719376      1.249198     -1.382769
     19.05722     13.53026     10.89143         0.062559      1.539237     -0.672141
     19.07539     16.39713     13.60291         0.803773      0.743334      0.644690
      8.35309      8.26315     16.35840        -2.196795      0.233174      0.802710
     13.79050     13.67211     21.73496        -1.597838     -0.609233      0.748889
      2.74045      5.38406      2.67733         0.483818      1.319147     -0.027368
     13.78638      8.27906     16.28730        -2.796531     -0.207101      0.791929
     13.63054     10.97931     19.02949        -0.472047     -0.712427      1.271893
      5.42177      2.90436      2.77720         0.173818     -1.919767     -1.810006
      5.43722      5.31331      5.48361         0.266355      2.682174     -0.048621
      5.34775      8.23608      8.02285        -0.188845     -0.380600      1.633621
      5.40379     11.06273     10.88537         0.537308     -0.961293      0.879673
      8.17545      2.72012      5.52605         0.578683      1.241935     -0.826916
      8.29486      5.65837      8.29277        -1.530287     -2.030376     -2.006122
      8.15372      8.25630     10.92420        -0.803903     -0.307003     -1.057768
      8.18936     10.91368     13.79221         0.822534     -0.036054     -1.308685
     10.82586     13.58144     18.99236         2.067303     -0.050465      0.628977
     10.92495      5.49485     11.05685         0.011065     -0.264686     -1.914940
     10.96634      8.26902     13.50091         0.117060     -0.280383      1.074012
     10.94355     10.98727     16.33053         0.193028      0.568088      1.028915
      5.63535     16.35713     11.00761        -1.420676      1.120477     -0.617229
     16.44926      8.33418     13.57026        -0.372575     -0.112297      1.167782
     16.20374     10.82595     16.24462         1.485896      0.818669      1.562483
      5.42436     13.52548      8.14686         1.351789      2.123890     -0.221953
      8.16350     16.35974     13.62926         0.389930      1.051704      1.160357
      8.31277      8.24964      5.47432        -0.727190     -0.132909     -0.940389
      8.31704     11.01133      8.10639        -1.396126     -0.481100      1.457311
      8.25443     13.52595     10.92211         0.225644      2.266963      0.092250
     10.91249      5.36220      5.55888         2.110123      2.446168     -3.712580
     11.09526      8.16033      8.15591        -1.567758      0.214961      0.167353
     11.02010     10.94325     10.84040        -0.040280      0.595264      1.433263
     10.90091     13.62832     13.47883         1.004273     -0.198319      1.011907
     13.60776     16.31063     19.13805         1.004238      1.215502      0.149163
     13.65301      8.24199     10.90150        -0.426366     -1.292256     -1.656645
     13.67031     10.65339     13.65843        -0.442490      3.073496      0.311837
     13.68194     13.77449     16.27073         0.631786      0.328809      0.251511
      8.36383     19.02863     11.02012        -1.604698      0.163962     -1.205353
     19.04039     10.88309     13.58934         0.950226      1.280822      1.016699
      8.24307     13.67086      5.48409        -0.825604      0.275467      0.043493
     19.17106     16.38686     19.02761        -0.643704     -0.723404      0.104546
     10.99577     19.10690     13.67351        -0.800244      1.198044     -0.220659
     11.00120     10.78851      5.39391        -1.192698      2.056629      1.303061
     10.85380     13.76544      8.18305         1.778336     -2.328701      2.193936
     10.89289     16.40397     11.10010        -0.382827     -0.701538     -3.530553
     13.67885      8.22228      5.47802        -0.647376     -1.149713      0.236571
     13.82606     11.08070      8.14474        -1.669144     -1.128089      0.142880
     13.59262     13.83246     10.95669         1.334256     -1.765560     -0.382566
     13.70670     16.41483     13.77102        -0.639437     -0.125847     -2.036801
     16.39855     19.10926     19.06814         1.009438      1.194799     -0.130543
     16.43492     10.80310     10.99726        -1.039512      2.360611     -0.088102
     16.33338     13.57995     13.74334         0.636792      1.141647     -0.775586
     16.34491     16.43853     16.38352        -0.391398     -0.195726     -0.209941
      1.36968      1.44147      1.51963         0.707596     -0.383530     -0.994822
      1.35885      4.24840      4.13562        -0.092168     -2.527444     -0.802434
      1.40142      6.87202      6.71866        -0.626056     -0.425389      1.100845
      1.27215      9.51834      9.56295         0.997409      0.239768     -0.474642
      4.16911      1.48063      4.10642        -0.951215     -1.873667      0.472107
      3.93248      4.08447      6.68520         1.284107     -0.235055      2.417151
      4.01986      6.86023      9.70278         2.321670     -2.120469     -2.532173
      4.11606      9.60814     12.36371         0.053345     -0.490138     -1.714706
      6.85934      1.43175      6.91944        -0.886258     -1.346200     -0.456841
      6.78006      4.23318      9.60530         1.081749     -1.001747     -0.761788
      6.84736      6.93905     12.34089         0.238821      0.054853      0.618369
      6.73348      9.47884     14.91709         1.559853      0.920544      2.203232
      9.56899      1.36486      9.54299        -0.071552     -0.975207     -0.022253
      9.43133      4.11541     12.10929         0.157830     -0.920787      1.629503
      9.60886      7.00544     15.02518         0.410520     -2.088803     -1.326867
      9.62398      9.64112     17.80964        -1.194942      0.394877      0.057492
      4.10500      4.03997      1.20894         0.475586      0.975964      1.104342
      4.10492      6.99163      4.12260         1.695086     -2.440784     -1.843192
      3.93166      9.57876      6.78440         1.285481      0.500910      0.203721
      4.10383     12.29891      9.45420        -0.772572     -0.783429      0.290916
      6.76345      4.16057      4.00531         1.224341     -0.416643      1.588124
      6.89940      7.02582      6.81509        -0.523170     -2.053948     -0.030845
      6.62940      9.53971      9.55362         1.209607      0.643993     -0.697315
      6.96033     12.25246     12.27018        -1.491764      0.302283      1.151121
      9.74600      4.17615      6.79776        -4.120785     -1.613109      2.205873
      9.51738      6.86132      9.59621         2.303028      1.281940      1.200774
      9.59745      9.51671     12.09321        -0.055363      1.632032      1.688080
      9.66170     12.43543     15.02501        -1.315328     -0.854823      0.171531
     12.33084      4.06590      9.54064        -1.689747     -0.449415      0.416586
     12.32376      6.83062     12.26390         0.628597      0.047651      0.613033
     12.24354      9.61627     15.08159        -0.180808     -1.440110     -0.929567
     12.51791     12.31555     17.57284        -2.231242      0.339477      0.566707
      6.84698      6.84573      1.45327         0.286501      0.293837     -0.749210
      6.93003      9.68772      4.17228        -1.002830     -1.383231     -0.617410
      6.85644     12.27104      6.79002        -0.679349     -0.428337     -0.748187
      6.87504     15.10606      9.58806         0.526327     -1.937880     -0.788730
      9.58802      6.85728      4.06012        -0.008007     -0.911729      0.517199
      9.52918      9.58158      6.82502         1.975334     -0.420204      0.267087
      9.64650     12.26304      9.62287        -0.306997      0.498391     -1.428569
      9.65681     15.15012     12.42620        -1.972056     -1.645101     -1.206649
     12.37060      6.73558      6.77104        -0.200173      0.285408      0.196192
     12.27118      9.65694      9.52629         1.836747     -0.629503     -1.031565
     12.45410     12.36504     12.28092        -0.748154     -1.743878      0.227571
     12.24268     14.98306     14.86999        -0.188251      0.326847      1.062418
     15.15078      6.85285      9.41498        -1.267092     -1.198562      1.983412
     14.90713      9.56698     12.16764         1.829378     -0.694054      0.700275
     14.94656     12.25263     14.99984        -0.493025     -0.270985     -0.557468
     15.06299     15.11213     17.82977        -0.130999     -1.293403     -0.866232
      9.45050      9.68151      1.27376         2.540033     -0.425958      0.491974
      9.53258     12.32303      4.12794        -0.234366     -1.971084     -0.127926
      9.66423     14.92488      6.85926        -2.026658      2.011968     -1.684410
      9.53760     17.68531      9.45472        -0.225504     -0.587051      1.954782
     12.38586      9.53302      4.18985        -0.676700     -0.897590     -1.374571
     12.26145     12.35063      6.89844        -0.507936     -1.043237     -0.269360
     12.27284     14.96343      9.61958        -1.494273      1.519937     -0.574676
     12.14877     17.74353     12.20941         3.161784      1.441344      1.606967
     14.94074      9.49863      6.79324         0.726085      0.448210      1.444786
     14.99821     12.36340      9.58591         1.036674     -0.041879      1.272694
     15.07233     15.02857     12.17483         0.541980      0.762377      2.172766
     14.97129     17.85099     15.06000         0.600229     -0.501353      0.042401
     17.78260      9.65318      9.64149        -0.388324     -3.309549      0.306689
     17.76717     12.30696     12.34392        -1.064267     -0.357848     -0.029313
     17.76389     15.13342     15.08976        -0.104723     -1.153501     -0.593918
     17.69004     17.66356     17.71779         1.623018      1.619353     -0.071040
 -----------------------------------------------------------------------------------
    total drift:                                0.000012      0.000000      0.000003


--------------------------------------------------------------------------------------------------------



  FREE ENERGIE OF THE ION-ELECTRON SYSTEM (eV)
  ---------------------------------------------------
  free  energy   TOTEN  =      -677.62320543 eV

  energy  without entropy=     -677.62320543  energy(sigma->0) =     -677.62320543
 


--------------------------------------------------------------------------------------------------------


    POTLOK:  cpu time    0.9947: real time    0.9947


--------------------------------------------------------------------------------------------------------


     LOOP+:  cpu time 1656.6200: real time 1656.9240
    4ORBIT:  cpu time    0.0000: real time    0.0000

 total amount of memory used by VASP MPI-rank0   221701. kBytes
=======================================================================

   base      :      30000. kBytes
   nonl-proj :      10690. kBytes
   fftplans  :      66746. kBytes
   grid      :      26864. kBytes
   one-center:         24. kBytes
   wavefun   :      87377. kBytes
 
  
  
 General timing and accounting informations for this job:
 ========================================================
  
                  Total CPU time used (sec):     1680.604
                            User time (sec):     1679.312
                          System time (sec):        1.292
                         Elapsed time (sec):     1681.930
  
                   Maximum memory used (kb):      338256.
                   Average memory used (kb):           0.
  
                          Minor page faults:       201344
                          Major page faults:            0
                 Voluntary context switches:         1329
