potpaw_PBE@./ARUN.APL1ZEROSTATE         
           1
     0.000000   10.937334   10.937334
    10.937334    0.000000   10.937334
    10.937334   10.937334    0.000000
   Si
 128
Direct configuration=     1
   0.99511343  0.00422860  0.01323923
   0.25612586  0.99409787  0.98644106
   0.49719198  0.99808627  0.99500824
   0.76277718  0.99546669  0.98626327
   0.99264599  0.25499961  0.98878103
   0.25456064  0.25286055  0.98925386
   0.50036358  0.25699642  0.98959211
   0.74211382  0.25000016  0.00467428
   0.99635094  0.50885787  0.98509895
   0.25125476  0.50554422  0.99644039
   0.50216584  0.50947159  0.00422286
   0.75480043  0.49796781  0.99601401
   0.01145527  0.74683788  0.98527464
   0.24523689  0.75056641  0.99183413
   0.49942017  0.74429322  0.99976864
   0.74371271  0.75193557  0.01178701
   0.98820113  0.99902534  0.26183930
   0.24324639  0.00154158  0.24901799
   0.49280653  0.99634070  0.26414729
   0.74873162  0.99113349  0.25510584
   0.01187680  0.24204289  0.25366909
   0.24501873  0.25634794  0.24077695
   0.49880446  0.23472405  0.25422013
   0.75632266  0.23892617  0.25514233
   0.00323342  0.50201344  0.24546720
   0.25857667  0.49963054  0.25876833
   0.50408923  0.49471034  0.25078369
   0.75505251  0.50596844  0.24278440
   0.99420648  0.74226409  0.24754400
   0.25722708  0.75370032  0.24516727
   0.49388626  0.74050172  0.26215001
   0.74854832  0.74455156  0.25601706
   0.99335871  0.01306633  0.50217347
   0.24938376  0.99134479  0.51260997
   0.49677672  0.98846803  0.49303962
   0.74277622  0.00209129  0.49385786
   0.99775189  0.24837074  0.49801810
   0.24737249  0.25314432  0.50689206
   0.49375304  0.24741360  0.51301285
   0.74029133  0.25831646  0.49638552
   0.00039277  0.50785538  0.48987287
   0.23867706  0.50701724  0.50742180
   0.49205583  0.49908152  0.50848551
   0.74086763  0.49150114  0.50516878
   0.99845703  0.75133436  0.49282304
   0.25099695  0.74572634  0.50256786
   0.48647608  0.76231378  0.48756256
   0.74804734  0.73958478  0.51135417
   0.99132562  0.01624340  0.74846142
   0.24832579  0.99414722  0.74671502
   0.49883647  0.00257380  0.75108991
   0.74256684  0.99712661  0.75568302
   0.99588461  0.25428418  0.75105855
   0.23685941  0.25630569  0.74953371
   0.50719322  0.24098235  0.75138062
   0.75937991  0.25550208  0.74043432
   0.00098058  0.49987438  0.75078236
   0.24683282  0.49784040  0.76627528
   0.51184906  0.48992039  0.75285216
   0.75334400  0.50574017  0.74746320
   0.99561939  0.74777956  0.75153907
   0.24528135  0.76019781  0.74244587
   0.50240342  0.75414936  0.73921060
   0.75325193  0.74469275  0.74972207
   0.07275229  0.06618784  0.05904162
   0.32115510  0.05696422  0.06727568
   0.55723155  0.05705510  0.07107660
   0.81414473  0.06019553  0.05611667
   0.06482137  0.31062884  0.07055281
   0.31256221  0.29866569  0.06088105
   0.57340983  0.31371481  0.05382096
   0.81627722  0.31413669  0.06219460
   0.06819968  0.56444429  0.06270502
   0.32267536  0.55553652  0.06436420
   0.56835520  0.55997203  0.06608199
   0.80743898  0.55643041  0.05921137
   0.06120603  0.81130917  0.06358303
   0.31055866  0.79659296  0.06571283
   0.56786053  0.80589088  0.07264698
   0.81495098  0.81338351  0.06653649
   0.05229398  0.05823948  0.31708035
   0.32043024  0.05649875  0.31881411
   0.56830582  0.05199188  0.30747975
   0.80683632  0.05756107  0.31765240
   0.06411233  0.30209291  0.31628875
   0.31733086  0.30577240  0.32503988
   0.56978845  0.30369909  0.30242685
   0.80286082  0.31900159  0.31738081
   0.05613381  0.56538506  0.32569129
   0.31726892  0.56011245  0.31006124
   0.54914958  0.55653201  0.32096263
   0.81366929  0.56006685  0.32330184
   0.05831850  0.81398166  0.31342669
   0.30952533  0.81176269  0.31499797
   0.56934870  0.80956005  0.30986651
   0.79409111  0.81259292  0.33191914
   0.06637886  0.06649340  0.55952614
   0.31680329  0.06466783  0.56894441
   0.55793389  0.06287726  0.56400670
   0.81459875  0.06203752  0.56654744
   0.06077235  0.31044446  0.56618812
   0.31440078  0.30961015  0.56164242
   0.55952464  0.32029423  0.56168507
   0.81919040  0.31693661  0.56598479
   0.05193321  0.56714296  0.56390062
   0.31598457  0.55500397  0.56694930
   0.55735034  0.56549377  0.57318444
   0.80505771  0.55450489  0.56484294
   0.05106632  0.80974526  0.57548955
   0.31211879  0.80036828  0.56258967
   0.56256466  0.80887027  0.55769304
   0.81733401  0.81284120  0.56436728
   0.06879030  0.04766945  0.81638944
   0.31627388  0.06114356  0.81042017
   0.55406151  0.07308051  0.81051942
   0.80469478  0.05975013  0.81227198
   0.06112139  0.32195653  0.81048232
   0.31943842  0.31128524  0.80977887
   0.56275906  0.31675840  0.80534659
   0.81391708  0.30238847  0.80837290
   0.06176666  0.55933870  0.80669251
   0.31776917  0.55867012  0.81261589
   0.55457182  0.55857286  0.81948980
   0.82011303  0.55682199  0.81200262
   0.06912425  0.81239641  0.81346571
   0.31468846  0.81391557  0.81053611
   0.56957604  0.81007985  0.81407190
   0.80875740  0.81117931  0.80622079
