 128 128   0   0
  0.2044346E+02  0.1546773E-08  0.1546773E-08  0.1546773E-08  0.5000000E-15
  1.000000000000000E-004
  CAR 
 potpaw_PBE@./ARUN.APL1ZEROSTATE         
      9.34131911     -7.05543428  301      5.85700902      1.00000000
     -7.055  0.0000E+00  0.0000E+00
     -7.001  0.0000E+00  0.0000E+00
     -6.946  0.0000E+00  0.0000E+00
     -6.891  0.0000E+00  0.0000E+00
     -6.837  0.0000E+00  0.0000E+00
     -6.782  0.0000E+00  0.0000E+00
     -6.727  0.0000E+00  0.0000E+00
     -6.673  0.0000E+00  0.0000E+00
     -6.618  0.0000E+00  0.0000E+00
     -6.564  0.0000E+00  0.0000E+00
     -6.509  0.0000E+00  0.0000E+00
     -6.454  0.0000E+00  0.0000E+00
     -6.400  0.0000E+00  0.0000E+00
     -6.345  0.1992E-05  0.1089E-06
     -6.290  0.4563E+01  0.2494E+00
     -6.236  0.1130E-01  0.2500E+00
     -6.181  0.1611E+00  0.2588E+00
     -6.126  0.2132E+02  0.1424E+01
     -6.072  0.2473E+02  0.2776E+01
     -6.017  0.1322E+02  0.3498E+01
     -5.962  0.4175E+01  0.3727E+01
     -5.908  0.9716E+00  0.3780E+01
     -5.853  0.1404E+02  0.4547E+01
     -5.798  0.1280E+02  0.5247E+01
     -5.744  0.1345E+02  0.5982E+01
     -5.689  0.3186E+02  0.7723E+01
     -5.634  0.2806E+02  0.9257E+01
     -5.580  0.2510E+02  0.1063E+02
     -5.525  0.2411E+02  0.1195E+02
     -5.470  0.2310E+02  0.1321E+02
     -5.416  0.2086E+02  0.1435E+02
     -5.361  0.9538E+01  0.1487E+02
     -5.306  0.2368E+01  0.1500E+02
     -5.252  0.2214E+02  0.1621E+02
     -5.197  0.1993E+02  0.1730E+02
     -5.142  0.3329E+02  0.1912E+02
     -5.088  0.3187E+02  0.2086E+02
     -5.033  0.4679E+02  0.2342E+02
     -4.979  0.3448E+02  0.2530E+02
     -4.924  0.3512E+02  0.2722E+02
     -4.869  0.1103E+02  0.2783E+02
     -4.815  0.3051E+02  0.2949E+02
     -4.760  0.3038E+02  0.3115E+02
     -4.705  0.3793E+02  0.3323E+02
     -4.651  0.4051E+02  0.3544E+02
     -4.596  0.3645E+02  0.3743E+02
     -4.541  0.4208E+02  0.3973E+02
     -4.487  0.1773E+02  0.4070E+02
     -4.432  0.2715E+02  0.4219E+02
     -4.377  0.1990E+02  0.4327E+02
     -4.323  0.1841E+02  0.4428E+02
     -4.268  0.4265E+02  0.4661E+02
     -4.213  0.6631E+02  0.5023E+02
     -4.159  0.3785E+02  0.5230E+02
     -4.104  0.7400E+02  0.5635E+02
     -4.049  0.4148E+02  0.5861E+02
     -3.995  0.6945E+02  0.6241E+02
     -3.940  0.5460E+02  0.6539E+02
     -3.885  0.3695E+02  0.6741E+02
     -3.831  0.3544E+02  0.6935E+02
     -3.776  0.5747E+02  0.7249E+02
     -3.721  0.5306E+02  0.7539E+02
     -3.667  0.3463E+02  0.7729E+02
     -3.612  0.2951E+02  0.7890E+02
     -3.557  0.2636E+02  0.8034E+02
     -3.503  0.4380E+02  0.8273E+02
     -3.448  0.4700E+02  0.8530E+02
     -3.393  0.4830E+02  0.8794E+02
     -3.339  0.7007E+02  0.9177E+02
     -3.284  0.4274E+02  0.9411E+02
     -3.230  0.3974E+02  0.9628E+02
     -3.175  0.2798E+02  0.9781E+02
     -3.120  0.2843E+02  0.9936E+02
     -3.066  0.5394E+02  0.1023E+03
     -3.011  0.3869E+02  0.1044E+03
     -2.956  0.5468E+02  0.1074E+03
     -2.902  0.3450E+02  0.1093E+03
     -2.847  0.4630E+02  0.1118E+03
     -2.792  0.2257E+02  0.1131E+03
     -2.738  0.3224E+02  0.1148E+03
     -2.683  0.2987E+02  0.1165E+03
     -2.628  0.3457E+02  0.1183E+03
     -2.574  0.3004E+02  0.1200E+03
     -2.519  0.3673E+02  0.1220E+03
     -2.464  0.1332E+02  0.1227E+03
     -2.410  0.4676E+00  0.1228E+03
     -2.355  0.8684E+00  0.1228E+03
     -2.300  0.7827E+01  0.1232E+03
     -2.246  0.5041E+01  0.1235E+03
     -2.191  0.2306E+02  0.1248E+03
     -2.136  0.2400E+02  0.1261E+03
     -2.082  0.3342E+02  0.1279E+03
     -2.027  0.3365E+02  0.1297E+03
     -1.972  0.2310E+02  0.1310E+03
     -1.918  0.2102E+02  0.1322E+03
     -1.863  0.6575E+01  0.1325E+03
     -1.808  0.8911E+01  0.1330E+03
     -1.754  0.1049E+01  0.1331E+03
     -1.699  0.4186E+01  0.1333E+03
     -1.645  0.1322E+02  0.1340E+03
     -1.590  0.2055E+02  0.1351E+03
     -1.535  0.3519E+02  0.1371E+03
     -1.481  0.3975E+02  0.1392E+03
     -1.426  0.3098E+02  0.1409E+03
     -1.371  0.3676E+02  0.1429E+03
     -1.317  0.6378E+02  0.1464E+03
     -1.262  0.5445E+02  0.1494E+03
     -1.207  0.6236E+02  0.1528E+03
     -1.153  0.6383E+02  0.1563E+03
     -1.098  0.7127E+02  0.1602E+03
     -1.043  0.6387E+02  0.1637E+03
     -0.989  0.6195E+02  0.1671E+03
     -0.934  0.6333E+02  0.1705E+03
     -0.879  0.6580E+02  0.1741E+03
     -0.825  0.7500E+02  0.1782E+03
     -0.770  0.4587E+02  0.1807E+03
     -0.715  0.6173E+02  0.1841E+03
     -0.661  0.3360E+02  0.1859E+03
     -0.606  0.4072E+02  0.1882E+03
     -0.551  0.2649E+02  0.1896E+03
     -0.497  0.1636E+02  0.1905E+03
     -0.442  0.1833E+02  0.1915E+03
     -0.387  0.3282E+02  0.1933E+03
     -0.333  0.5560E+02  0.1963E+03
     -0.278  0.4000E+02  0.1985E+03
     -0.223  0.5273E+02  0.2014E+03
     -0.169  0.4739E+02  0.2040E+03
     -0.114  0.5155E+02  0.2068E+03
     -0.059  0.3692E+02  0.2088E+03
     -0.005  0.4538E+02  0.2113E+03
      0.050  0.3275E+02  0.2131E+03
      0.104  0.1227E+02  0.2138E+03
      0.159  0.9391E+01  0.2143E+03
      0.214  0.8701E+01  0.2148E+03
      0.268  0.1205E+02  0.2154E+03
      0.323  0.2783E+02  0.2169E+03
      0.378  0.2820E+02  0.2185E+03
      0.432  0.1996E+02  0.2196E+03
      0.487  0.2679E+02  0.2210E+03
      0.542  0.2830E+02  0.2226E+03
      0.596  0.1670E+02  0.2235E+03
      0.651  0.1730E+02  0.2244E+03
      0.706  0.1859E+02  0.2255E+03
      0.760  0.2427E+02  0.2268E+03
      0.815  0.8573E+01  0.2272E+03
      0.870  0.9357E+01  0.2278E+03
      0.924  0.2663E+02  0.2292E+03
      0.979  0.1981E+02  0.2303E+03
      1.034  0.1807E+02  0.2313E+03
      1.088  0.2522E+02  0.2327E+03
      1.143  0.2443E+02  0.2340E+03
      1.198  0.2635E+02  0.2354E+03
      1.252  0.2817E+02  0.2370E+03
      1.307  0.2672E+02  0.2384E+03
      1.362  0.2885E+02  0.2400E+03
      1.416  0.4895E+02  0.2427E+03
      1.471  0.5319E+02  0.2456E+03
      1.526  0.7972E+02  0.2500E+03
      1.580  0.9507E+02  0.2552E+03
      1.635  0.8506E+02  0.2598E+03
      1.690  0.7771E+02  0.2640E+03
      1.744  0.4926E+02  0.2667E+03
      1.799  0.5240E+02  0.2696E+03
      1.853  0.4420E+02  0.2720E+03
      1.908  0.2137E+02  0.2732E+03
      1.963  0.2035E+02  0.2743E+03
      2.017  0.2483E+02  0.2757E+03
      2.072  0.5309E+02  0.2786E+03
      2.127  0.1004E+03  0.2840E+03
      2.181  0.1103E+03  0.2901E+03
      2.236  0.1179E+03  0.2965E+03
      2.291  0.1234E+03  0.3033E+03
      2.345  0.1135E+03  0.3095E+03
      2.400  0.1076E+03  0.3154E+03
      2.455  0.8638E+02  0.3201E+03
      2.509  0.4551E+02  0.3226E+03
      2.564  0.2348E+02  0.3238E+03
      2.619  0.4782E+02  0.3265E+03
      2.673  0.5408E+02  0.3294E+03
      2.728  0.7363E+02  0.3334E+03
      2.783  0.9918E+02  0.3389E+03
      2.837  0.8872E+02  0.3437E+03
      2.892  0.9275E+02  0.3488E+03
      2.947  0.1045E+03  0.3545E+03
      3.001  0.1114E+03  0.3606E+03
      3.056  0.1020E+03  0.3662E+03
      3.111  0.7213E+02  0.3701E+03
      3.165  0.6049E+02  0.3734E+03
      3.220  0.8581E+02  0.3781E+03
      3.275  0.9274E+02  0.3832E+03
      3.329  0.9615E+02  0.3884E+03
      3.384  0.8694E+02  0.3932E+03
      3.438  0.9268E+02  0.3982E+03
      3.493  0.7974E+02  0.4026E+03
      3.548  0.8391E+02  0.4072E+03
      3.602  0.8056E+02  0.4116E+03
      3.657  0.7060E+02  0.4154E+03
      3.712  0.8023E+02  0.4198E+03
      3.766  0.9262E+02  0.4249E+03
      3.821  0.7450E+02  0.4290E+03
      3.876  0.7058E+02  0.4328E+03
      3.930  0.8501E+02  0.4375E+03
      3.985  0.7413E+02  0.4415E+03
      4.040  0.5965E+02  0.4448E+03
      4.094  0.5793E+02  0.4479E+03
      4.149  0.6797E+02  0.4517E+03
      4.204  0.8285E+02  0.4562E+03
      4.258  0.8359E+02  0.4608E+03
      4.313  0.6615E+02  0.4644E+03
      4.368  0.7655E+02  0.4686E+03
      4.422  0.7655E+02  0.4727E+03
      4.477  0.6874E+02  0.4765E+03
      4.532  0.7073E+02  0.4804E+03
      4.586  0.6360E+02  0.4838E+03
      4.641  0.5985E+02  0.4871E+03
      4.696  0.4641E+02  0.4896E+03
      4.750  0.2877E+02  0.4912E+03
      4.805  0.2062E+02  0.4923E+03
      4.860  0.1799E+02  0.4933E+03
      4.914  0.4155E+02  0.4956E+03
      4.969  0.5584E+02  0.4987E+03
      5.024  0.3359E+02  0.5005E+03
      5.078  0.2467E+02  0.5018E+03
      5.133  0.3052E+02  0.5035E+03
      5.187  0.7436E+01  0.5039E+03
      5.242  0.1663E+01  0.5040E+03
      5.297  0.1684E+02  0.5049E+03
      5.351  0.1352E+02  0.5057E+03
      5.406  0.2143E+02  0.5068E+03
      5.461  0.2610E+02  0.5083E+03
      5.515  0.2239E+02  0.5095E+03
      5.570  0.2342E+02  0.5108E+03
      5.625  0.9069E+01  0.5113E+03
      5.679  0.4449E+01  0.5115E+03
      5.734  0.7154E+00  0.5115E+03
      5.789  0.3899E+01  0.5118E+03
      5.843  0.4534E+01  0.5120E+03
      5.898  0.0000E+00  0.5120E+03
      5.953  0.0000E+00  0.5120E+03
      6.007  0.0000E+00  0.5120E+03
      6.062  0.0000E+00  0.5120E+03
      6.117  0.2562E-01  0.5120E+03
      6.171  0.1921E+02  0.5131E+03
      6.226  0.1518E+02  0.5139E+03
      6.281  0.1197E+02  0.5145E+03
      6.335  0.1360E+02  0.5153E+03
      6.390  0.2609E+02  0.5167E+03
      6.445  0.3158E+02  0.5184E+03
      6.499  0.2396E+02  0.5197E+03
      6.554  0.2539E+02  0.5211E+03
      6.609  0.1034E+02  0.5217E+03
      6.663  0.1668E+02  0.5226E+03
      6.718  0.2264E+02  0.5238E+03
      6.772  0.3185E+02  0.5256E+03
      6.827  0.4010E+02  0.5278E+03
      6.882  0.2724E+02  0.5293E+03
      6.936  0.4257E+02  0.5316E+03
      6.991  0.3519E+02  0.5335E+03
      7.046  0.5225E+02  0.5364E+03
      7.100  0.3984E+02  0.5385E+03
      7.155  0.2050E+02  0.5397E+03
      7.210  0.1771E+02  0.5406E+03
      7.264  0.4897E+02  0.5433E+03
      7.319  0.7273E+02  0.5473E+03
      7.374  0.8785E+02  0.5521E+03
      7.428  0.7824E+02  0.5564E+03
      7.483  0.7744E+02  0.5606E+03
      7.538  0.8755E+02  0.5654E+03
      7.592  0.7032E+02  0.5692E+03
      7.647  0.9451E+02  0.5744E+03
      7.702  0.9145E+02  0.5794E+03
      7.756  0.8673E+02  0.5841E+03
      7.811  0.9889E+02  0.5895E+03
      7.866  0.9239E+02  0.5946E+03
      7.920  0.9351E+02  0.5997E+03
      7.975  0.9824E+02  0.6051E+03
      8.030  0.9147E+02  0.6101E+03
      8.084  0.8407E+02  0.6147E+03
      8.139  0.6358E+02  0.6181E+03
      8.194  0.8442E+02  0.6227E+03
      8.248  0.9858E+02  0.6281E+03
      8.303  0.7183E+02  0.6321E+03
      8.358  0.1018E+03  0.6376E+03
      8.412  0.5798E+02  0.6408E+03
      8.467  0.3995E+02  0.6430E+03
      8.521  0.9304E+01  0.6435E+03
      8.576  0.4231E+01  0.6437E+03
      8.631  0.5113E+01  0.6440E+03
      8.685  0.0000E+00  0.6440E+03
      8.740  0.0000E+00  0.6440E+03
      8.795  0.0000E+00  0.6440E+03
      8.849  0.0000E+00  0.6440E+03
      8.904  0.0000E+00  0.6440E+03
      8.959  0.0000E+00  0.6440E+03
      9.013  0.0000E+00  0.6440E+03
      9.068  0.0000E+00  0.6440E+03
      9.123  0.0000E+00  0.6440E+03
      9.177  0.0000E+00  0.6440E+03
      9.232  0.0000E+00  0.6440E+03
      9.287  0.0000E+00  0.6440E+03
      9.341  0.0000E+00  0.6440E+03
