 vasp.5.4.4.18Apr17-6-g9f103f2a35 (build Nov 08 2017 09:05:29) complex          
  
 executed on          Intel_17.33 date 2020.07.18  21:00:02
 running on   32 total cores
 distrk:  each k-point on   32 cores,    1 groups
 distr:  one band on NCORES_PER_BAND=  16 cores,    2 groups


--------------------------------------------------------------------------------------------------------


 INCAR:
 POTCAR:   PAW_PBE Si 05Jan2001                   

 ----------------------------------------------------------------------------- 
|                                                                             |
|           W    W    AA    RRRRR   N    N  II  N    N   GGGG   !!!           |
|           W    W   A  A   R    R  NN   N  II  NN   N  G    G  !!!           |
|           W    W  A    A  R    R  N N  N  II  N N  N  G       !!!           |
|           W WW W  AAAAAA  RRRRR   N  N N  II  N  N N  G  GGG   !            |
|           WW  WW  A    A  R   R   N   NN  II  N   NN  G    G                |
|           W    W  A    A  R    R  N    N  II  N    N   GGGG   !!!           |
|                                                                             |
|      For optimal performance we recommend to set                            |
|        NCORE= 4 - approx SQRT( number of cores)                             |
|      NCORE specifies how many cores store one orbital (NPAR=cpu/NCORE).     |
|      This setting can  greatly improve the performance of VASP for DFT.     |
|      The default,   NCORE=1            might be grossly inefficient         |
|      on modern multi-core architectures or massively parallel machines.     |
|      Do your own testing !!!!                                               |
|      Unfortunately you need to use the default for GW and RPA calculations. |
|      (for HF NCORE is supported but not extensively tested yet)             |
|                                                                             |
 ----------------------------------------------------------------------------- 

 POTCAR:   PAW_PBE Si 05Jan2001                   
   VRHFIN =Si: s2p2                                                             
   LEXCH  = PE                                                                  
   EATOM  =   103.0669 eV,    7.5752 Ry                                         
                                                                                
   TITEL  = PAW_PBE Si 05Jan2001                                                
   LULTRA =        F    use ultrasoft PP ?                                      
   IUNSCR =        1    unscreen: 0-lin 1-nonlin 2-no                           
   RPACOR =    1.500    partial core radius                                     
   POMASS =   28.085; ZVAL   =    4.000    mass and valenz                      
   RCORE  =    1.900    outmost cutoff radius                                   
   RWIGS  =    2.480; RWIGS  =    1.312    wigner-seitz radius (au A)           
   ENMAX  =  245.345; ENMIN  =  184.009 eV                                      
   ICORE  =        2    local potential                                         
   LCOR   =        T    correct aug charges                                     
   LPAW   =        T    paw PP                                                  
   EAUG   =  322.069                                                            
   DEXC   =    -.007                                                            
   RMAX   =    2.944    core radius for proj-oper                               
   RAUG   =    1.300    factor for augmentation sphere                          
   RDEP   =    1.993    radius for radial grids                                 
   QCUT   =   -4.246; QGAM   =    8.493    optimization parameters              
                                                                                
   Description                                                                  
     l     E      TYP  RCUT    TYP  RCUT                                        
     0   .000     23  1.900                                                     
     0   .000     23  1.900                                                     
     1   .000     23  1.900                                                     
     1   .000     23  1.900                                                     
     2   .000      7  1.900                                                     
  local pseudopotential read in
  partial core-charges read in
  atomic valenz-charges read in
  non local Contribution for L=           0  read in
    real space projection operators read in
  non local Contribution for L=           0  read in
    real space projection operators read in
  non local Contribution for L=           1  read in
    real space projection operators read in
  non local Contribution for L=           1  read in
    real space projection operators read in
    PAW grid and wavefunctions read in
 
   number of l-projection  operators is LMAX  =           4
   number of lm-projection operators is LMMAX =           8
 

 ----------------------------------------------------------------------------- 
|                                                                             |
|  ADVICE TO THIS USER RUNNING 'VASP/VAMP'   (HEAR YOUR MASTER'S VOICE ...):  |
|                                                                             |
|      You have a (more or less) 'large supercell' and for larger cells       |
|      it might be more efficient to use real space projection operators      |
|      So try LREAL= Auto  in the INCAR   file.                               |
|      Mind: If you want to do a very accurate calculations keep the          |
|      reciprocal projection scheme          (i.e. LREAL=.FALSE.)             |
|                                                                             |
 ----------------------------------------------------------------------------- 

 PAW_PBE Si 05Jan2001                   :
 energy of atom  1       EATOM= -103.0669
 kinetic energy error for atom=    0.0006 (will be added to EATOM!!)
 
 
 POSCAR: kk                                      
  positions in direct lattice
  No initial velocities read in
 exchange correlation table for  LEXCH =        8
   RHO(1)=    0.500       N(1)  =     2000
   RHO(2)=  100.500       N(2)  =     4000
 


--------------------------------------------------------------------------------------------------------


 ion  position               nearest neighbor table
   1  0.011  0.992  0.998-  65 2.13 113 2.21  77 2.33  68 2.57
   2  0.248  0.999  0.993- 114 2.27  65 2.34  78 2.34  66 2.48
   3  0.499  0.004  0.001-  67 2.21  66 2.47 115 2.52  79 2.57
   4  0.741  0.005  0.991- 116 2.15  67 2.27  68 2.58  80 2.64
   5  0.002  0.248  0.998-  69 2.26  72 2.34 117 2.43  65 2.47
   6  0.236  0.259  1.000-  70 2.29  69 2.38  66 2.43 118 2.48
   7  0.494  0.251  0.999-  67 2.36 119 2.38  70 2.42  71 2.61
   8  0.743  0.251  0.008-  72 2.27  71 2.29  68 2.36 120 2.41
   9  0.004  0.505  0.995-  73 2.33 121 2.35  69 2.37  76 2.48
  10  0.255  0.514  0.996-  74 2.13 122 2.28  73 2.50  70 2.61
  11  0.502  0.506  0.997-  75 2.21  71 2.33  74 2.35 123 2.45
  12  0.735  0.503  0.998-  75 2.18 124 2.33  76 2.47  72 2.60
  13  0.995  0.759  0.994-  80 2.33  73 2.33 125 2.36  77 2.39
  14  0.253  0.747  0.998- 126 2.29  74 2.29  77 2.32  78 2.33
  15  0.500  0.749  0.996- 127 2.31  75 2.39  79 2.39  78 2.50
  16  0.748  0.741  0.002-  76 2.26  79 2.31 128 2.33  80 2.39
  17  0.996  0.003  0.249-  84 2.25  81 2.43  65 2.48  93 2.51
  18  0.250  0.992  0.253-  81 2.35  66 2.36  82 2.38  94 2.42
  19  0.523  0.991  0.248-  83 2.17  95 2.25  67 2.49  82 2.70
  20  0.748  0.999  0.241-  68 2.18  96 2.28  83 2.29  84 2.52
  21  0.991  0.242  0.257-  88 2.27  81 2.29  85 2.44  69 2.48
  22  0.253  0.255  0.245-  86 2.27  70 2.29  85 2.43  82 2.44
  23  0.501  0.249  0.256-  87 2.30  71 2.41  83 2.44  86 2.44
  24  0.748  0.263  0.245-  72 2.30  88 2.35  87 2.41  84 2.53
  25  0.994  0.501  0.255-  89 2.27  85 2.36  92 2.44  73 2.50
  26  0.261  0.495  0.246-  86 2.24  90 2.38  74 2.46  89 2.56
  27  0.502  0.499  0.245-  75 2.37  87 2.37  90 2.45  91 2.56
  28  0.753  0.499  0.238-  76 2.21  88 2.32  91 2.40  92 2.40
  29  0.008  0.744  0.256-  93 2.25  89 2.31  96 2.36  77 2.47
  30  0.249  0.760  0.251-  93 2.29  78 2.34  94 2.36  90 2.48
  31  0.502  0.745  0.248-  94 2.11  95 2.24  79 2.26  91 2.31
  32  0.753  0.738  0.252-  92 2.17  80 2.28  95 2.53  96 2.68
  33  0.001  0.984  0.504- 109 2.28 100 2.30  81 2.40  97 2.45
  34  0.243  0.998  0.507- 110 2.29  98 2.31  97 2.32  82 2.45
  35  0.504  0.991  0.507-  99 2.30 111 2.36  98 2.45  83 2.49
  36  0.750  0.012  0.505- 100 2.28  99 2.31  84 2.52 112 2.56
  37  0.999  0.257  0.490-  85 2.31  97 2.36 104 2.41 101 2.47
  38  0.247  0.250  0.506- 101 2.37 102 2.48  98 2.48  86 2.52
  39  0.504  0.242  0.500-  87 2.31  99 2.35 102 2.47 103 2.48
  40  0.761  0.238  0.500- 100 2.24  88 2.36 104 2.37 103 2.42
  41  0.992  0.495  0.502- 101 2.17 108 2.29 105 2.38  89 2.45
  42  0.244  0.494  0.516- 102 2.24 106 2.34 105 2.36  90 2.52
  43  0.493  0.503  0.502-  91 2.29 106 2.31 107 2.32 103 2.45
  44  0.753  0.494  0.495-  92 2.32 104 2.41 107 2.43 108 2.51
  45  0.008  0.755  0.498- 109 2.21  93 2.35 112 2.46 105 2.54
  46  0.260  0.743  0.496- 106 2.26  94 2.38 109 2.46 110 2.48
  47  0.488  0.751  0.503- 110 2.32 111 2.45 107 2.51  95 2.55
  48  0.753  0.755  0.492-  96 2.27 111 2.33 112 2.38 108 2.43
  49  0.002  0.000  0.753- 113 2.42 125 2.44 116 2.55  97 2.57
  50  0.249  0.001  0.753- 114 2.26 113 2.32  98 2.36 126 2.39
  51  0.503  1.000  0.747- 127 2.25 115 2.29  99 2.36 114 2.42
  52  0.748  0.009  0.744- 100 2.28 116 2.35 115 2.47 128 2.57
  53  0.000  0.239  0.754- 120 2.28 113 2.29 117 2.29 101 2.49
  54  0.246  0.236  0.756- 114 2.26 102 2.33 117 2.36 118 2.57
  55  0.499  0.263  0.746- 119 2.23 118 2.24 103 2.31 115 2.39
  56  0.766  0.238  0.751- 116 2.18 104 2.25 120 2.36 119 2.59
  57  0.001  0.503  0.743- 105 2.26 121 2.30 124 2.44 117 2.47
  58  0.259  0.503  0.751- 122 2.29 106 2.35 118 2.39 121 2.62
  59  0.487  0.517  0.748- 122 2.23 107 2.31 123 2.32 119 2.58
  60  0.752  0.498  0.745- 108 2.27 123 2.38 124 2.39 120 2.45
  61  0.010  0.741  0.741- 109 2.19 121 2.23 125 2.36 128 2.46
  62  0.258  0.745  0.755- 126 2.23 122 2.24 110 2.32 125 2.45
  63  0.501  0.749  0.751- 123 2.29 111 2.38 127 2.39 126 2.45
  64  0.742  0.742  0.754- 124 2.26 127 2.39 112 2.40 128 2.55
  65  0.063  0.054  0.053-   1 2.13   2 2.34   5 2.47  17 2.48
  66  0.303  0.067  0.067-  18 2.36   6 2.43   3 2.47   2 2.48
  67  0.562  0.064  0.054-   3 2.21   4 2.27   7 2.36  19 2.49
  68  0.808  0.064  0.069-  20 2.18   8 2.36   1 2.57   4 2.58
  69  0.048  0.319  0.061-   5 2.26   9 2.37   6 2.38  21 2.48
  70  0.302  0.308  0.065-  22 2.29   6 2.29   7 2.42  10 2.61
  71  0.562  0.322  0.065-   8 2.29  11 2.33  23 2.41   7 2.61
  72  0.817  0.298  0.066-   8 2.27  24 2.30   5 2.34  12 2.60
  73  0.057  0.574  0.057-   9 2.33  13 2.33  25 2.50  10 2.50
  74  0.316  0.566  0.052-  10 2.13  14 2.29  11 2.35  26 2.46
  75  0.563  0.560  0.058-  12 2.18  11 2.21  27 2.37  15 2.39
  76  0.807  0.562  0.062-  28 2.21  16 2.26  12 2.47   9 2.48
  77  0.069  0.808  0.060-  14 2.32   1 2.33  13 2.39  29 2.47
  78  0.302  0.814  0.067-  14 2.33  30 2.34   2 2.34  15 2.50
  79  0.565  0.800  0.069-  31 2.26  16 2.31  15 2.39   3 2.57
  80  0.812  0.796  0.071-  32 2.28  13 2.33  16 2.39   4 2.64
  81  0.065  0.061  0.315-  21 2.29  18 2.35  33 2.40  17 2.43
  82  0.309  0.062  0.312-  18 2.38  22 2.44  34 2.45  19 2.70
  83  0.567  0.056  0.310-  19 2.17  20 2.29  23 2.44  35 2.49
  84  0.817  0.063  0.307-  17 2.25  20 2.52  36 2.52  24 2.53
  85  0.060  0.315  0.307-  37 2.31  25 2.36  22 2.43  21 2.44
  86  0.308  0.318  0.306-  26 2.24  22 2.27  23 2.44  38 2.52
  87  0.558  0.312  0.317-  23 2.30  39 2.31  27 2.37  24 2.41
  88  0.812  0.317  0.314-  21 2.27  28 2.32  24 2.35  40 2.36
  89  0.059  0.562  0.308-  25 2.27  29 2.31  41 2.45  26 2.56
  90  0.309  0.563  0.317-  26 2.38  27 2.45  30 2.48  42 2.52
  91  0.565  0.563  0.322-  43 2.29  31 2.31  28 2.40  27 2.56
  92  0.801  0.566  0.312-  32 2.17  44 2.32  28 2.40  25 2.44
  93  0.068  0.805  0.313-  29 2.25  30 2.29  45 2.35  17 2.51
  94  0.335  0.802  0.307-  31 2.11  30 2.36  46 2.38  18 2.42
  95  0.554  0.817  0.301-  31 2.24  19 2.25  32 2.53  47 2.55
  96  0.821  0.821  0.313-  48 2.27  20 2.28  29 2.36  32 2.68
  97  0.060  0.070  0.550-  34 2.32  37 2.36  33 2.45  49 2.57
  98  0.310  0.054  0.567-  34 2.31  50 2.36  35 2.45  38 2.48
  99  0.569  0.056  0.560-  35 2.30  36 2.31  39 2.35  51 2.36
 100  0.820  0.062  0.565-  40 2.24  36 2.28  52 2.28  33 2.30
 101  0.060  0.324  0.558-  41 2.17  38 2.37  37 2.47  53 2.49
 102  0.310  0.317  0.573-  42 2.24  54 2.33  39 2.47  38 2.48
 103  0.570  0.309  0.564-  55 2.31  40 2.42  43 2.45  39 2.48
 104  0.810  0.304  0.573-  56 2.25  40 2.37  44 2.41  37 2.41
 105  0.058  0.555  0.564-  57 2.26  42 2.36  41 2.38  45 2.54
 106  0.310  0.564  0.565-  46 2.26  43 2.31  42 2.34  58 2.35
 107  0.561  0.552  0.567-  59 2.31  43 2.32  44 2.43  47 2.51
 108  0.812  0.563  0.566-  60 2.27  41 2.29  48 2.43  44 2.51
 109  0.065  0.803  0.568-  61 2.19  45 2.21  33 2.28  46 2.46
 110  0.304  0.817  0.573-  34 2.29  62 2.32  47 2.32  46 2.48
 111  0.569  0.804  0.563-  48 2.33  35 2.36  63 2.38  47 2.45
 112  0.814  0.809  0.565-  48 2.38  64 2.40  45 2.46  36 2.56
 113  0.065  0.058  0.824-   1 2.21  53 2.29  50 2.32  49 2.42
 114  0.311  0.057  0.814-  54 2.26  50 2.26   2 2.27  51 2.42
 115  0.553  0.074  0.802-  51 2.29  55 2.39  52 2.47   3 2.52
 116  0.800  0.067  0.821-   4 2.15  56 2.18  52 2.35  49 2.55
 117  0.060  0.308  0.806-  53 2.29  54 2.36   5 2.43  57 2.47
 118  0.322  0.314  0.805-  55 2.24  58 2.39   6 2.48  54 2.57
 119  0.561  0.313  0.810-  55 2.23   7 2.38  59 2.58  56 2.59
 120  0.819  0.304  0.818-  53 2.28  56 2.36   8 2.41  60 2.45
 121  0.052  0.566  0.810-  61 2.23  57 2.30   9 2.35  58 2.62
 122  0.311  0.568  0.816-  59 2.23  62 2.24  10 2.28  58 2.29
 123  0.564  0.569  0.802-  63 2.29  59 2.32  60 2.38  11 2.45
 124  0.807  0.563  0.814-  64 2.26  12 2.33  60 2.39  57 2.44
 125  0.065  0.808  0.807-  13 2.36  61 2.36  49 2.44  62 2.45
 126  0.307  0.812  0.817-  62 2.23  14 2.29  50 2.39  63 2.45
 127  0.554  0.822  0.814-  51 2.25  15 2.31  64 2.39  63 2.39
 128  0.816  0.806  0.817-  16 2.33  61 2.46  64 2.55  52 2.57
 
  LATTYP: Found a face centered cubic cell.
 ALAT       =    21.8746673814
  
  Lattice vectors:
  
 A1 = (   0.0000000000,  10.9373336907,  10.9373336907)
 A2 = (  10.9373336907,   0.0000000000,  10.9373336907)
 A3 = (  10.9373336907,  10.9373336907,   0.0000000000)


Analysis of symmetry for initial positions (statically):
=====================================================================
 Subroutine PRICEL returns:
 Original cell was already a primitive cell.
 

 Routine SETGRP: Setting up the symmetry group for a 
 face centered cubic supercell.


 Subroutine GETGRP returns: Found  1 space group operations
 (whereof  1 operations were pure point group operations)
 out of a pool of 48 trial point group operations.


The static configuration has the point symmetry C_1 .


Analysis of symmetry for dynamics (positions and initial velocities):
=====================================================================
 Subroutine PRICEL returns:
 Original cell was already a primitive cell.
 

 Routine SETGRP: Setting up the symmetry group for a 
 face centered cubic supercell.


 Subroutine GETGRP returns: Found  1 space group operations
 (whereof  1 operations were pure point group operations)
 out of a pool of 48 trial point group operations.


The dynamic configuration has the point symmetry C_1 .


 Subroutine INISYM returns: Found  1 space group operations
 (whereof  1 operations are pure point group operations),
 and found     1 'primitive' translations

 
 
 KPOINTS: KPOINTS File, automatically generated by

Automatic generation of k-mesh.
Space group operators:
 irot       det(A)        alpha          n_x          n_y          n_z        tau_x        tau_y        tau_z
    1     1.000000     0.000001     1.000000     0.000000     0.000000     0.000000     0.000000     0.000000
 
 Subroutine IBZKPT returns following result:
 ===========================================
 
 Found      8 irreducible k-points:
 
 Following reciprocal coordinates:
            Coordinates               Weight
  0.000000  0.000000  0.000000      1.000000
  0.500000  0.000000  0.000000      1.000000
  0.000000  0.500000  0.000000      1.000000
  0.500000  0.500000  0.000000      1.000000
  0.000000  0.000000  0.500000      1.000000
  0.500000  0.000000  0.500000      1.000000
  0.000000  0.500000  0.500000      1.000000
  0.500000  0.500000  0.500000      1.000000
 
 Following cartesian coordinates:
            Coordinates               Weight
  0.000000  0.000000  0.000000      1.000000
 -0.022857  0.022857  0.022857      1.000000
  0.022857 -0.022857  0.022857      1.000000
  0.000000  0.000000  0.045715      1.000000
  0.022857  0.022857 -0.022857      1.000000
  0.000000  0.045715  0.000000      1.000000
  0.045715  0.000000  0.000000      1.000000
  0.022857  0.022857  0.022857      1.000000
 


--------------------------------------------------------------------------------------------------------




 Dimension of arrays:
   k-points           NKPTS =      8   k-points in BZ     NKDIM =      8   number of bands    NBANDS=    322
   number of dos      NEDOS =    301   number of ions     NIONS =    128
   non local maximal  LDIM  =      4   non local SUM 2l+1 LMDIM =      8
   total plane-waves  NPLWV = ******
   max r-space proj   IRMAX =      1   max aug-charges    IRDMAX= 176811
   dimension x,y,z NGX =   120 NGY =  120 NGZ =  120
   dimension x,y,z NGXF=   240 NGYF=  240 NGZF=  240
   support grid    NGXF=   480 NGYF=  480 NGZF=  480
   ions per type =             128
   NGX,Y,Z   is equivalent  to a cutoff of  12.90, 12.90, 12.90 a.u.
   NGXF,Y,Z  is equivalent  to a cutoff of  25.80, 25.80, 25.80 a.u.

 SYSTEM =  potpaw_PBE@./ARUN.APL1ZEROSTATE         
 POSCAR =  kk                                      

 Startparameter for this run:
   NWRITE =      2    write-flag & timer
   PREC   = accura    normal or accurate (medium, high low for compatibility)
   ISTART =      0    job   : 0-new  1-cont  2-samecut
   ICHARG =      2    charge: 1-file 2-atom 10-const
   ISPIN  =      1    spin polarized calculation?
   LNONCOLLINEAR =      F non collinear calculations
   LSORBIT =      F    spin-orbit coupling
   INIWAV =      1    electr: 0-lowe 1-rand  2-diag
   LASPH  =      F    aspherical Exc in radial PAW
   METAGGA=      F    non-selfconsistent MetaGGA calc.

 Electronic Relaxation 1
   ENCUT  =  500.0 eV  36.75 Ry    6.06 a.u.  28.20 28.20 28.20*2*pi/ulx,y,z
   ENINI  =  500.0     initial cutoff
   ENAUG  =  322.1 eV  augmentation charge cutoff
   NELM   =    120;   NELMIN=  4; NELMDL= -5     # of ELM steps 
   EDIFF  = 0.1E-07   stopping-criterion for ELM
   LREAL  =      F    real-space projection
   NLSPLINE    = F    spline interpolate recip. space projectors
   LCOMPAT=      F    compatible to vasp.4.4
   GGA_COMPAT  = T    GGA compatible to vasp.4.4-vasp.4.6
   LMAXPAW     = -100 max onsite density
   LMAXMIX     =    2 max onsite mixed and CHGCAR
   VOSKOWN=      0    Vosko Wilk Nusair interpolation
   ROPT   =    0.00000
 Ionic relaxation
   EDIFFG = 0.1E-06   stopping-criterion for IOM
   NSW    =      0    number of steps for IOM
   NBLOCK =      1;   KBLOCK =      1    inner block; outer block 
   IBRION =     -1    ionic relax: 0-MD 1-quasi-New 2-CG
   NFREE  =      0    steps in history (QN), initial steepest desc. (CG)
   ISIF   =      2    stress and relaxation
   IWAVPR =     10    prediction:  0-non 1-charg 2-wave 3-comb
   ISYM   =      2    0-nonsym 1-usesym 2-fastsym
   LCORR  =      T    Harris-Foulkes like correction to forces

   POTIM  = 0.5000    time-step for ionic-motion
   TEIN   =    0.0    initial temperature
   TEBEG  =    0.0;   TEEND  =   0.0 temperature during run
   SMASS  =  -3.00    Nose mass-parameter (am)
   estimated Nose-frequenzy (Omega)   =  0.10E-29 period in steps =****** mass=  -0.547E-26a.u.
   SCALEE = 1.0000    scale energy and forces
   NPACO  =    256;   APACO  = 16.0  distance and # of slots for P.C.
   PSTRESS=    0.0 pullay stress

  Mass of Ions in am
   POMASS =  28.09
  Ionic Valenz
   ZVAL   =   4.00
  Atomic Wigner-Seitz radii
   RWIGS  =  -1.00
  virtual crystal weights 
   VCA    =   1.00
   NELECT =     512.0000    total number of electrons
   NUPDOWN=      -1.0000    fix difference up-down

 DOS related values:
   EMIN   =  10.00;   EMAX   =-10.00  energy-range for DOS
   EFERMI =   0.00
   ISMEAR =     0;   SIGMA  =   0.01  broadening in eV -4-tet -1-fermi 0-gaus

 Electronic relaxation 2 (details)
   IALGO  =     38    algorithm
   LDIAG  =      T    sub-space diagonalisation (order eigenvalues)
   LSUBROT=      F    optimize rotation matrix (better conditioning)
   TURBO    =      0    0=normal 1=particle mesh
   IRESTART =      0    0=no restart 2=restart with 2 vectors
   NREBOOT  =      0    no. of reboots
   NMIN     =      0    reboot dimension
   EREF     =   0.00    reference energy to select bands
   IMIX   =      4    mixing-type and parameters
     AMIX     =   0.40;   BMIX     =  1.00
     AMIX_MAG =   1.60;   BMIX_MAG =  1.00
     AMIN     =   0.10
     WC   =   100.;   INIMIX=   1;  MIXPRE=   1;  MAXMIX= -45

 Intra band minimization:
   WEIMIN = 0.0000     energy-eigenvalue tresh-hold
   EBREAK =  0.78E-11  absolut break condition
   DEPER  =   0.30     relativ break condition  

   TIME   =   0.40     timestep for ELM

  volume/ion in A,a.u.               =      20.44       137.96
  Fermi-wavevector in a.u.,A,eV,Ry     =   0.950408  1.796010 12.289804  0.903275
  Thomas-Fermi vector in A             =   2.078782
 
 Write flags
   LWAVE        =      F    write WAVECAR
   LDOWNSAMPLE  =      F    k-point downsampling of WAVECAR
   LCHARG       =      F    write CHGCAR
   LVTOT        =      F    write LOCPOT, total local potential
   LVHAR        =      F    write LOCPOT, Hartree potential only
   LELF         =      F    write electronic localiz. function (ELF)
   LORBIT       =      0    0 simple, 1 ext, 2 COOP (PROOUT), +10 PAW based schemes


 Dipole corrections
   LMONO  =      F    monopole corrections only (constant potential shift)
   LDIPOL =      F    correct potential (dipole corrections)
   IDIPOL =      0    1-x, 2-y, 3-z, 4-all directions 
   EPSILON=  1.0000000 bulk dielectric constant

 Exchange correlation treatment:
   GGA     =    --    GGA type
   LEXCH   =     8    internal setting for exchange type
   VOSKOWN=      0    Vosko Wilk Nusair interpolation
   LHFCALC =     F    Hartree Fock is set to
   LHFONE  =     F    Hartree Fock one center treatment
   AEXX    =    0.0000 exact exchange contribution

 Linear response parameters
   LEPSILON=     F    determine dielectric tensor
   LRPA    =     F    only Hartree local field effects (RPA)
   LNABLA  =     F    use nabla operator in PAW spheres
   LVEL    =     F    velocity operator in full k-point grid
   LINTERFAST=   F  fast interpolation
   KINTER  =     0    interpolate to denser k-point grid
   CSHIFT  =0.1000    complex shift for real part using Kramers Kronig
   OMEGAMAX=  -1.0    maximum frequency
   DEG_THRESHOLD= 0.2000000E-02 threshold for treating states as degnerate
   RTIME   =   -0.100 relaxation time in fs
  (WPLASMAI=    0.000 imaginary part of plasma frequency in eV, 0.658/RTIME)
   DFIELD  = 0.0000000 0.0000000 0.0000000 field for delta impulse in time
 
 Orbital magnetization related:
   ORBITALMAG=     F  switch on orbital magnetization
   LCHIMAG   =     F  perturbation theory with respect to B field
   DQ        =  0.001000  dq finite difference perturbation B field
   LLRAUG    =     F  two centre corrections for induced B field



--------------------------------------------------------------------------------------------------------


 Static calculation
 charge density and potential will be updated during run
 non-spin polarized calculation
 Variant of blocked Davidson
 Davidson routine will perform the subspace rotation
 perform sub-space diagonalisation
    after iterative eigenvector-optimisation
 modified Broyden-mixing scheme, WC =      100.0
 initial mixing is a Kerker type mixing with AMIX =  0.4000 and BMIX =      1.0000
 Hartree-type preconditioning will be used
 using additional bands           66
 reciprocal scheme for non local part
 use partial core corrections
 calculate Harris-corrections to forces 
   (improved forces if not selfconsistent)
 use gradient corrections 
 use of overlap-Matrix (Vanderbilt PP)
 Gauss-broadening in eV      SIGMA  =   0.01


--------------------------------------------------------------------------------------------------------


  energy-cutoff  :      500.00
  volume of cell :     2616.76
      direct lattice vectors                 reciprocal lattice vectors
     0.000000000 10.937333691 10.937333691    -0.045714981  0.045714981  0.045714981
    10.937333691  0.000000000 10.937333691     0.045714981 -0.045714981  0.045714981
    10.937333691 10.937333691  0.000000000     0.045714981  0.045714981 -0.045714981

  length of vectors
    15.467725642 15.467725642 15.467725642     0.079180669  0.079180669  0.079180669


 
 k-points in units of 2pi/SCALE and weight: KPOINTS File, automatically generated by
   0.00000000  0.00000000  0.00000000       0.125
  -0.02285749  0.02285749  0.02285749       0.125
   0.02285749 -0.02285749  0.02285749       0.125
   0.00000000  0.00000000  0.04571498       0.125
   0.02285749  0.02285749 -0.02285749       0.125
   0.00000000  0.04571498  0.00000000       0.125
   0.04571498  0.00000000  0.00000000       0.125
   0.02285749  0.02285749  0.02285749       0.125
 
 k-points in reciprocal lattice and weights: KPOINTS File, automatically generated by
   0.00000000  0.00000000  0.00000000       0.125
   0.50000000  0.00000000  0.00000000       0.125
   0.00000000  0.50000000  0.00000000       0.125
   0.50000000  0.50000000  0.00000000       0.125
   0.00000000  0.00000000  0.50000000       0.125
   0.50000000  0.00000000  0.50000000       0.125
   0.00000000  0.50000000  0.50000000       0.125
   0.50000000  0.50000000  0.50000000       0.125
 
 position of ions in fractional coordinates (direct lattice) 
   0.01128852  0.99216345  0.99826927
   0.24825567  0.99941200  0.99347089
   0.49857767  0.00401192  0.00142331
   0.74124361  0.00492349  0.99104306
   0.00205909  0.24843585  0.99823692
   0.23603606  0.25882325  0.99963756
   0.49377504  0.25086546  0.99852861
   0.74285117  0.25099461  0.00817908
   0.00365948  0.50540532  0.99542518
   0.25503037  0.51374701  0.99611194
   0.50196764  0.50649908  0.99663774
   0.73483362  0.50334335  0.99758965
   0.99500916  0.75920045  0.99384384
   0.25298451  0.74721854  0.99798547
   0.49987002  0.74882027  0.99644596
   0.74760503  0.74098256  0.00169107
   0.99564867  0.00348361  0.24914967
   0.25041054  0.99198467  0.25310876
   0.52305051  0.99084460  0.24836051
   0.74795952  0.99919650  0.24080035
   0.99125196  0.24202212  0.25651174
   0.25253347  0.25511591  0.24491868
   0.50059121  0.24892004  0.25566516
   0.74849895  0.26325231  0.24541091
   0.99381623  0.50107780  0.25458718
   0.26133758  0.49472998  0.24593029
   0.50249686  0.49907625  0.24519743
   0.75274985  0.49920980  0.23774339
   0.00776533  0.74387120  0.25610403
   0.24869085  0.75992398  0.25116579
   0.50244775  0.74477270  0.24759874
   0.75275418  0.73808683  0.25156349
   0.00110248  0.98361202  0.50373737
   0.24276412  0.99822170  0.50663959
   0.50404919  0.99098163  0.50744724
   0.74998228  0.01169288  0.50517986
   0.99910030  0.25726161  0.49035952
   0.24719484  0.25037236  0.50557376
   0.50419402  0.24234116  0.49957898
   0.76147253  0.23849738  0.49985032
   0.99240006  0.49476690  0.50205463
   0.24431131  0.49359332  0.51630808
   0.49309146  0.50252148  0.50207276
   0.75338093  0.49381623  0.49467206
   0.00819056  0.75538464  0.49805655
   0.26017646  0.74280179  0.49578973
   0.48807506  0.75104705  0.50345748
   0.75309680  0.75528343  0.49174055
   0.00187798  0.00026343  0.75317733
   0.24876467  0.00079751  0.75343233
   0.50261208  0.99969199  0.74660759
   0.74841901  0.00943604  0.74444885
   0.00010174  0.23873227  0.75427392
   0.24625610  0.23607269  0.75561674
   0.49903070  0.26263968  0.74602815
   0.76603205  0.23834831  0.75055038
   0.00066181  0.50259383  0.74322421
   0.25885367  0.50323965  0.75069663
   0.48706463  0.51683255  0.74786214
   0.75240803  0.49819271  0.74521100
   0.01043321  0.74145429  0.74100527
   0.25830532  0.74528825  0.75546037
   0.50113537  0.74934885  0.75055683
   0.74247162  0.74200936  0.75380707
   0.06326892  0.05373217  0.05326527
   0.30339632  0.06656121  0.06713985
   0.56150724  0.06405248  0.05368634
   0.80801330  0.06412866  0.06881875
   0.04774029  0.31873556  0.06093037
   0.30233805  0.30849623  0.06487572
   0.56180695  0.32239242  0.06530498
   0.81716177  0.29808449  0.06559597
   0.05725429  0.57434943  0.05709646
   0.31601631  0.56570847  0.05162939
   0.56253520  0.55987719  0.05797354
   0.80728142  0.56176289  0.06242774
   0.06899722  0.80772870  0.06024484
   0.30158818  0.81429707  0.06662407
   0.56506586  0.80022903  0.06883021
   0.81201376  0.79623706  0.07128058
   0.06478312  0.06129454  0.31458004
   0.30927383  0.06208497  0.31249725
   0.56707553  0.05611159  0.31006008
   0.81725013  0.06339627  0.30653323
   0.06025245  0.31485700  0.30734056
   0.30800622  0.31824658  0.30615766
   0.55822099  0.31172650  0.31716971
   0.81221692  0.31676117  0.31380562
   0.05881712  0.56201057  0.30800891
   0.30898440  0.56334437  0.31711199
   0.56451480  0.56299373  0.32152957
   0.80090470  0.56646948  0.31198379
   0.06790135  0.80520903  0.31305417
   0.33537536  0.80177367  0.30747403
   0.55357300  0.81662175  0.30130819
   0.82133372  0.82056167  0.31253629
   0.06028653  0.07030070  0.55021866
   0.30984024  0.05377314  0.56657770
   0.56897124  0.05613987  0.55952844
   0.82048168  0.06153240  0.56464239
   0.06003559  0.32369317  0.55828034
   0.30970397  0.31672883  0.57316086
   0.56999819  0.30873397  0.56389235
   0.80956109  0.30374491  0.57315963
   0.05833395  0.55507469  0.56430396
   0.31023973  0.56408378  0.56489741
   0.56139732  0.55222318  0.56722057
   0.81167304  0.56301391  0.56558482
   0.06529594  0.80329145  0.56770812
   0.30449050  0.81669929  0.57256467
   0.56925076  0.80400363  0.56269401
   0.81407385  0.80925120  0.56455465
   0.06495737  0.05831836  0.82362226
   0.31136190  0.05716999  0.81354533
   0.55337288  0.07384122  0.80202389
   0.80001911  0.06717108  0.82062814
   0.06011064  0.30757987  0.80618796
   0.32188311  0.31395963  0.80492063
   0.56126313  0.31251943  0.80985561
   0.81949118  0.30432063  0.81757765
   0.05208119  0.56618946  0.81002007
   0.31055300  0.56779686  0.81564232
   0.56393972  0.56852233  0.80246715
   0.80730086  0.56341170  0.81377993
   0.06464732  0.80770352  0.80749385
   0.30681584  0.81175821  0.81681115
   0.55435628  0.82212318  0.81370152
   0.81631760  0.80613163  0.81724709
 
 position of ions in cartesian coordinates  (Angst):
  21.77002686 11.04187041 10.97508906
  21.79682509 13.58117765 13.64615756
   0.05944693  5.46867750  5.49699004
  10.89321849 18.94659735  8.16107853
  13.63527617 10.94057132  2.73974682
  13.76420582 13.51497474  5.41244136
  13.66503985 16.32182297  8.14438160
   2.83466918  8.21426845 10.87002295
  16.41508398 10.92732230  5.56781166
  16.51383117 13.68416084  8.40837474
  16.44030903 16.39074716 11.02993709
  16.41620502 18.94809135 13.54235461
  19.17363033 21.75274888 19.18637586
  19.08787864 13.68227619 10.93955457
  19.08855916 16.36570720 13.65734243
   8.12286930  8.19530149 16.28117927
   2.76313454 13.61477489 10.92784317
  13.61800233  5.50715858 13.58849095
  13.55359984  8.43717976 16.55797600
  13.56225936 10.81439664 19.10922840
   5.45263118 13.64720797 13.48873017
   5.46904523  5.44080022  5.55233069
   5.51881663  8.27142824  8.19765462
   5.56341939 10.87072375 11.06586109
   8.26496002 13.65420464 16.35015483
   8.10084856  5.54815801  8.26936321
   8.14036962  8.17778198 10.95453927
   8.06030290 10.83335501 13.69310043
  10.93706279  2.88602720  8.22089958
  11.05862617  5.46709880 11.03155690
  10.85389763  8.20350877 13.64126632
  10.82413575 10.98455744 16.30582559
  16.26763650  5.52160189 10.77015106
  16.45917005  8.19647846 13.57307598
  16.38881651 11.06307395 16.35165097
   5.65320957 13.72812716  8.33069536
   8.17698172 16.29071901 13.74124942
   8.26803486  8.23328129  5.44205842
   8.11462815 10.97860022  8.16510438
   8.07555514 13.79550892 10.93700458
  10.90256962 16.34534954 16.26564123
  11.04562863  8.31914802  8.07070917
  10.98758239 10.88444311 10.88935088
  10.81142627 13.65037208 13.64101150
  13.70930448  5.53699352  8.35147672
  13.54688872  8.26825447 10.96990784
  13.72093457 10.84472218 13.55269191
  13.63911731 13.61520142 16.49765786
   8.24063297  8.25829183  0.02342133
   8.24926346 10.96136300  2.72954478
  19.09986122 13.66313243 16.43120088
   8.24549064 16.32799389  8.28891354
  10.86084000  8.25085834  2.61220729
  10.84643820 10.95781756  5.27539084
  11.03213660 13.61762409  8.33064315
  10.81591501 16.58736812 10.98524311
  13.62592760  8.13612968  5.50427486
  13.71471953 11.04178853  8.33526887
  13.83238782 13.50680612 10.97995842
  13.59952131 16.37995905 13.67823764
  16.21415481  8.21873332  8.22364439
  16.41418848 11.08789366 10.97663778
  16.40496895 13.69017524 13.67696320
  16.36024343 16.36529932 16.23626391
   1.17026672  1.27457339  1.27967996
   1.46233316  4.05267776  4.04634897
   1.28774877  6.72857738  6.84195540
   1.45409018  9.59020470  9.53890756
   4.15253292  1.18856730  4.00826867
   4.08369358  4.01633945  6.68089831
   4.24037591  6.85893246  9.67078356
   3.97769457  9.65501591 12.19782049
   6.90633441  1.25069233  6.90806073
   6.75203009  4.02106362  9.64371808
   6.75763961  6.78671110 12.27619890
   6.82698113  9.51229923 14.97369441
   9.49331622  1.41356352  9.58904395
   9.63492842  4.02726019 12.20480933
   9.50519092  6.93313278 14.93268578
   9.48832992  9.66088494 17.58997580
   4.11106571  4.14922141  1.37895347
   4.09693069  6.80051776  4.06167510
   4.00494172  9.59352479  6.81600550
   4.04604237 12.29119356  9.63192351
   6.80518233  4.02048746  4.10269727
   6.82931750  6.71731534  6.84953586
   6.87844764  9.57444012  9.51490589
   6.89671946 12.31568432 12.34801014
   9.51569339  4.01209869  6.79019961
   9.62984498  6.84782513  9.54095083
   9.67432647  9.69096294 12.33193696
   9.60793657 12.17203282 14.95542777
  12.23081773  4.16663768  9.54949960
  12.13221215  7.03105828 12.43737840
  12.22717280  9.35012080 14.98627722
  12.39307045 12.40151470 17.95795777
   6.78682736  6.67729901  1.42827618
   6.78498415  9.58567539  3.97696090
   6.73376971 12.34277758  6.83704884
   6.84868257 15.14956409  9.64688226
   9.64643857  6.76272765  4.19696958
   9.73302047  9.65618729  6.85150453
   9.54420519 12.40173910  9.61098680
   9.59099753 15.12327794 12.17659925
  12.24301778  6.80999860  6.70905504
  12.34804398  9.57166692  9.56276790
  12.24372982 12.34407039 12.18003902
  12.34386090 15.06352878 15.03540992
  14.99507983  6.92337673  9.50003016
  15.19484348  9.59264510 12.26282683
  14.94802810 12.38045767 15.01974153
  15.02577307 15.07852002 17.75484781
   9.64607885  9.71869191  1.34830784
   9.52330395 12.30348571  4.03075618
   9.57962898 14.82442683  6.86004994
   9.71015628 17.72555981  9.48474849
  12.18165041  9.47499691  4.02155375
  12.23756681 12.32422855  6.95442428
  12.27579037 14.99638323  9.55685142
  12.27057586 17.90516804 12.29150478
  15.05206287  9.42908910  6.76223245
  15.13113588 12.31757398  9.60680548
  14.99496937 14.94484781 12.38611526
  15.06280433 17.73030147 14.99194060
  17.66595267  9.53889909  9.54119229
  17.81220645 12.28948333 12.23421767
  17.89156057 14.96290471 15.05501515
  17.75543480 17.86684210 17.74526867
 


--------------------------------------------------------------------------------------------------------


 k-point  1 :   0.0000 0.0000 0.0000  plane waves:   66299
 k-point  2 :   0.5000 0.0000 0.0000  plane waves:   66394
 k-point  3 :   0.0000 0.5000 0.0000  plane waves:   66394
 k-point  4 :   0.5000 0.5000 0.0000  plane waves:   66552
 k-point  5 :   0.0000 0.0000 0.5000  plane waves:   66394
 k-point  6 :   0.5000 0.0000 0.5000  plane waves:   66552
 k-point  7 :   0.0000 0.5000 0.5000  plane waves:   66552
 k-point  8 :   0.5000 0.5000 0.5000  plane waves:   66394

 maximum and minimum number of plane-waves per node :      4207     4110

 maximum number of plane-waves:     66552
 maximum index in each direction: 
   IXMAX=   28   IYMAX=   28   IZMAX=   28
   IXMIN=  -28   IYMIN=  -28   IZMIN=  -28


 parallel 3D FFT for wavefunctions:
    minimum data exchange during FFTs selected (reduces bandwidth)
 parallel 3D FFT for charge:
    minimum data exchange during FFTs selected (reduces bandwidth)


 total amount of memory used by VASP MPI-rank0   221701. kBytes
=======================================================================

   base      :      30000. kBytes
   nonl-proj :      10690. kBytes
   fftplans  :      66746. kBytes
   grid      :      26864. kBytes
   one-center:         24. kBytes
   wavefun   :      87377. kBytes
 
     INWAV:  cpu time    0.0000: real time    0.0000
 Broyden mixing: mesh for mixing (old mesh)
   NGX = 57   NGY = 57   NGZ = 57
  (NGX  =240   NGY  =240   NGZ  =240)
  gives a total of 185193 points

 initial charge density was supplied:
 charge density of overlapping atoms calculated
 number of electron     512.0000000 magnetization 
 keeping initial charge density in first step


--------------------------------------------------------------------------------------------------------


 Maximum index for augmentation-charges         5609 (set IRDMAX)


--------------------------------------------------------------------------------------------------------


 First call to EWALD:  gamma=   0.129
 Maximum number of real-space cells 3x 3x 3
 Maximum number of reciprocal cells 3x 3x 3

    FEWALD:  cpu time    0.0059: real time    0.0059


--------------------------------------- Iteration      1(   1)  ---------------------------------------


    POTLOK:  cpu time    0.4878: real time    0.4981
    SETDIJ:  cpu time    0.5039: real time    0.5040
     EDDAV:  cpu time   69.4344: real time   69.4485
       DOS:  cpu time    0.0028: real time    0.0028
    --------------------------------------------
      LOOP:  cpu time   70.4290: real time   70.4534

 eigenvalue-minimisations  :  5152
 total energy-change (2. order) : 0.1384623E+04  (-0.1908343E+05)
 number of electron     512.0000000 magnetization 
 augmentation part      512.0000000 magnetization 

 Free energy of the ion-electron system (eV)
  ---------------------------------------------------
  alpha Z        PSCENC =       210.77028614
  Ewald energy   TEWEN  =    -14463.54035818
  -Hartree energ DENC   =      -762.13039467
  -exchange      EXHF   =         0.00000000
  -V(xc)+E(xc)   XCENC  =     -1195.22720151
  PAW double counting   =      4221.13331941    -1969.18571412
  entropy T*S    EENTRO =        -0.00187482
  eigenvalues    EBANDS =      2150.32421498
  atomic energy  EATOM  =     13192.48085998
  Solvation  Ediel_sol  =         0.00000000
  ---------------------------------------------------
  free energy    TOTEN  =      1384.62313721 eV

  energy without entropy =     1384.62501203  energy(sigma->0) =     1384.62407462


--------------------------------------------------------------------------------------------------------




--------------------------------------- Iteration      1(   2)  ---------------------------------------


     EDDAV:  cpu time   78.9977: real time   79.0228
       DOS:  cpu time    0.0021: real time    0.0021
    --------------------------------------------
      LOOP:  cpu time   78.9998: real time   79.0250

 eigenvalue-minimisations  :  6120
 total energy-change (2. order) :-0.1921903E+04  (-0.1827843E+04)
 number of electron     512.0000000 magnetization 
 augmentation part      512.0000000 magnetization 

 Free energy of the ion-electron system (eV)
  ---------------------------------------------------
  alpha Z        PSCENC =       210.77028614
  Ewald energy   TEWEN  =    -14463.54035818
  -Hartree energ DENC   =      -762.13039467
  -exchange      EXHF   =         0.00000000
  -V(xc)+E(xc)   XCENC  =     -1195.22720151
  PAW double counting   =      4221.13331941    -1969.18571412
  entropy T*S    EENTRO =        -0.00000000
  eigenvalues    EBANDS =       228.41884590
  atomic energy  EATOM  =     13192.48085998
  Solvation  Ediel_sol  =         0.00000000
  ---------------------------------------------------
  free energy    TOTEN  =      -537.28035705 eV

  energy without entropy =     -537.28035705  energy(sigma->0) =     -537.28035705


--------------------------------------------------------------------------------------------------------




--------------------------------------- Iteration      1(   3)  ---------------------------------------


     EDDAV:  cpu time   80.6588: real time   80.6920
       DOS:  cpu time    0.0016: real time    0.0016
    --------------------------------------------
      LOOP:  cpu time   80.6603: real time   80.6936

 eigenvalue-minimisations  :  6280
 total energy-change (2. order) :-0.1496719E+03  (-0.1466754E+03)
 number of electron     512.0000000 magnetization 
 augmentation part      512.0000000 magnetization 

 Free energy of the ion-electron system (eV)
  ---------------------------------------------------
  alpha Z        PSCENC =       210.77028614
  Ewald energy   TEWEN  =    -14463.54035818
  -Hartree energ DENC   =      -762.13039467
  -exchange      EXHF   =         0.00000000
  -V(xc)+E(xc)   XCENC  =     -1195.22720151
  PAW double counting   =      4221.13331941    -1969.18571412
  entropy T*S    EENTRO =        -0.00000000
  eigenvalues    EBANDS =        78.74698994
  atomic energy  EATOM  =     13192.48085998
  Solvation  Ediel_sol  =         0.00000000
  ---------------------------------------------------
  free energy    TOTEN  =      -686.95221301 eV

  energy without entropy =     -686.95221301  energy(sigma->0) =     -686.95221301


--------------------------------------------------------------------------------------------------------




--------------------------------------- Iteration      1(   4)  ---------------------------------------


     EDDAV:  cpu time   79.6310: real time   79.6743
       DOS:  cpu time    0.0010: real time    0.0010
    --------------------------------------------
      LOOP:  cpu time   79.6320: real time   79.6753

 eigenvalue-minimisations  :  6176
 total energy-change (2. order) :-0.4242999E+01  (-0.4208592E+01)
 number of electron     512.0000000 magnetization 
 augmentation part      512.0000000 magnetization 

 Free energy of the ion-electron system (eV)
  ---------------------------------------------------
  alpha Z        PSCENC =       210.77028614
  Ewald energy   TEWEN  =    -14463.54035818
  -Hartree energ DENC   =      -762.13039467
  -exchange      EXHF   =         0.00000000
  -V(xc)+E(xc)   XCENC  =     -1195.22720151
  PAW double counting   =      4221.13331941    -1969.18571412
  entropy T*S    EENTRO =        -0.00000000
  eigenvalues    EBANDS =        74.50399075
  atomic energy  EATOM  =     13192.48085998
  Solvation  Ediel_sol  =         0.00000000
  ---------------------------------------------------
  free energy    TOTEN  =      -691.19521220 eV

  energy without entropy =     -691.19521220  energy(sigma->0) =     -691.19521220


--------------------------------------------------------------------------------------------------------




--------------------------------------- Iteration      1(   5)  ---------------------------------------


     EDDAV:  cpu time   80.8109: real time   80.8486
       DOS:  cpu time    0.0012: real time    0.0011
    CHARGE:  cpu time    3.1357: real time    3.1372
    MIXING:  cpu time    0.0107: real time    0.0107
    --------------------------------------------
      LOOP:  cpu time   83.9585: real time   83.9977

 eigenvalue-minimisations  :  6304
 total energy-change (2. order) :-0.1479330E+00  (-0.1475324E+00)
 number of electron     511.9999998 magnetization 
 augmentation part      -30.1854689 magnetization 

 Broyden mixing:
  rms(total) = 0.24028E+01    rms(broyden)= 0.24028E+01
  rms(prec ) = 0.29145E+01
  weight for this iteration     100.00

 Free energy of the ion-electron system (eV)
  ---------------------------------------------------
  alpha Z        PSCENC =       210.77028614
  Ewald energy   TEWEN  =    -14463.54035818
  -Hartree energ DENC   =      -762.13039467
  -exchange      EXHF   =         0.00000000
  -V(xc)+E(xc)   XCENC  =     -1195.22720151
  PAW double counting   =      4221.13331941    -1969.18571412
  entropy T*S    EENTRO =        -0.00000000
  eigenvalues    EBANDS =        74.35605778
  atomic energy  EATOM  =     13192.48085998
  Solvation  Ediel_sol  =         0.00000000
  ---------------------------------------------------
  free energy    TOTEN  =      -691.34314517 eV

  energy without entropy =     -691.34314517  energy(sigma->0) =     -691.34314517


--------------------------------------------------------------------------------------------------------




--------------------------------------- Iteration      1(   6)  ---------------------------------------


    POTLOK:  cpu time    0.4883: real time    0.4920
    SETDIJ:  cpu time    0.5114: real time    0.5114
     EDDAV:  cpu time   76.7821: real time   76.8050
       DOS:  cpu time    0.0015: real time    0.0015
    CHARGE:  cpu time    3.1250: real time    3.1267
    MIXING:  cpu time    0.0295: real time    0.0295
    --------------------------------------------
      LOOP:  cpu time   80.9376: real time   80.9660

 eigenvalue-minimisations  :  5896
 total energy-change (2. order) : 0.8603151E+01  (-0.6271888E+00)
 number of electron     511.9999998 magnetization 
 augmentation part      -29.8449934 magnetization 

 Broyden mixing:
  rms(total) = 0.14274E+01    rms(broyden)= 0.14274E+01
  rms(prec ) = 0.17201E+01
  weight for this iteration     100.00

 eigenvalues of (default mixing * dielectric matrix)
  average eigenvalue GAMMA=   2.4261
  2.4261

 Free energy of the ion-electron system (eV)
  ---------------------------------------------------
  alpha Z        PSCENC =       210.77028614
  Ewald energy   TEWEN  =    -14463.54035818
  -Hartree energ DENC   =      -858.11772620
  -exchange      EXHF   =         0.00000000
  -V(xc)+E(xc)   XCENC  =     -1180.54105571
  PAW double counting   =      4467.07179898    -2221.93213897
  entropy T*S    EENTRO =        -0.00000000
  eigenvalues    EBANDS =       171.06833929
  atomic energy  EATOM  =     13192.48085998
  Solvation  Ediel_sol  =         0.00000000
  ---------------------------------------------------
  free energy    TOTEN  =      -682.73999466 eV

  energy without entropy =     -682.73999466  energy(sigma->0) =     -682.73999466


--------------------------------------------------------------------------------------------------------




--------------------------------------- Iteration      1(   7)  ---------------------------------------


    POTLOK:  cpu time    0.4895: real time    0.5158
    SETDIJ:  cpu time    0.5069: real time    0.5070
     EDDAV:  cpu time   76.4184: real time   76.4550
       DOS:  cpu time    0.0011: real time    0.0011
    CHARGE:  cpu time    3.1282: real time    3.1291
    MIXING:  cpu time    0.0265: real time    0.0265
    --------------------------------------------
      LOOP:  cpu time   80.5706: real time   80.6344

 eigenvalue-minimisations  :  5864
 total energy-change (2. order) : 0.3516909E+01  (-0.1160265E+01)
 number of electron     511.9999998 magnetization 
 augmentation part      -29.3889847 magnetization 

 Broyden mixing:
  rms(total) = 0.16147E+00    rms(broyden)= 0.16147E+00
  rms(prec ) = 0.21262E+00
  weight for this iteration     100.00

 eigenvalues of (default mixing * dielectric matrix)
  average eigenvalue GAMMA=   2.0424
  1.9445  2.1404

 Free energy of the ion-electron system (eV)
  ---------------------------------------------------
  alpha Z        PSCENC =       210.77028614
  Ewald energy   TEWEN  =    -14463.54035818
  -Hartree energ DENC   =     -1008.24923056
  -exchange      EXHF   =         0.00000000
  -V(xc)+E(xc)   XCENC  =     -1156.72391520
  PAW double counting   =      4786.82710636    -2550.21487534
  entropy T*S    EENTRO =        -0.00000000
  eigenvalues    EBANDS =       309.42704156
  atomic energy  EATOM  =     13192.48085998
  Solvation  Ediel_sol  =         0.00000000
  ---------------------------------------------------
  free energy    TOTEN  =      -679.22308524 eV

  energy without entropy =     -679.22308524  energy(sigma->0) =     -679.22308524


--------------------------------------------------------------------------------------------------------




--------------------------------------- Iteration      1(   8)  ---------------------------------------


    POTLOK:  cpu time    0.4916: real time    0.4948
    SETDIJ:  cpu time    0.5066: real time    0.5075
     EDDAV:  cpu time   76.2402: real time   76.2830
       DOS:  cpu time    0.0011: real time    0.0011
    CHARGE:  cpu time    3.1410: real time    3.1430
    MIXING:  cpu time    0.0152: real time    0.0152
    --------------------------------------------
      LOOP:  cpu time   80.3958: real time   80.4448

 eigenvalue-minimisations  :  5848
 total energy-change (2. order) :-0.4634951E-01  (-0.1139914E+00)
 number of electron     511.9999998 magnetization 
 augmentation part      -29.4571633 magnetization 

 Broyden mixing:
  rms(total) = 0.66540E-01    rms(broyden)= 0.66539E-01
  rms(prec ) = 0.81910E-01
  weight for this iteration     100.00

 eigenvalues of (default mixing * dielectric matrix)
  average eigenvalue GAMMA=   1.9881
  2.6667  1.6488  1.6488

 Free energy of the ion-electron system (eV)
  ---------------------------------------------------
  alpha Z        PSCENC =       210.77028614
  Ewald energy   TEWEN  =    -14463.54035818
  -Hartree energ DENC   =     -1002.59375277
  -exchange      EXHF   =         0.00000000
  -V(xc)+E(xc)   XCENC  =     -1156.69263124
  PAW double counting   =      4743.06112691    -2505.08015639
  entropy T*S    EENTRO =        -0.00000000
  eigenvalues    EBANDS =       302.32519079
  atomic energy  EATOM  =     13192.48085998
  Solvation  Ediel_sol  =         0.00000000
  ---------------------------------------------------
  free energy    TOTEN  =      -679.26943475 eV

  energy without entropy =     -679.26943475  energy(sigma->0) =     -679.26943475


--------------------------------------------------------------------------------------------------------




--------------------------------------- Iteration      1(   9)  ---------------------------------------


    POTLOK:  cpu time    0.4883: real time    0.4918
    SETDIJ:  cpu time    0.5057: real time    0.5059
     EDDAV:  cpu time   78.2644: real time   78.2978
       DOS:  cpu time    0.0011: real time    0.0010
    CHARGE:  cpu time    3.1321: real time    3.1372
    MIXING:  cpu time    0.0175: real time    0.0175
    --------------------------------------------
      LOOP:  cpu time   82.4091: real time   82.4513

 eigenvalue-minimisations  :  6056
 total energy-change (2. order) :-0.2542761E-01  (-0.1193931E-01)
 number of electron     511.9999998 magnetization 
 augmentation part      -29.4637242 magnetization 

 Broyden mixing:
  rms(total) = 0.28798E-01    rms(broyden)= 0.28798E-01
  rms(prec ) = 0.33584E-01
  weight for this iteration     100.00

 eigenvalues of (default mixing * dielectric matrix)
  average eigenvalue GAMMA=   1.7671
  2.5910  1.8003  1.8003  0.8766

 Free energy of the ion-electron system (eV)
  ---------------------------------------------------
  alpha Z        PSCENC =       210.77028614
  Ewald energy   TEWEN  =    -14463.54035818
  -Hartree energ DENC   =     -1009.19576390
  -exchange      EXHF   =         0.00000000
  -V(xc)+E(xc)   XCENC  =     -1155.50736183
  PAW double counting   =      4744.40562408    -2506.45184641
  entropy T*S    EENTRO =        -0.00000000
  eigenvalues    EBANDS =       307.74369775
  atomic energy  EATOM  =     13192.48085998
  Solvation  Ediel_sol  =         0.00000000
  ---------------------------------------------------
  free energy    TOTEN  =      -679.29486236 eV

  energy without entropy =     -679.29486236  energy(sigma->0) =     -679.29486236


--------------------------------------------------------------------------------------------------------




--------------------------------------- Iteration      1(  10)  ---------------------------------------


    POTLOK:  cpu time    0.4876: real time    0.4910
    SETDIJ:  cpu time    0.5075: real time    0.5076
     EDDAV:  cpu time   78.5432: real time   78.5739
       DOS:  cpu time    0.0014: real time    0.0013
    CHARGE:  cpu time    3.1364: real time    3.1384
    MIXING:  cpu time    0.0216: real time    0.0216
    --------------------------------------------
      LOOP:  cpu time   82.6977: real time   82.7339

 eigenvalue-minimisations  :  6088
 total energy-change (2. order) :-0.2428304E-02  (-0.8455538E-03)
 number of electron     511.9999998 magnetization 
 augmentation part      -29.4729350 magnetization 

 Broyden mixing:
  rms(total) = 0.12333E-01    rms(broyden)= 0.12333E-01
  rms(prec ) = 0.14743E-01
  weight for this iteration     100.00

 eigenvalues of (default mixing * dielectric matrix)
  average eigenvalue GAMMA=   1.8467
  2.6703  2.6703  1.4914  1.4914  0.9104

 Free energy of the ion-electron system (eV)
  ---------------------------------------------------
  alpha Z        PSCENC =       210.77028614
  Ewald energy   TEWEN  =    -14463.54035818
  -Hartree energ DENC   =     -1008.15912870
  -exchange      EXHF   =         0.00000000
  -V(xc)+E(xc)   XCENC  =     -1155.66668030
  PAW double counting   =      4737.68521049    -2499.56433623
  entropy T*S    EENTRO =        -0.00000000
  eigenvalues    EBANDS =       306.69685612
  atomic energy  EATOM  =     13192.48085998
  Solvation  Ediel_sol  =         0.00000000
  ---------------------------------------------------
  free energy    TOTEN  =      -679.29729066 eV

  energy without entropy =     -679.29729066  energy(sigma->0) =     -679.29729066


--------------------------------------------------------------------------------------------------------




--------------------------------------- Iteration      1(  11)  ---------------------------------------


    POTLOK:  cpu time    0.4853: real time    0.4900
    SETDIJ:  cpu time    0.5060: real time    0.5066
     EDDAV:  cpu time   74.9812: real time   75.0275
       DOS:  cpu time    0.0011: real time    0.0011
    CHARGE:  cpu time    3.1408: real time    3.1417
    MIXING:  cpu time    0.0121: real time    0.0121
    --------------------------------------------
      LOOP:  cpu time   79.1266: real time   79.1790

 eigenvalue-minimisations  :  5712
 total energy-change (2. order) :-0.1717528E-02  (-0.2782410E-03)
 number of electron     511.9999998 magnetization 
 augmentation part      -29.4759132 magnetization 

 Broyden mixing:
  rms(total) = 0.38335E-02    rms(broyden)= 0.38335E-02
  rms(prec ) = 0.53846E-02
  weight for this iteration     100.00

 eigenvalues of (default mixing * dielectric matrix)
  average eigenvalue GAMMA=   1.7609
  2.8364  2.1636  1.7385  1.7385  1.2072  0.8814

 Free energy of the ion-electron system (eV)
  ---------------------------------------------------
  alpha Z        PSCENC =       210.77028614
  Ewald energy   TEWEN  =    -14463.54035818
  -Hartree energ DENC   =     -1008.04742284
  -exchange      EXHF   =         0.00000000
  -V(xc)+E(xc)   XCENC  =     -1155.68002999
  PAW double counting   =      4732.88910193    -2494.65682461
  entropy T*S    EENTRO =        -0.00000000
  eigenvalues    EBANDS =       306.48537938
  atomic energy  EATOM  =     13192.48085998
  Solvation  Ediel_sol  =         0.00000000
  ---------------------------------------------------
  free energy    TOTEN  =      -679.29900819 eV

  energy without entropy =     -679.29900819  energy(sigma->0) =     -679.29900819


--------------------------------------------------------------------------------------------------------




--------------------------------------- Iteration      1(  12)  ---------------------------------------


    POTLOK:  cpu time    0.4893: real time    0.4909
    SETDIJ:  cpu time    0.5112: real time    0.5115
     EDDAV:  cpu time   79.3734: real time   79.4042
       DOS:  cpu time    0.0011: real time    0.0011
    CHARGE:  cpu time    3.1324: real time    3.1327
    MIXING:  cpu time    0.0209: real time    0.0209
    --------------------------------------------
      LOOP:  cpu time   83.5282: real time   83.5612

 eigenvalue-minimisations  :  6152
 total energy-change (2. order) :-0.6959533E-04  (-0.4355648E-04)
 number of electron     511.9999998 magnetization 
 augmentation part      -29.4741981 magnetization 

 Broyden mixing:
  rms(total) = 0.17656E-02    rms(broyden)= 0.17656E-02
  rms(prec ) = 0.21353E-02
  weight for this iteration     100.00

 eigenvalues of (default mixing * dielectric matrix)
  average eigenvalue GAMMA=   1.8395
  3.1772  2.6996  1.7561  1.7561  0.9030  1.2923  1.2923

 Free energy of the ion-electron system (eV)
  ---------------------------------------------------
  alpha Z        PSCENC =       210.77028614
  Ewald energy   TEWEN  =    -14463.54035818
  -Hartree energ DENC   =     -1008.63161321
  -exchange      EXHF   =         0.00000000
  -V(xc)+E(xc)   XCENC  =     -1155.61391583
  PAW double counting   =      4734.03608834    -2495.84312665
  entropy T*S    EENTRO =        -0.00000000
  eigenvalues    EBANDS =       307.04270162
  atomic energy  EATOM  =     13192.48085998
  Solvation  Ediel_sol  =         0.00000000
  ---------------------------------------------------
  free energy    TOTEN  =      -679.29907779 eV

  energy without entropy =     -679.29907779  energy(sigma->0) =     -679.29907779


--------------------------------------------------------------------------------------------------------




--------------------------------------- Iteration      1(  13)  ---------------------------------------


    POTLOK:  cpu time    0.4907: real time    0.4925
    SETDIJ:  cpu time    0.5063: real time    0.5063
     EDDAV:  cpu time   75.7508: real time   75.7838
       DOS:  cpu time    0.0010: real time    0.0010
    CHARGE:  cpu time    3.1247: real time    3.1258
    MIXING:  cpu time    0.0273: real time    0.0273
    --------------------------------------------
      LOOP:  cpu time   79.9009: real time   79.9368

 eigenvalue-minimisations  :  5792
 total energy-change (2. order) :-0.3523346E-04  (-0.1226556E-04)
 number of electron     511.9999998 magnetization 
 augmentation part      -29.4740448 magnetization 

 Broyden mixing:
  rms(total) = 0.62422E-03    rms(broyden)= 0.62420E-03
  rms(prec ) = 0.80381E-03
  weight for this iteration     100.00

 eigenvalues of (default mixing * dielectric matrix)
  average eigenvalue GAMMA=   1.7706
  3.1597  2.5714  1.9017  1.9017  1.3756  1.3756  0.9393  0.9393

 Free energy of the ion-electron system (eV)
  ---------------------------------------------------
  alpha Z        PSCENC =       210.77028614
  Ewald energy   TEWEN  =    -14463.54035818
  -Hartree energ DENC   =     -1008.65774769
  -exchange      EXHF   =         0.00000000
  -V(xc)+E(xc)   XCENC  =     -1155.62223440
  PAW double counting   =      4733.52050539    -2495.31852008
  entropy T*S    EENTRO =        -0.00000000
  eigenvalues    EBANDS =       307.06809582
  atomic energy  EATOM  =     13192.48085998
  Solvation  Ediel_sol  =         0.00000000
  ---------------------------------------------------
  free energy    TOTEN  =      -679.29911302 eV

  energy without entropy =     -679.29911302  energy(sigma->0) =     -679.29911302


--------------------------------------------------------------------------------------------------------




--------------------------------------- Iteration      1(  14)  ---------------------------------------


    POTLOK:  cpu time    0.4904: real time    0.4918
    SETDIJ:  cpu time    0.5072: real time    0.5075
     EDDAV:  cpu time   78.9718: real time   78.9969
       DOS:  cpu time    0.0011: real time    0.0011
    CHARGE:  cpu time    3.0987: real time    3.1010
    MIXING:  cpu time    0.0254: real time    0.0254
    --------------------------------------------
      LOOP:  cpu time   83.0946: real time   83.1236

 eigenvalue-minimisations  :  6120
 total energy-change (2. order) :-0.3308363E-05  (-0.9350457E-06)
 number of electron     511.9999998 magnetization 
 augmentation part      -29.4739718 magnetization 

 Broyden mixing:
  rms(total) = 0.21003E-03    rms(broyden)= 0.20997E-03
  rms(prec ) = 0.28026E-03
  weight for this iteration     100.00

 eigenvalues of (default mixing * dielectric matrix)
  average eigenvalue GAMMA=   1.7756
  3.2157  2.5957  2.2691  1.6809  1.6809  1.3013  1.3013  0.9979  0.9375

 Free energy of the ion-electron system (eV)
  ---------------------------------------------------
  alpha Z        PSCENC =       210.77028614
  Ewald energy   TEWEN  =    -14463.54035818
  -Hartree energ DENC   =     -1008.69860148
  -exchange      EXHF   =         0.00000000
  -V(xc)+E(xc)   XCENC  =     -1155.61552628
  PAW double counting   =      4733.66530641    -2495.46611505
  entropy T*S    EENTRO =        -0.00000000
  eigenvalues    EBANDS =       307.10503212
  atomic energy  EATOM  =     13192.48085998
  Solvation  Ediel_sol  =         0.00000000
  ---------------------------------------------------
  free energy    TOTEN  =      -679.29911633 eV

  energy without entropy =     -679.29911633  energy(sigma->0) =     -679.29911633


--------------------------------------------------------------------------------------------------------




--------------------------------------- Iteration      1(  15)  ---------------------------------------


    POTLOK:  cpu time    0.4889: real time    0.4904
    SETDIJ:  cpu time    0.5135: real time    0.5135
     EDDAV:  cpu time   78.4236: real time   78.4540
       DOS:  cpu time    0.0011: real time    0.0012
    CHARGE:  cpu time    3.1132: real time    3.1150
    MIXING:  cpu time    0.0260: real time    0.0260
    --------------------------------------------
      LOOP:  cpu time   82.5664: real time   82.6001

 eigenvalue-minimisations  :  6072
 total energy-change (2. order) :-0.4598143E-05  (-0.2028130E-06)
 number of electron     511.9999998 magnetization 
 augmentation part      -29.4737984 magnetization 

 Broyden mixing:
  rms(total) = 0.69683E-04    rms(broyden)= 0.69501E-04
  rms(prec ) = 0.91925E-04
  weight for this iteration     100.00

 eigenvalues of (default mixing * dielectric matrix)
  average eigenvalue GAMMA=   1.7232
  3.2581  2.6098  2.0798  1.7207  1.7207  1.4346  1.4346  0.9349  0.9349  1.1039

 Free energy of the ion-electron system (eV)
  ---------------------------------------------------
  alpha Z        PSCENC =       210.77028614
  Ewald energy   TEWEN  =    -14463.54035818
  -Hartree energ DENC   =     -1008.73048638
  -exchange      EXHF   =         0.00000000
  -V(xc)+E(xc)   XCENC  =     -1155.61334150
  PAW double counting   =      4733.76207395    -2495.56577518
  entropy T*S    EENTRO =        -0.00000000
  eigenvalues    EBANDS =       307.13762025
  atomic energy  EATOM  =     13192.48085998
  Solvation  Ediel_sol  =         0.00000000
  ---------------------------------------------------
  free energy    TOTEN  =      -679.29912093 eV

  energy without entropy =     -679.29912093  energy(sigma->0) =     -679.29912093


--------------------------------------------------------------------------------------------------------




--------------------------------------- Iteration      1(  16)  ---------------------------------------


    POTLOK:  cpu time    0.4917: real time    0.4923
    SETDIJ:  cpu time    0.5131: real time    0.5134
     EDDAV:  cpu time   78.3247: real time   78.3566
       DOS:  cpu time    0.0013: real time    0.0013
    CHARGE:  cpu time    3.0540: real time    3.0543
    MIXING:  cpu time    0.0197: real time    0.0197
    --------------------------------------------
      LOOP:  cpu time   82.4045: real time   82.4377

 eigenvalue-minimisations  :  6056
 total energy-change (2. order) : 0.7039744E-06  (-0.1885637E-07)
 number of electron     511.9999998 magnetization 
 augmentation part      -29.4738124 magnetization 

 Broyden mixing:
  rms(total) = 0.31177E-04    rms(broyden)= 0.30770E-04
  rms(prec ) = 0.39579E-04
  weight for this iteration     100.00

 eigenvalues of (default mixing * dielectric matrix)
  average eigenvalue GAMMA=   1.7358
  3.2905  2.6324  2.1208  2.1208  1.5263  1.5263  1.4266  1.4266  0.9202  1.0518
  1.0518

 Free energy of the ion-electron system (eV)
  ---------------------------------------------------
  alpha Z        PSCENC =       210.77028614
  Ewald energy   TEWEN  =    -14463.54035818
  -Hartree energ DENC   =     -1008.72725794
  -exchange      EXHF   =         0.00000000
  -V(xc)+E(xc)   XCENC  =     -1155.61359714
  PAW double counting   =      4733.74990193    -2495.55305673
  entropy T*S    EENTRO =        -0.00000000
  eigenvalues    EBANDS =       307.13410172
  atomic energy  EATOM  =     13192.48085998
  Solvation  Ediel_sol  =         0.00000000
  ---------------------------------------------------
  free energy    TOTEN  =      -679.29912022 eV

  energy without entropy =     -679.29912022  energy(sigma->0) =     -679.29912022


--------------------------------------------------------------------------------------------------------




--------------------------------------- Iteration      1(  17)  ---------------------------------------


    POTLOK:  cpu time    0.4883: real time    0.4915
    SETDIJ:  cpu time    0.5098: real time    0.5098
     EDDAV:  cpu time   60.5404: real time   60.5769
       DOS:  cpu time    0.0010: real time    0.0010
    --------------------------------------------
      LOOP:  cpu time   61.5394: real time   61.5791

 eigenvalue-minimisations  :  4248
 total energy-change (2. order) : 0.3363311E-08  (-0.3403671E-08)
 number of electron     511.9999998 magnetization 
 augmentation part      -29.4738124 magnetization 

 Free energy of the ion-electron system (eV)
  ---------------------------------------------------
  alpha Z        PSCENC =       210.77028614
  Ewald energy   TEWEN  =    -14463.54035818
  -Hartree energ DENC   =     -1008.72718095
  -exchange      EXHF   =         0.00000000
  -V(xc)+E(xc)   XCENC  =     -1155.61355178
  PAW double counting   =      4733.75397495    -2495.55707306
  entropy T*S    EENTRO =        -0.00000000
  eigenvalues    EBANDS =       307.13392268
  atomic energy  EATOM  =     13192.48085998
  Solvation  Ediel_sol  =         0.00000000
  ---------------------------------------------------
  free energy    TOTEN  =      -679.29912022 eV

  energy without entropy =     -679.29912022  energy(sigma->0) =     -679.29912022


--------------------------------------------------------------------------------------------------------




 average (electrostatic) potential at core
  the test charge radii are     0.9892
  (the norm of the test charge is              1.0000)
       1 -83.5054       2 -83.4589       3 -83.5260       4 -83.3659       5 -83.4945
       6 -83.5080       7 -83.4403       8 -83.4733       9 -83.6908      10 -83.4979
      11 -83.4570      12 -83.4195      13 -83.4564      14 -83.5008      15 -83.5119
      16 -83.4253      17 -83.4511      18 -83.6095      19 -83.4583      20 -83.4675
      21 -83.6726      22 -83.4535      23 -83.5532      24 -83.4414      25 -83.4455
      26 -83.5643      27 -83.5684      28 -83.5950      29 -83.6622      30 -83.5736
      31 -83.5110      32 -83.4454      33 -83.6433      34 -83.4401      35 -83.5936
      36 -83.4781      37 -83.3768      38 -83.5545      39 -83.4678      40 -83.5893
      41 -83.4768      42 -83.5696      43 -83.5019      44 -83.6210      45 -83.4964
      46 -83.7039      47 -83.4748      48 -83.5201      49 -83.5317      50 -83.5179
      51 -83.5276      52 -83.5492      53 -83.5071      54 -83.5606      55 -83.3883
      56 -83.5119      57 -83.5607      58 -83.5916      59 -83.4482      60 -83.5440
      61 -83.5897      62 -83.4443      63 -83.5167      64 -83.3964      65 -83.4279
      66 -83.5440      67 -83.2548      68 -83.5464      69 -83.6240      70 -83.4554
      71 -83.5278      72 -83.4084      73 -83.5426      74 -83.4793      75 -83.4399
      76 -83.4725      77 -83.6573      78 -83.5298      79 -83.5419      80 -83.4770
      81 -83.6712      82 -83.5151      83 -83.5446      84 -83.4465      85 -83.4348
      86 -83.4758      87 -83.4737      88 -83.6152      89 -83.5502      90 -83.5878
      91 -83.6341      92 -83.4276      93 -83.4991      94 -83.7089      95 -83.5133
      96 -83.6208      97 -83.4861      98 -83.6527      99 -83.4936     100 -83.4897
     101 -83.4987     102 -83.4485     103 -83.5195     104 -83.4930     105 -83.4734
     106 -83.5307     107 -83.4318     108 -83.5456     109 -83.6110     110 -83.5043
     111 -83.4527     112 -83.4361     113 -83.5099     114 -83.4898     115 -83.5482
     116 -83.3243     117 -83.4976     118 -83.5955     119 -83.4428     120 -83.5871
     121 -83.6002     122 -83.4390     123 -83.5116     124 -83.4236     125 -83.5375
     126 -83.5383     127 -83.4993     128 -83.6325
 
 
 
 E-fermi :   5.8570     XC(G=0):  -9.3309     alpha+bet :-11.7321


 k-point     1 :       0.0000    0.0000    0.0000
  band No.  band energies     occupation 
      1      -6.3101      2.00000
      2      -5.7657      2.00000
      3      -5.6805      2.00000
      4      -5.6193      2.00000
      5      -5.5615      2.00000
      6      -5.5017      2.00000
      7      -5.4418      2.00000
      8      -5.4139      2.00000
      9      -5.3927      2.00000
     10      -5.3608      2.00000
     11      -5.2810      2.00000
     12      -5.2220      2.00000
     13      -5.1889      2.00000
     14      -5.1657      2.00000
     15      -5.0704      2.00000
     16      -4.5695      2.00000
     17      -4.4723      2.00000
     18      -4.4230      2.00000
     19      -4.3876      2.00000
     20      -4.3704      2.00000
     21      -4.3156      2.00000
     22      -4.3019      2.00000
     23      -4.2823      2.00000
     24      -4.2410      2.00000
     25      -4.2199      2.00000
     26      -4.1638      2.00000
     27      -4.1115      2.00000
     28      -4.0589      2.00000
     29      -4.0320      2.00000
     30      -4.0233      2.00000
     31      -3.9418      2.00000
     32      -3.8808      2.00000
     33      -3.8516      2.00000
     34      -3.8192      2.00000
     35      -3.7922      2.00000
     36      -3.7324      2.00000
     37      -3.6996      2.00000
     38      -3.6759      2.00000
     39      -3.6532      2.00000
     40      -3.6288      2.00000
     41      -3.5972      2.00000
     42      -3.5836      2.00000
     43      -3.5451      2.00000
     44      -3.5385      2.00000
     45      -3.5259      2.00000
     46      -3.4665      2.00000
     47      -3.4515      2.00000
     48      -3.4439      2.00000
     49      -3.3911      2.00000
     50      -3.3859      2.00000
     51      -3.3420      2.00000
     52      -3.3199      2.00000
     53      -3.2914      2.00000
     54      -3.2572      2.00000
     55      -3.1835      2.00000
     56      -2.3488      2.00000
     57      -2.3095      2.00000
     58      -2.2642      2.00000
     59      -2.2166      2.00000
     60      -2.1877      2.00000
     61      -2.1528      2.00000
     62      -2.1275      2.00000
     63      -2.1061      2.00000
     64      -2.0973      2.00000
     65      -2.0330      2.00000
     66      -2.0287      2.00000
     67      -1.9950      2.00000
     68      -1.9553      2.00000
     69      -1.9200      2.00000
     70      -1.9110      2.00000
     71      -1.8508      2.00000
     72      -1.8245      2.00000
     73      -1.7483      2.00000
     74      -1.3546      2.00000
     75      -1.3282      2.00000
     76      -1.2689      2.00000
     77      -1.2127      2.00000
     78      -1.0519      2.00000
     79      -0.9967      2.00000
     80      -0.9689      2.00000
     81      -0.9569      2.00000
     82      -0.9382      2.00000
     83      -0.8701      2.00000
     84      -0.8396      2.00000
     85      -0.8194      2.00000
     86      -0.7882      2.00000
     87      -0.7591      2.00000
     88      -0.7461      2.00000
     89      -0.7406      2.00000
     90      -0.7130      2.00000
     91      -0.6626      2.00000
     92      -0.6554      2.00000
     93      -0.6336      2.00000
     94      -0.6278      2.00000
     95      -0.5825      2.00000
     96      -0.5675      2.00000
     97      -0.5365      2.00000
     98      -0.5207      2.00000
     99      -0.4775      2.00000
    100      -0.4294      2.00000
    101      -0.3691      2.00000
    102      -0.0124      2.00000
    103       0.0095      2.00000
    104       0.0480      2.00000
    105       0.0884      2.00000
    106       0.1140      2.00000
    107       0.1491      2.00000
    108       0.1649      2.00000
    109       0.2147      2.00000
    110       0.2428      2.00000
    111       0.3149      2.00000
    112       0.3279      2.00000
    113       0.3700      2.00000
    114       1.4134      2.00000
    115       1.4785      2.00000
    116       1.5071      2.00000
    117       1.5391      2.00000
    118       1.5498      2.00000
    119       1.5856      2.00000
    120       1.6074      2.00000
    121       1.6416      2.00000
    122       1.6529      2.00000
    123       1.6733      2.00000
    124       1.6762      2.00000
    125       1.6950      2.00000
    126       1.7170      2.00000
    127       1.7372      2.00000
    128       1.7443      2.00000
    129       1.7694      2.00000
    130       1.7844      2.00000
    131       1.8015      2.00000
    132       1.8080      2.00000
    133       1.8116      2.00000
    134       1.8227      2.00000
    135       1.8344      2.00000
    136       1.8575      2.00000
    137       1.8731      2.00000
    138       1.9027      2.00000
    139       1.9070      2.00000
    140       1.9096      2.00000
    141       1.9323      2.00000
    142       1.9405      2.00000
    143       1.9504      2.00000
    144       1.9676      2.00000
    145       1.9856      2.00000
    146       1.9939      2.00000
    147       2.0168      2.00000
    148       2.0270      2.00000
    149       2.0437      2.00000
    150       2.0534      2.00000
    151       2.0621      2.00000
    152       2.0749      2.00000
    153       2.0905      2.00000
    154       2.0958      2.00000
    155       2.1073      2.00000
    156       2.1173      2.00000
    157       2.1227      2.00000
    158       2.1552      2.00000
    159       2.1799      2.00000
    160       2.1975      2.00000
    161       2.2117      2.00000
    162       2.2270      2.00000
    163       2.2410      2.00000
    164       2.2474      2.00000
    165       2.2730      2.00000
    166       2.2903      2.00000
    167       2.3007      2.00000
    168       2.3121      2.00000
    169       2.3341      2.00000
    170       2.3462      2.00000
    171       2.3770      2.00000
    172       2.4036      2.00000
    173       2.4448      2.00000
    174       2.4635      2.00000
    175       2.4826      2.00000
    176       2.7566      2.00000
    177       2.7786      2.00000
    178       2.8062      2.00000
    179       2.8268      2.00000
    180       2.8400      2.00000
    181       2.8676      2.00000
    182       3.1916      2.00000
    183       3.2005      2.00000
    184       3.2187      2.00000
    185       3.2417      2.00000
    186       3.2904      2.00000
    187       3.3218      2.00000
    188       3.3373      2.00000
    189       3.3587      2.00000
    190       3.3725      2.00000
    191       3.3763      2.00000
    192       3.4001      2.00000
    193       3.4116      2.00000
    194       3.4306      2.00000
    195       3.4400      2.00000
    196       3.4647      2.00000
    197       3.4874      2.00000
    198       3.4970      2.00000
    199       3.5223      2.00000
    200       3.5509      2.00000
    201       3.5668      2.00000
    202       3.5828      2.00000
    203       3.5965      2.00000
    204       3.6138      2.00000
    205       3.6519      2.00000
    206       3.6655      2.00000
    207       3.6978      2.00000
    208       3.7159      2.00000
    209       3.7417      2.00000
    210       3.7529      2.00000
    211       3.7995      2.00000
    212       3.8119      2.00000
    213       3.8531      2.00000
    214       3.8781      2.00000
    215       3.8962      2.00000
    216       3.9303      2.00000
    217       3.9918      2.00000
    218       4.1477      2.00000
    219       4.1613      2.00000
    220       4.1965      2.00000
    221       4.2344      2.00000
    222       4.2600      2.00000
    223       4.2633      2.00000
    224       4.3225      2.00000
    225       4.3591      2.00000
    226       4.3893      2.00000
    227       4.4149      2.00000
    228       4.4279      2.00000
    229       4.4376      2.00000
    230       4.4651      2.00000
    231       4.4736      2.00000
    232       4.5033      2.00000
    233       4.5450      2.00000
    234       4.5665      2.00000
    235       4.5931      2.00000
    236       4.6003      2.00000
    237       4.6821      2.00000
    238       4.7144      2.00000
    239       4.7420      2.00000
    240       4.7819      2.00000
    241       4.8013      2.00000
    242       4.8791      2.00000
    243       4.9080      2.00000
    244       4.9231      2.00000
    245       4.9506      2.00000
    246       4.9652      2.00000
    247       4.9869      2.00000
    248       5.0165      2.00000
    249       5.0955      2.00000
    250       5.1201      2.00000
    251       5.1428      2.00000
    252       5.1850      2.00000
    253       5.2839      2.00000
    254       5.6383      2.00000
    255       5.7412      2.00000
    256       5.8055      2.00000
    257       6.1396      0.00000
    258       6.2123      0.00000
    259       6.2412      0.00000
    260       6.2673      0.00000
    261       6.2900      0.00000
    262       6.3548      0.00000
    263       6.5340      0.00000
    264       6.5768      0.00000
    265       6.6037      0.00000
    266       6.6435      0.00000
    267       6.6745      0.00000
    268       6.7223      0.00000
    269       6.8048      0.00000
    270       6.8257      0.00000
    271       6.8520      0.00000
    272       6.8677      0.00000
    273       6.9169      0.00000
    274       6.9218      0.00000
    275       6.9333      0.00000
    276       6.9461      0.00000
    277       6.9546      0.00000
[...]
   0.157E+02 -.153E+01 -.152E+01   -.141E+02 0.982E+00 0.199E+01   -.362E+01 -.141E-01 -.296E-01   -.852E-05 0.345E-05 0.600E-05
   -.493E+01 0.210E+00 0.149E+02   0.440E+01 -.234E+00 -.137E+02   0.882E+00 0.913E-01 -.195E+01   0.696E-05 -.175E-04 0.100E-05
   -.130E+01 -.905E+01 -.202E+01   0.163E+01 0.865E+01 0.237E+01   -.107E+01 0.115E+01 0.618E+00   -.387E-05 -.381E-05 -.752E-05
   -.407E+01 0.138E+02 -.930E+01   0.337E+01 -.131E+02 0.883E+01   0.777E+00 -.266E+01 0.146E+01   0.269E-05 0.529E-05 0.110E-04
   -.743E+01 0.732E+01 -.925E+01   0.671E+01 -.645E+01 0.848E+01   0.940E+00 -.256E+01 0.192E+01   0.951E-05 -.670E-05 0.454E-05
   0.294E+01 -.255E+01 -.298E+01   -.342E+01 0.235E+01 0.255E+01   -.314E+00 0.260E+00 -.940E+00   -.133E-05 -.167E-05 -.531E-06
   0.920E+00 -.514E+01 -.102E+02   -.907E+00 0.488E+01 0.969E+01   -.201E+00 0.128E+01 0.133E+01   -.508E-05 0.441E-05 0.426E-05
   -.170E+02 0.710E+00 0.216E+01   0.152E+02 -.762E+00 -.246E+01   0.419E+01 0.115E+01 0.926E+00   0.189E-04 0.506E-05 0.158E-04
   -.560E+01 0.478E+01 0.104E+02   0.516E+01 -.419E+01 -.898E+01   0.194E+01 -.155E+01 -.223E+01   -.224E-05 -.149E-04 -.110E-04
   0.963E+01 0.125E+01 -.501E+01   -.859E+01 -.542E+00 0.481E+01   -.151E+01 -.815E+00 0.382E+00   -.348E-05 -.937E-05 0.179E-05
   0.159E+01 -.106E+02 0.770E+01   -.139E+01 0.979E+01 -.708E+01   -.174E+00 0.313E+01 -.106E+01   -.403E-05 0.541E-05 -.712E-06
   -.218E+01 -.167E+01 0.262E+01   0.209E+01 0.150E+01 -.299E+01   -.117E+00 0.376E+00 0.132E+01   -.423E-05 -.577E-05 0.891E-05
   -.586E+01 -.454E+00 0.220E+01   0.456E+01 0.282E+00 -.205E+01   0.127E+01 -.132E-01 -.921E+00   0.134E-04 0.637E-05 -.717E-06
   0.276E+01 -.812E+01 -.378E+01   -.303E+01 0.714E+01 0.338E+01   0.249E+00 0.279E+01 0.796E+00   0.171E-05 0.236E-05 0.882E-05
   -.403E+01 -.218E+01 0.464E+01   0.318E+01 0.204E+01 -.390E+01   0.914E+00 0.476E+00 -.377E+00   -.170E-05 -.385E-05 0.288E-05
   0.701E+01 -.210E+01 0.633E+01   -.652E+01 0.213E+01 -.647E+01   -.232E+01 -.832E+00 -.269E+00   -.836E-05 -.245E-05 0.111E-04
   0.245E+01 -.663E+01 0.378E+01   -.194E+01 0.587E+01 -.248E+01   -.263E+01 0.216E+01 -.194E+01   -.116E-04 0.968E-06 -.551E-05
   -.501E+01 0.142E+01 0.557E-01   0.489E+01 -.108E+01 0.225E+00   0.189E+01 -.459E+00 0.803E+00   -.366E-05 -.127E-04 0.796E-05
   -.107E+02 0.877E+01 0.338E+01   0.941E+01 -.825E+01 -.283E+01   0.396E+01 -.311E+01 -.275E+01   0.191E-04 -.224E-04 -.144E-04
   -.817E+01 -.896E+01 -.389E+01   0.827E+01 0.841E+01 0.432E+01   0.468E+00 0.343E+01 -.156E+00   -.182E-04 0.147E-04 0.109E-04
   0.783E+01 0.510E+01 0.337E+01   -.662E+01 -.470E+01 -.326E+01   -.300E+01 -.121E+01 -.122E+01   -.200E-04 -.165E-04 -.189E-05
   -.356E+01 0.530E+00 0.257E+01   0.340E+01 0.326E-01 -.155E+01   0.857E+00 0.225E+00 -.215E+01   0.130E-04 -.321E-05 -.129E-04
   0.320E+01 0.572E+01 -.129E+02   -.312E+01 -.599E+01 0.118E+02   0.670E+00 0.451E+00 0.225E+01   -.437E-05 0.259E-05 0.329E-05
   0.356E+01 0.454E+01 0.862E-01   -.342E+01 -.451E+01 0.315E+00   0.650E+00 -.117E+00 -.351E+00   0.218E-06 -.705E-05 -.663E-05
   0.295E+01 -.614E+01 0.142E+01   -.276E+01 0.556E+01 -.200E+01   -.720E+00 0.769E+00 0.165E+00   0.539E-05 0.131E-04 0.105E-04
   0.916E+01 -.673E+01 0.606E+01   -.929E+01 0.578E+01 -.473E+01   -.173E+01 0.259E+01 -.371E+01   -.902E-05 0.128E-04 -.158E-04
   0.113E+02 -.173E+01 -.272E+01   -.105E+02 0.151E+01 0.239E+01   -.311E+01 0.709E+00 -.491E+00   -.883E-05 0.800E-05 0.694E-05
   0.668E+01 0.577E+01 -.235E+01   -.617E+01 -.555E+01 0.152E+01   -.123E+01 -.128E+01 0.860E+00   0.449E-05 -.768E-06 -.118E-05
   -.407E+01 0.262E+01 -.342E+01   0.320E+01 -.217E+01 0.354E+01   -.211E+00 -.129E+01 0.141E+01   0.201E-05 0.140E-05 -.709E-05
   0.382E+01 0.109E+02 -.565E+01   -.327E+01 -.981E+01 0.520E+01   -.245E+00 -.189E+01 0.181E+01   -.423E-05 -.136E-04 0.421E-05
   0.330E+01 0.204E+01 0.694E+01   -.291E+01 -.203E+01 -.639E+01   -.516E+00 0.444E+00 -.116E+01   -.319E-06 0.981E-05 -.371E-05
   0.329E+01 -.486E+01 -.108E+02   -.304E+01 0.453E+01 0.101E+02   0.299E+00 -.392E+00 0.202E+01   0.502E-05 -.958E-06 -.594E-06
   0.286E-01 0.119E+02 0.256E+00   -.194E+00 -.105E+02 -.176E+00   -.585E+00 -.299E+01 -.565E-01   0.381E-05 -.140E-04 0.390E-05
   0.215E+01 -.297E+01 -.914E+01   -.212E+01 0.205E+01 0.780E+01   -.121E+01 0.114E+01 0.330E+01   0.811E-05 0.964E-05 0.108E-04
   0.837E+00 0.876E+01 -.781E+00   -.802E+00 -.797E+01 0.190E+01   -.125E+01 -.101E+01 -.158E+01   -.447E-06 0.648E-06 -.138E-04
   0.769E+01 0.457E+01 -.763E+00   -.707E+01 -.492E+01 0.113E+01   -.406E+00 -.488E+00 -.770E+00   -.720E-05 0.225E-06 -.391E-05
   -.200E+01 0.181E+01 -.544E+01   0.211E+01 -.186E+01 0.483E+01   0.522E+00 -.914E-01 0.143E+01   -.623E-06 0.635E-05 -.149E-05
   0.717E+01 0.113E+02 0.251E+01   -.692E+01 -.107E+02 -.273E+01   -.191E+01 -.183E+01 0.331E+00   0.624E-05 0.794E-05 -.840E-05
   0.281E+01 -.754E+01 -.114E+02   -.235E+01 0.689E+01 0.107E+02   -.120E+01 0.147E+01 0.152E+01   0.105E-05 0.230E-05 -.107E-04
   -.415E+01 -.681E+01 0.384E+01   0.396E+01 0.627E+01 -.357E+01   0.855E+00 0.225E+01 0.199E+00   0.156E-04 0.160E-04 0.135E-04
   0.126E+02 -.608E+01 0.129E+01   -.110E+02 0.602E+01 -.165E+01   -.479E+01 0.511E+00 0.129E+01   -.100E-04 -.922E-05 -.204E-05
   -.101E+02 0.693E+00 -.793E+01   0.931E+01 -.507E+00 0.693E+01   0.217E+01 0.447E+00 0.156E+01   0.411E-05 0.468E-05 -.493E-05
   -.219E+01 0.495E+01 0.139E+02   0.211E+01 -.401E+01 -.126E+02   0.115E+01 -.195E+01 -.315E+01   0.222E-05 -.101E-05 -.599E-05
   -.662E+01 -.983E+01 -.117E+02   0.660E+01 0.936E+01 0.101E+02   0.126E+01 0.156E+01 0.330E+01   -.307E-05 0.161E-04 0.107E-04
   -.876E+01 0.512E+01 0.268E+01   0.751E+01 -.463E+01 -.266E+01   0.208E+01 -.127E+01 -.363E+00   0.131E-04 -.108E-05 -.172E-04
   0.757E+01 -.107E+02 0.588E+01   -.678E+01 0.970E+01 -.543E+01   -.200E+01 0.308E+01 -.144E-01   0.303E-05 0.591E-05 -.823E-05
   0.333E+01 0.189E+00 0.144E+02   -.313E+01 0.344E+00 -.131E+02   -.260E+00 -.543E+00 -.176E+01   0.789E-06 0.626E-06 -.483E-05
   0.863E+01 -.847E+01 0.218E+01   -.818E+01 0.766E+01 -.185E+01   -.278E+00 0.203E+01 -.879E+00   0.680E-05 0.129E-04 -.151E-04
   0.688E+01 -.767E+01 -.207E+01   -.580E+01 0.664E+01 0.194E+01   -.209E+01 0.143E+01 -.181E+00   -.696E-05 0.112E-04 -.107E-04
   -.209E+01 0.784E+01 -.413E+00   0.260E+01 -.742E+01 0.802E+00   -.124E+00 -.173E+00 0.454E+00   0.601E-06 0.446E-05 -.844E-05
   -.115E+01 0.128E+01 -.108E+02   0.977E+00 -.138E+01 0.998E+01   0.266E+00 0.723E+00 0.254E+01   0.547E-05 0.758E-05 -.213E-05
   -.739E+00 -.178E+01 -.462E+01   0.684E+00 0.194E+01 0.462E+01   -.141E+01 0.595E+00 -.560E+00   -.869E-05 0.424E-05 -.134E-04
   -.361E+01 0.752E+01 -.664E+01   0.328E+01 -.741E+01 0.581E+01   -.186E+00 -.155E+01 0.125E+01   0.532E-05 0.677E-05 0.612E-05
 -----------------------------------------------------------------------------------------------
   0.475E+00 -.576E+00 0.501E+00   0.264E-12 -.206E-12 -.355E-13   -.475E+00 0.576E+00 -.501E+00   0.229E-05 -.763E-06 -.139E-04
 
 
 POSITION                                       TOTAL-FORCE (eV/Angst)
 -----------------------------------------------------------------------------------
     21.77003     11.04187     10.97509         0.322701     -1.483637     -2.928727
     21.79683     13.58118     13.64616         0.999468      1.037432     -0.090269
      0.05945      5.46868      5.49699        -1.503868     -1.273513     -1.550589
     10.89322     18.94660      8.16108         1.023235      3.278934     -1.190726
     13.63528     10.94057      2.73975        -1.345784     -0.815426     -0.705457
     13.76421     13.51497      5.41244        -0.981968     -0.024953     -0.142329
     13.66504     16.32182      8.14438         0.557951      0.284599      0.464107
      2.83467      8.21427     10.87002        -1.150989     -0.082066      0.124942
     16.41508     10.92732      5.56781         0.217583     -0.811716     -1.105360
     16.51383     13.68416      8.40837        -1.668455     -1.327577     -3.704714
     16.44031     16.39075     11.02994        -1.293863     -1.329110     -0.536859
     16.41621     18.94809     13.54235        -1.667135      2.807734      1.116680
     19.17363     21.75275     19.18638        -0.149521      0.271790     -0.155028
     19.08788     13.68228     10.93955         0.501513      0.073143     -0.111277
     19.08856     16.36571     13.65734         1.015103      0.080627     -0.687862
      8.12287      8.19530     16.28118         0.660733      0.357370      0.911741
      2.76313     13.61477     10.92784        -1.520429      0.891200      0.602519
     13.61800      5.50716     13.58849         0.057472      0.302865      0.549846
     13.55360      8.43718     16.55798        -0.444327     -3.727143     -1.415613
     13.56226     10.81440     19.10923         1.773364      1.949529      0.153508
      5.45263     13.64721     13.48873        -0.052331     -0.055535      2.097218
      5.46905      5.44080      5.55233        -0.195399     -0.209971     -1.685533
      5.51882      8.27143      8.19765        -0.701940     -0.893665     -0.536996
      5.56342     10.87072     11.06586        -0.514124      0.760778     -1.511947
      8.26496     13.65420     16.35015        -0.767976     -1.497519     -0.151056
      8.10085      5.54816      8.26936         1.239698     -1.779400      0.284650
      8.14037      8.17778     10.95454         1.323623      0.318826     -0.191314
      8.06030     10.83336     13.69310         2.033701      1.103477     -0.601035
     10.93706      2.88603      8.22090        -0.721087     -1.421544     -0.061490
     11.05863      5.46710     11.03156        -1.091823      0.782851     -0.599289
     10.85390      8.20351     13.64127        -1.742915      1.366534      1.109488
     10.82414     10.98456     16.30583         2.882147     -0.749228      1.220798
     16.26764      5.52160     10.77015         0.700824     -0.136873      1.741069
     16.45917      8.19648     13.57308        -0.553191     -0.852596      0.718201
     16.38882     11.06307     16.35165        -0.771950     -1.111698     -0.179550
      5.65321     13.72813      8.33070        -2.453339     -0.241623     -0.794733
      8.17698     16.29072     13.74125         0.696044      0.559464     -0.241122
      8.26803      8.23328      5.44206        -0.391762     -0.126549      0.608480
      8.11463     10.97860      8.16510         1.551783      0.316214     -0.068832
      8.07556     13.79551     10.93700         1.614074     -0.999755      0.597508
     10.90257     16.34535     16.26564         0.786348     -1.002667      2.157592
     11.04563      8.31915      8.07071        -0.073265     -1.431182      1.070825
     10.98758     10.88444     10.88935        -0.729492      1.089752     -0.412641
     10.81143     13.65037     13.64101         1.282312      0.622976     -0.575227
     13.70930      5.53699      8.35148        -1.301931     -0.922334     -2.508624
     13.54689      8.26825     10.96991         1.472855     -0.402512      0.540422
     13.72093     10.84472     13.55269        -1.136995      0.571844      0.882795
     13.63912     13.61520     16.49766         0.295708      1.150727     -0.549964
      8.24063      8.25829      0.02342        -0.365805     -0.926731     -0.245870
      8.24926     10.96136      2.72954        -0.980476     -0.318472     -0.576827
     19.09986     13.66313     16.43120         0.554991     -1.259241      0.095371
      8.24549     16.32799      8.28891         0.259193      0.735180     -1.630133
     10.86084      8.25086      2.61221        -0.268493     -0.859074      1.073871
     10.84644     10.95782      5.27539         1.316594     -0.093148      1.638365
     11.03214     13.61762      8.33064        -1.583016      0.282099     -0.742886
     10.81592     16.58737     10.98524         2.508609     -1.329942     -0.114664
     13.62593      8.13613      5.50427         0.113447      0.261605     -1.660316
     13.71472     11.04179      8.33527        -0.049447     -1.246878     -1.557583
     13.83239     13.50681     10.97996        -1.747342      1.734192     -0.264879
     13.59952     16.37996     13.67824         0.450557      0.739795     -0.702339
     16.21415      8.21873      8.22364         2.568639      0.156308     -0.802113
     16.41419     11.08789     10.97664         0.501786     -1.978828     -0.824616
     16.40497     13.69018     13.67696         0.722526     -0.630319      0.337949
     16.36024     16.36530     16.23626         1.059505     -0.156646      1.666102
      1.17027      1.27457      1.27968         3.048902      1.906245      1.838011
      1.46233      4.05268      4.04635        -0.790716     -0.259447      0.329165
      1.28775      6.72858      6.84196         1.830251      1.141966      0.290982
      1.45409      9.59020      9.53891        -2.550451     -1.522778      1.031287
      4.15253      1.18857      4.00827         0.432950      1.296336      0.467687
      4.08369      4.01634      6.68090         0.474089     -0.132302      2.038368
      4.24038      6.85893      9.67078        -0.540135     -0.666069     -1.601674
      3.97769      9.65502     12.19782         1.258133     -0.923798      1.429481
      6.90633      1.25069      6.90806         0.094771      1.399527      0.138878
      6.75203      4.02106      9.64372         1.766028      2.602254      0.934071
      6.75764      6.78671     12.27620         2.191649     -0.457884     -0.107744
      6.82698      9.51230     14.97369        -2.038156     -0.565180      0.441336
      9.49332      1.41356      9.58904         0.352160      0.067984     -0.774675
      9.63493      4.02726     12.20481        -0.739597      0.758023      0.966808
      9.50519      6.93313     14.93269         0.074813     -1.959162      0.985307
      9.48833      9.66088     17.58998         0.221262     -1.686011      1.151816
      4.11107      4.14922      1.37895        -0.788397      0.065986     -1.373114
      4.09693      6.80052      4.06168        -0.188528      1.026989      0.809310
      4.00494      9.59352      6.81601         2.411522      1.099102      0.621489
      4.04604     12.29119      9.63192         1.502938     -0.958391     -0.821452
      6.80518      4.02049      4.10270        -0.470649     -0.106332      0.183655
      6.82932      6.71732      6.84954         0.022364      2.284114     -0.444305
      6.87845      9.57444      9.51491        -0.202987      0.199396      0.944548
      6.89672     12.31568     12.34801        -0.035874     -0.184557     -0.765179
      9.51569      4.01210      6.79020        -0.016163      1.805791      0.397112
      9.62984      6.84783      9.54095         0.068007      0.333213      0.362979
      9.67433      9.69096     12.33194        -1.826008     -0.806592     -0.405216
      9.60794     12.17203     14.95543        -2.116204      1.401209     -0.650069
     12.23082      4.16664      9.54950         1.769516     -0.119338      1.083599
     12.13221      7.03106     12.43738         2.682673     -2.594140     -2.203269
     12.22717      9.35012     14.98628         0.568222      2.884342      0.273642
     12.39307     12.40151     17.95796        -1.780528     -0.816617     -1.098973
      6.78683      6.67730      1.42828         0.701496      0.788324     -1.136602
      6.78498      9.58568      3.97696         0.747042      0.175220      1.219103
      6.73377     12.34278      6.83705         0.786850     -0.081604      0.050059
      6.84868     15.14956      9.64688        -0.532825      0.192810     -0.417216
      9.64644      6.76273      4.19697        -1.858990      1.642185     -2.374321
      9.73302      9.65619      6.85150        -2.313398      0.486836     -0.821275
      9.54421     12.40174      9.61099        -0.716896     -1.048201      0.031716
      9.59100     15.12328     12.17660        -1.083142     -0.838313      1.525029
     12.24302      6.81000      6.70906         0.302193     -0.842118      1.355978
     12.34804      9.57167      9.56277        -0.131596      0.457998     -0.606038
     12.24373     12.34407     12.18004         0.548384     -0.726165      1.262729
     12.34386     15.06353     15.03541        -0.749671     -1.612745      0.023810
     14.99508      6.92338      9.50003        -1.179455      0.211660      1.966369
     15.19484      9.59265     12.26283        -1.217450     -0.222739     -0.466624
     14.94803     12.38046     15.01974         0.217879     -0.836978     -0.402554
     15.02577     15.07852     17.75485         0.629338     -0.140566      0.817503
      9.64608      9.71869      1.34831        -1.663797     -1.271465      0.101927
      9.52330     12.30349      4.03076        -0.733629      0.826959      0.815467
      9.57963     14.82443      6.86005         0.665100      1.704540      0.468894
      9.71016     17.72556      9.48475        -3.169162      0.451789      0.933873
     12.18165      9.47500      4.02155         1.397310      0.633555      0.561464
     12.23757     12.32423      6.95442         1.071050     -1.009349     -1.830247
     12.27579     14.99638      9.55685         1.246926      1.092935      1.702231
     12.27058     17.90517     12.29150         0.828393     -0.788626     -0.340770
     15.05206      9.42909      6.76223        -1.209571      2.070940      0.436302
     15.13114     12.31757      9.60681        -0.064591     -0.008885     -0.502642
     14.99497     14.94485     12.38612         0.162537      1.228259     -0.548833
     15.06280     17.73030     14.99194        -1.013301      0.392482     -0.312423
     17.66595      9.53890      9.54119         0.383041      0.243423      0.842647
     17.81221     12.28948     12.23422         0.096606      0.625430      1.672510
     17.89156     14.96290     15.05502        -1.461673      0.755617     -0.562404
     17.75543     17.86684     17.74527        -0.514509     -1.445860      0.412818
 -----------------------------------------------------------------------------------
    total drift:                               -0.000003     -0.000004     -0.000017


--------------------------------------------------------------------------------------------------------



  FREE ENERGIE OF THE ION-ELECTRON SYSTEM (eV)
  ---------------------------------------------------
  free  energy   TOTEN  =      -679.29912022 eV

  energy  without entropy=     -679.29912022  energy(sigma->0) =     -679.29912022
 


--------------------------------------------------------------------------------------------------------


    POTLOK:  cpu time    0.9911: real time    0.9916


--------------------------------------------------------------------------------------------------------


     LOOP+:  cpu time 1469.1300: real time 1469.8171
    4ORBIT:  cpu time    0.0000: real time    0.0000

 total amount of memory used by VASP MPI-rank0   221701. kBytes
=======================================================================

   base      :      30000. kBytes
   nonl-proj :      10690. kBytes
   fftplans  :      66746. kBytes
   grid      :      26864. kBytes
   one-center:         24. kBytes
   wavefun   :      87377. kBytes
 
  
  
 General timing and accounting informations for this job:
 ========================================================
  
                  Total CPU time used (sec):     1493.213
                            User time (sec):     1492.085
                          System time (sec):        1.128
                         Elapsed time (sec):     1495.133
  
                   Maximum memory used (kb):      338368.
                   Average memory used (kb):           0.
  
                          Minor page faults:       142542
                          Major page faults:            0
                 Voluntary context switches:         1397
