<?xml version="1.0" encoding="ISO-8859-1"?>
<modeling>
 <generator>
  <i name="program" type="string">vasp </i>
  <i name="version" type="string">5.4.4.18Apr17-6-g9f103f2a35  </i>
  <i name="subversion" type="string">(build Nov 08 2017 09:05:29) complex            parallel </i>
  <i name="platform" type="string">Intel_17.33 </i>
  <i name="date" type="string">2020 07 18 </i>
  <i name="time" type="string">21:00:02 </i>
 </generator>
 <incar>
  <i type="string" name="SYSTEM">potpaw_PBE@./ARUN.APL1ZEROSTATE</i>
  <i type="string" name="PREC">accurate</i>
  <i type="string" name="ALGO">Normal</i>
  <i type="int" name="NSIM">     4</i>
  <i type="logical" name="ADDGRID"> T  </i>
  <i type="int" name="NELM">   120</i>
  <i type="int" name="NELMIN">     4</i>
  <i name="EDIFF">      0.00000001</i>
  <i type="int" name="NSW">     0</i>
  <i type="int" name="ISYM">     2</i>
  <i name="ENMAX">    500.00000000</i>
  <i type="logical" name="LREAL"> F  </i>
  <i type="logical" name="LPLANE"> T  </i>
  <i type="int" name="ISMEAR">     0</i>
  <i name="SIGMA">      0.01000000</i>
  <i type="logical" name="LWAVE"> F  </i>
  <i type="logical" name="LCHARG"> F  </i>
  <i type="logical" name="LELF"> F  </i>
  <i type="logical" name="LAECHG"> F  </i>
  <v type="int" name="KPOINT_BSE">    -1     0     0     0</v>
  <i type="int" name="NELM">   120</i>
 </incar>
 <structure name="primitive_cell" >
  <crystal>
   <varray name="basis" >
    <v>       0.00000000      10.93733369      10.93733369 </v>
    <v>      10.93733369       0.00000000      10.93733369 </v>
    <v>      10.93733369      10.93733369       0.00000000 </v>
   </varray>
   <i name="volume">   2616.76295363 </i>
   <varray name="rec_basis" >
    <v>      -0.04571498       0.04571498       0.04571498 </v>
    <v>       0.04571498      -0.04571498       0.04571498 </v>
    <v>       0.04571498       0.04571498      -0.04571498 </v>
   </varray>
  </crystal>
  <varray name="positions" >
   <v>       0.01128852      -0.00783655      -0.00173073 </v>
   <v>       0.06326892       0.05373217       0.05326527 </v>
   <v>       0.06495737       0.05831836      -0.17637774 </v>
   <v>       0.06899722      -0.19227130       0.06024484 </v>
   <v>      -0.19198670       0.06412866       0.06881875 </v>
   <v>       0.24825567      -0.00058800      -0.00652911 </v>
   <v>       0.24876467       0.00079751      -0.24656767 </v>
   <v>       0.25298451      -0.25278146      -0.00201453 </v>
   <v>      -0.00499084      -0.24079955      -0.00615616 </v>
   <v>       0.00010174       0.23873227      -0.24572608 </v>
   <v>       0.00187798       0.00026343      -0.24682267 </v>
   <v>      -0.00435133       0.00348361       0.24914967 </v>
   <v>       0.00205909       0.24843585      -0.00176308 </v>
   <v>       0.00776533      -0.25612880       0.25610403 </v>
   <v>      -0.25204048      -0.00080350       0.24080035 </v>
   <v>      -0.25714883       0.25099461       0.00817908 </v>
   <v>      -0.25875639       0.00492349      -0.00895694 </v>
   <v>       0.30158818      -0.18570293       0.06662407 </v>
   <v>       0.30681584      -0.18824179      -0.18318885 </v>
   <v>       0.31136190       0.05716999      -0.18645467 </v>
   <v>      -0.17866628      -0.17943833       0.31253629 </v>
   <v>      -0.18283823       0.29808449       0.06559597 </v>
   <v>       0.06011064       0.30757987      -0.19381204 </v>
   <v>      -0.18050882       0.30432063      -0.18242235 </v>
   <v>       0.06790135      -0.19479097       0.31305417 </v>
   <v>      -0.18274987       0.06339627       0.30653323 </v>
   <v>       0.06464732      -0.19229648      -0.19250615 </v>
   <v>      -0.19998089       0.06717108      -0.17937186 </v>
   <v>      -0.18798624      -0.20376294       0.07128058 </v>
   <v>       0.24625610       0.23607269      -0.24438326 </v>
   <v>       0.25830532      -0.25471175      -0.24453963 </v>
   <v>       0.24869085      -0.24007602       0.25116579 </v>
   <v>      -0.23396795       0.23834831      -0.24944962 </v>
   <v>      -0.24724582      -0.26191317       0.25156349 </v>
   <v>      -0.25150105       0.26325231       0.24541091 </v>
   <v>       0.05725429      -0.42565057       0.05709646 </v>
   <v>       0.31601631      -0.43429153       0.05162939 </v>
   <v>       0.30984024       0.05377314      -0.43342230 </v>
   <v>       0.30339632       0.06656121       0.06713985 </v>
   <v>       0.05881712      -0.43798943       0.30800891 </v>
   <v>       0.04774029       0.31873556       0.06093037 </v>
   <v>       0.06478312       0.06129454       0.31458004 </v>
   <v>      -0.43292447       0.05611159       0.31006008 </v>
   <v>       0.06003559       0.32369317      -0.44171966 </v>
   <v>       0.06028653       0.07030070      -0.44978134 </v>
   <v>      -0.43849276       0.06405248       0.05368634 </v>
   <v>      -0.43819305       0.32239242       0.06530498 </v>
   <v>       0.25503037      -0.48625299      -0.00388806 </v>
   <v>       0.49987002      -0.25117973      -0.00355404 </v>
   <v>      -0.47694949      -0.00915540       0.24836051 </v>
   <v>       0.24276412      -0.00177830      -0.49336041 </v>
   <v>      -0.49886463      -0.25065115      -0.24944317 </v>
   <v>       0.23603606       0.25882325      -0.00036244 </v>
   <v>       0.24719484       0.25037236      -0.49442624 </v>
   <v>      -0.49738792      -0.00030801      -0.25339241 </v>
   <v>       0.25041054      -0.00801533       0.25310876 </v>
   <v>      -0.24690320      -0.24471657       0.49174055 </v>
   <v>      -0.00874804       0.24202212       0.25651174 </v>
   <v>      -0.00618377      -0.49892220       0.25458718 </v>
   <v>       0.26133758       0.49472998       0.24593029 </v>
   <v>       0.00819056      -0.24461536       0.49805655 </v>
   <v>      -0.25158099       0.00943604      -0.25555115 </v>
   <v>       0.00066181      -0.49740617      -0.25677579 </v>
   <v>      -0.24759197       0.49819271      -0.25478900 </v>
   <v>       0.01043321      -0.25854571      -0.25899473 </v>
   <v>      -0.26516638      -0.49665665      -0.00241035 </v>
   <v>       0.30449050      -0.18330071      -0.42743533 </v>
   <v>      -0.49940879       0.24892004       0.25566516 </v>
   <v>      -0.44564372      -0.17787682      -0.18629848 </v>
   <v>      -0.00089970       0.25726161       0.49035952 </v>
   <v>      -0.25239497      -0.25901744       0.00169107 </v>
   <v>      -0.25001772       0.01169288      -0.49482014 </v>
   <v>       0.31055300      -0.43220314      -0.18435768 </v>
   <v>       0.49377504       0.25086546      -0.00147139 </v>
   <v>       0.30898440      -0.43665563       0.31711199 </v>
   <v>       0.30970397       0.31672883      -0.42683914 </v>
   <v>      -0.19043891       0.30374491      -0.42684037 </v>
   <v>      -0.18368240      -0.19386837      -0.18275291 </v>
   <v>      -0.18592615      -0.19074880      -0.43544535 </v>
   <v>      -0.19909530      -0.43353052       0.31198379 </v>
   <v>       0.32188311       0.31395963      -0.19507937 </v>
   <v>       0.33537536      -0.19822633       0.30747403 </v>
   <v>      -0.19269914      -0.43658830      -0.18622007 </v>
   <v>      -0.18778308       0.31676117       0.31380562 </v>
   <v>      -0.44642700      -0.18337825       0.30130819 </v>
   <v>      -0.43873687       0.31251943      -0.19014439 </v>
   <v>      -0.44177901       0.31172650       0.31716971 </v>
   <v>      -0.49803236      -0.49350092      -0.00336226 </v>
   <v>      -0.49595081      -0.00901837      -0.49255276 </v>
   <v>       0.00365948      -0.49459468      -0.00457482 </v>
   <v>       0.49857767       0.00401192       0.00142331 </v>
   <v>       0.00110248      -0.01638798      -0.49626263 </v>
   <v>      -0.00759994       0.49476690      -0.49794537 </v>
   <v>      -0.44662712       0.07384122      -0.19797611 </v>
   <v>      -0.43746480      -0.44012281       0.05797354 </v>
   <v>      -0.43606028      -0.43147767      -0.19753285 </v>
   <v>      -0.43493414      -0.19977097       0.06883021 </v>
   <v>      -0.17951832       0.06153240      -0.43535761 </v>
   <v>       0.05833395      -0.44492531      -0.43569604 </v>
   <v>      -0.43074924      -0.19599637      -0.43730599 </v>
   <v>      -0.43102876       0.05613987      -0.44047156 </v>
   <v>       0.06529594      -0.19670855      -0.43229188 </v>
   <v>       0.05208119      -0.43381054      -0.18997993 </v>
   <v>      -0.18832696      -0.43698609      -0.43441518 </v>
   <v>      -0.19271858      -0.43823711       0.06242774 </v>
   <v>       0.48706463      -0.48316745      -0.25213786 </v>
   <v>       0.48807506      -0.24895295      -0.49654252 </v>
   <v>       0.25885367      -0.49676035      -0.24930337 </v>
   <v>       0.24431131       0.49359332      -0.48369192 </v>
   <v>      -0.49750314       0.49907625       0.24519743 </v>
   <v>      -0.49755225      -0.25522730       0.24759874 </v>
   <v>      -0.49580598       0.24234116       0.49957898 </v>
   <v>       0.26017646      -0.25719821       0.49578973 </v>
   <v>      -0.24725015       0.49920980       0.23774339 </v>
   <v>      -0.23852747       0.23849738       0.49985032 </v>
   <v>      -0.24661907       0.49381623       0.49467206 </v>
   <v>       0.49903070       0.26263968      -0.25397185 </v>
   <v>       0.30800622       0.31824658       0.30615766 </v>
   <v>       0.30233805       0.30849623       0.06487572 </v>
   <v>       0.30927383       0.06208497       0.31249725 </v>
   <v>       0.06025245       0.31485700       0.30734056 </v>
   <v>      -0.25752838      -0.25799064      -0.24619293 </v>
   <v>       0.25253347       0.25511591       0.24491868 </v>
   <v>       0.31023973      -0.43591622      -0.43510259 </v>
   <v>      -0.43860268      -0.44777682      -0.43277943 </v>
   <v>      -0.43548520      -0.43700627       0.32152957 </v>
   <v>      -0.43000181       0.30873397      -0.43610765 </v>
   <v>       0.49309146      -0.49747852      -0.49792724 </v>
  </varray>
 </structure>
 <varray name="primitive_index" >
  <v type="int" >        1 </v>
  <v type="int" >       65 </v>
  <v type="int" >      113 </v>
  <v type="int" >       77 </v>
  <v type="int" >       68 </v>
  <v type="int" >        2 </v>
  <v type="int" >       50 </v>
  <v type="int" >       14 </v>
  <v type="int" >       13 </v>
  <v type="int" >       53 </v>
  <v type="int" >       49 </v>
  <v type="int" >       17 </v>
  <v type="int" >        5 </v>
  <v type="int" >       29 </v>
  <v type="int" >       20 </v>
  <v type="int" >        8 </v>
  <v type="int" >        4 </v>
  <v type="int" >       78 </v>
  <v type="int" >      126 </v>
  <v type="int" >      114 </v>
  <v type="int" >       96 </v>
  <v type="int" >       72 </v>
  <v type="int" >      117 </v>
  <v type="int" >      120 </v>
  <v type="int" >       93 </v>
  <v type="int" >       84 </v>
  <v type="int" >      125 </v>
  <v type="int" >      116 </v>
  <v type="int" >       80 </v>
  <v type="int" >       54 </v>
  <v type="int" >       62 </v>
  <v type="int" >       30 </v>
  <v type="int" >       56 </v>
  <v type="int" >       32 </v>
  <v type="int" >       24 </v>
  <v type="int" >       73 </v>
  <v type="int" >       74 </v>
  <v type="int" >       98 </v>
  <v type="int" >       66 </v>
  <v type="int" >       89 </v>
  <v type="int" >       69 </v>
  <v type="int" >       81 </v>
  <v type="int" >       83 </v>
  <v type="int" >      101 </v>
  <v type="int" >       97 </v>
  <v type="int" >       67 </v>
  <v type="int" >       71 </v>
  <v type="int" >       10 </v>
  <v type="int" >       15 </v>
  <v type="int" >       19 </v>
  <v type="int" >       34 </v>
  <v type="int" >       63 </v>
  <v type="int" >        6 </v>
  <v type="int" >       38 </v>
  <v type="int" >       51 </v>
  <v type="int" >       18 </v>
  <v type="int" >       48 </v>
  <v type="int" >       21 </v>
  <v type="int" >       25 </v>
  <v type="int" >       26 </v>
  <v type="int" >       45 </v>
  <v type="int" >       52 </v>
  <v type="int" >       57 </v>
  <v type="int" >       60 </v>
  <v type="int" >       61 </v>
  <v type="int" >       12 </v>
  <v type="int" >      110 </v>
  <v type="int" >       23 </v>
  <v type="int" >      127 </v>
  <v type="int" >       37 </v>
  <v type="int" >       16 </v>
  <v type="int" >       36 </v>
  <v type="int" >      122 </v>
  <v type="int" >        7 </v>
  <v type="int" >       90 </v>
  <v type="int" >      102 </v>
  <v type="int" >      104 </v>
  <v type="int" >      128 </v>
  <v type="int" >      112 </v>
  <v type="int" >       92 </v>
  <v type="int" >      118 </v>
  <v type="int" >       94 </v>
  <v type="int" >      124 </v>
  <v type="int" >       88 </v>
  <v type="int" >       95 </v>
  <v type="int" >      119 </v>
  <v type="int" >       87 </v>
  <v type="int" >       11 </v>
  <v type="int" >       35 </v>
  <v type="int" >        9 </v>
  <v type="int" >        3 </v>
  <v type="int" >       33 </v>
  <v type="int" >       41 </v>
  <v type="int" >      115 </v>
  <v type="int" >       75 </v>
  <v type="int" >      123 </v>
  <v type="int" >       79 </v>
  <v type="int" >      100 </v>
  <v type="int" >      105 </v>
  <v type="int" >      111 </v>
  <v type="int" >       99 </v>
  <v type="int" >      109 </v>
  <v type="int" >      121 </v>
  <v type="int" >      108 </v>
  <v type="int" >       76 </v>
  <v type="int" >       59 </v>
  <v type="int" >       47 </v>
  <v type="int" >       58 </v>
  <v type="int" >       42 </v>
  <v type="int" >       27 </v>
  <v type="int" >       31 </v>
  <v type="int" >       39 </v>
  <v type="int" >       46 </v>
  <v type="int" >       28 </v>
  <v type="int" >       40 </v>
  <v type="int" >       44 </v>
  <v type="int" >       55 </v>
  <v type="int" >       86 </v>
  <v type="int" >       70 </v>
  <v type="int" >       82 </v>
  <v type="int" >       85 </v>
  <v type="int" >       64 </v>
  <v type="int" >       22 </v>
  <v type="int" >      106 </v>
  <v type="int" >      107 </v>
  <v type="int" >       91 </v>
  <v type="int" >      103 </v>
  <v type="int" >       43 </v>
 </varray>
 <kpoints>
  <generation param="Gamma">
   <v type="int" name="divisions">       2        2        2 </v>
   <v name="usershift">      0.00000000       0.00000000       0.00000000 </v>
   <v name="genvec1">      0.50000000       0.00000000       0.00000000 </v>
   <v name="genvec2">      0.00000000       0.50000000       0.00000000 </v>
   <v name="genvec3">      0.00000000       0.00000000       0.50000000 </v>
   <v name="shift">      0.00000000       0.00000000       0.00000000 </v>
  </generation>
  <varray name="kpointlist" >
   <v>       0.00000000       0.00000000       0.00000000 </v>
   <v>       0.50000000       0.00000000       0.00000000 </v>
   <v>       0.00000000       0.50000000       0.00000000 </v>
   <v>       0.50000000       0.50000000       0.00000000 </v>
   <v>       0.00000000       0.00000000       0.50000000 </v>
   <v>       0.50000000       0.00000000       0.50000000 </v>
   <v>       0.00000000       0.50000000       0.50000000 </v>
   <v>       0.50000000       0.50000000       0.50000000 </v>
  </varray>
  <varray name="weights" >
   <v>       0.12500000 </v>
   <v>       0.12500000 </v>
   <v>       0.12500000 </v>
   <v>       0.12500000 </v>
   <v>       0.12500000 </v>
   <v>       0.12500000 </v>
   <v>       0.12500000 </v>
   <v>       0.12500000 </v>
  </varray>
 </kpoints>
 <parameters>
  <separator name="general" >
   <i type="string" name="SYSTEM">potpaw_PBE@./ARUN.APL1ZEROSTATE</i>
   <i type="logical" name="LCOMPAT"> F  </i>
  </separator>
  <separator name="electronic" >
   <i type="string" name="PREC">accura</i>
   <i name="ENMAX">    500.00000000</i>
   <i name="ENAUG">    322.06900000</i>
   <i name="EDIFF">      0.00000001</i>
   <i type="int" name="IALGO">    38</i>
   <i type="int" name="IWAVPR">    10</i>
   <i type="int" name="NBANDS">   322</i>
   <i name="NELECT">    512.00000000</i>
   <i type="int" name="TURBO">     0</i>
   <i type="int" name="IRESTART">     0</i>
   <i type="int" name="NREBOOT">     0</i>
   <i type="int" name="NMIN">     0</i>
   <i name="EREF">      0.00000000</i>
   <separator name="electronic smearing" >
    <i type="int" name="ISMEAR">     0</i>
    <i name="SIGMA">      0.01000000</i>
    <i name="KSPACING">      0.50000000</i>
    <i type="logical" name="KGAMMA"> T  </i>
   </separator>
   <separator name="electronic projectors" >
    <i type="logical" name="LREAL"> F  </i>
    <v name="ROPT">      0.00000000</v>
    <i type="int" name="LMAXPAW">  -100</i>
    <i type="int" name="LMAXMIX">     2</i>
    <i type="logical" name="NLSPLINE"> F  </i>
   </separator>
   <separator name="electronic startup" >
    <i type="int" name="ISTART">     0</i>
    <i type="int" name="ICHARG">     2</i>
    <i type="int" name="INIWAV">     1</i>
   </separator>
   <separator name="electronic spin" >
    <i type="int" name="ISPIN">     1</i>
    <i type="logical" name="LNONCOLLINEAR"> F  </i>
    <v name="MAGMOM">      1.00000000      1.00000000      1.00000000      1.00000000      1.00000000      1.00000000      1.00000000      1.00000000      1.00000000      1.00000000      1.00000000      1.00000000      1.00000000      1.00000000      1.00000000      1.00000000      1.00000000      1.00000000      1.00000000      1.00000000
      1.00000000      1.00000000      1.00000000      1.00000000      1.00000000      1.00000000      1.00000000      1.00000000      1.00000000      1.00000000      1.00000000      1.00000000      1.00000000      1.00000000      1.00000000      1.00000000      1.00000000      1.00000000      1.00000000      1.00000000
      1.00000000      1.00000000      1.00000000      1.00000000      1.00000000      1.00000000      1.00000000      1.00000000      1.00000000      1.00000000      1.00000000      1.00000000      1.00000000      1.00000000      1.00000000      1.00000000      1.00000000      1.00000000      1.00000000      1.00000000
      1.00000000      1.00000000      1.00000000      1.00000000      1.00000000      1.00000000      1.00000000      1.00000000      1.00000000      1.00000000      1.00000000      1.00000000      1.00000000      1.00000000      1.00000000      1.00000000      1.00000000      1.00000000      1.00000000      1.00000000
      1.00000000      1.00000000      1.00000000      1.00000000      1.00000000      1.00000000      1.00000000      1.00000000      1.00000000      1.00000000      1.00000000      1.00000000      1.00000000      1.00000000      1.00000000      1.00000000      1.00000000      1.00000000      1.00000000      1.00000000
      1.00000000      1.00000000      1.00000000      1.00000000      1.00000000      1.00000000      1.00000000      1.00000000      1.00000000      1.00000000      1.00000000      1.00000000      1.00000000      1.00000000      1.00000000      1.00000000      1.00000000      1.00000000      1.00000000      1.00000000
      1.00000000      1.00000000      1.00000000      1.00000000      1.00000000      1.00000000      1.00000000      1.00000000</v>
    <i name="NUPDOWN">     -1.00000000</i>
    <i type="logical" name="LSORBIT"> F  </i>
    <v name="SAXIS">      0.00000000      0.00000000      1.00000000</v>
    <i type="logical" name="LSPIRAL"> F  </i>
    <v name="QSPIRAL">      0.00000000      0.00000000      0.00000000</v>
    <i type="logical" name="LZEROZ"> F  </i>
   </separator>
   <separator name="electronic exchange-correlation" >
    <i type="logical" name="LASPH"> F  </i>
    <i type="logical" name="LMETAGGA"> F  </i>
   </separator>
   <separator name="electronic convergence" >
    <i type="int" name="NELM">   120</i>
    <i type="int" name="NELMDL">    -5</i>
    <i type="int" name="NELMIN">     4</i>
    <i name="ENINI">    500.00000000</i>
    <separator name="electronic convergence detail" >
     <i type="logical" name="LDIAG"> T  </i>
     <i type="logical" name="LSUBROT"> F  </i>
     <i name="WEIMIN">      0.00000000</i>
     <i name="EBREAK">      0.00000000</i>
     <i name="DEPER">      0.30000000</i>
     <i type="int" name="NRMM">     4</i>
     <i name="TIME">      0.40000000</i>
    </separator>
   </separator>
   <separator name="electronic mixer" >
    <i name="AMIX">      0.40000000</i>
    <i name="BMIX">      1.00000000</i>
    <i name="AMIN">      0.10000000</i>
    <i name="AMIX_MAG">      1.60000000</i>
    <i name="BMIX_MAG">      1.00000000</i>
    <separator name="electronic mixer details" >
     <i type="int" name="IMIX">     4</i>
     <i type="logical" name="MIXFIRST"> F  </i>
     <i type="int" name="MAXMIX">   -45</i>
     <i name="WC">    100.00000000</i>
     <i type="int" name="INIMIX">     1</i>
     <i type="int" name="MIXPRE">     1</i>
     <i type="int" name="MREMOVE">     5</i>
    </separator>
   </separator>
   <separator name="electronic dipolcorrection" >
    <i type="logical" name="LDIPOL"> F  </i>
    <i type="logical" name="LMONO"> F  </i>
    <i type="int" name="IDIPOL">     0</i>
    <i name="EPSILON">      1.00000000</i>
    <v name="DIPOL">   -100.00000000   -100.00000000   -100.00000000</v>
    <i name="EFIELD">      0.00000000</i>
   </separator>
  </separator>
  <separator name="grids" >
   <i type="int" name="NGX">   120</i>
   <i type="int" name="NGY">   120</i>
   <i type="int" name="NGZ">   120</i>
   <i type="int" name="NGXF">   240</i>
   <i type="int" name="NGYF">   240</i>
   <i type="int" name="NGZF">   240</i>
   <i type="logical" name="ADDGRID"> T  </i>
  </separator>
  <separator name="ionic" >
   <i type="int" name="NSW">     0</i>
   <i type="int" name="IBRION">    -1</i>
   <i type="int" name="MDALGO">     0</i>
   <i type="int" name="ISIF">     2</i>
   <i name="PSTRESS">      0.00000000</i>
   <i name="EDIFFG">      0.00000010</i>
   <i type="int" name="NFREE">     0</i>
   <i name="POTIM">      0.50000000</i>
   <i name="SMASS">     -3.00000000</i>
   <i name="SCALEE">      1.00000000</i>
  </separator>
  <separator name="ionic md" >
   <i name="TEBEG">      0.00010000</i>
   <i name="TEEND">      0.00010000</i>
   <i type="int" name="NBLOCK">     1</i>
   <i type="int" name="KBLOCK">     1</i>
   <i type="int" name="NPACO">   256</i>
   <i name="APACO">     16.00000000</i>
  </separator>
  <separator name="symmetry" >
   <i type="int" name="ISYM">     2</i>
   <i name="SYMPREC">      0.00001000</i>
  </separator>
  <separator name="dos" >
   <i type="int" name="LORBIT">     0</i>
   <v name="RWIGS">     -1.00000000</v>
   <i type="int" name="NEDOS">   301</i>
   <i name="EMIN">     10.00000000</i>
   <i name="EMAX">    -10.00000000</i>
   <i name="EFERMI">      0.00000000</i>
  </separator>
  <separator name="writing" >
   <i type="int" name="NWRITE">     2</i>
   <i type="logical" name="LWAVE"> F  </i>
   <i type="logical" name="LDOWNSAMPLE"> F  </i>
   <i type="logical" name="LCHARG"> F  </i>
   <i type="logical" name="LPARD"> F  </i>
   <i type="logical" name="LVTOT"> F  </i>
   <i type="logical" name="LVHAR"> F  </i>
   <i type="logical" name="LELF"> F  </i>
   <i type="logical" name="LOPTICS"> F  </i>
   <v name="STM">      0.00000000      0.00000000      0.00000000      0.00000000      0.00000000      0.00000000      0.00000000</v>
  </separator>
  <separator name="performance" >
   <i type="int" name="NPAR">     2</i>
   <i type="int" name="NSIM">     4</i>
   <i type="int" name="NBLK">    -1</i>
   <i type="logical" name="LPLANE"> T  </i>
   <i type="logical" name="LSCALAPACK"> T  </i>
   <i type="logical" name="LSCAAWARE"> F  </i>
   <i type="logical" name="LSCALU"> F  </i>
   <i type="logical" name="LASYNC"> F  </i>
   <i type="logical" name="LORBITALREAL"> F  </i>
  </separator>
  <separator name="miscellaneous" >
   <i type="int" name="IDIOT">     3</i>
   <i type="int" name="ISPECIAL">     0</i>
   <i type="logical" name="LMUSIC"> F  </i>
   <v name="POMASS">     28.08500000</v>
   <v name="DARWINR">      0.00000000</v>
   <v name="DARWINV">      1.00000000</v>
   <i type="logical" name="LCORR"> T  </i>
  </separator>
  <i type="logical" name="GGA_COMPAT"> T  </i>
  <i type="logical" name="LBERRY"> F  </i>
  <i type="int" name="ICORELEVEL">     0</i>
  <i type="logical" name="LDAU"> F  </i>
  <i type="int" name="I_CONSTRAINED_M">     0</i>
  <separator name="electronic exchange-correlation" >
   <i type="string" name="GGA">--</i>
   <i type="int" name="VOSKOWN">     0</i>
   <i type="logical" name="LHFCALC"> F  </i>
   <i type="string" name="PRECFOCK"></i>
   <i type="logical" name="LSYMGRAD"> F  </i>
   <i type="logical" name="LHFONE"> F  </i>
   <i type="logical" name="LRHFCALC"> F  </i>
   <i type="logical" name="LTHOMAS"> F  </i>
   <i type="logical" name="LMODELHF"> F  </i>
   <i name="ENCUT4O">     -1.00000000</i>
   <i type="int" name="EXXOEP">     0</i>
   <i type="int" name="FOURORBIT">     0</i>
   <i name="AEXX">      0.00000000</i>
   <i name="HFALPHA">      0.00000000</i>
   <i name="MCALPHA">      0.00000000</i>
   <i name="ALDAX">      1.00000000</i>
   <i name="AGGAX">      1.00000000</i>
   <i name="ALDAC">      1.00000000</i>
   <i name="AGGAC">      1.00000000</i>
   <i type="int" name="NKREDX">     1</i>
   <i type="int" name="NKREDY">     1</i>
   <i type="int" name="NKREDZ">     1</i>
   <i type="logical" name="SHIFTRED"> F  </i>
   <i type="logical" name="ODDONLY"> F  </i>
   <i type="logical" name="EVENONLY"> F  </i>
   <i type="int" name="LMAXFOCK">     0</i>
   <i type="int" name="NMAXFOCKAE">     0</i>
   <i type="logical" name="LFOCKAEDFT"> F  </i>
   <i name="HFSCREEN">      0.00000000</i>
   <i name="HFSCREENC">      0.00000000</i>
   <i type="int" name="NBANDSGWLOW">     0</i>
  </separator>
  <separator name="vdW DFT" >
   <i type="logical" name="LUSE_VDW"> F  </i>
   <i name="Zab_VDW">     -0.84910000</i>
   <i name="PARAM1">      0.12340000</i>
   <i name="PARAM2">      1.00000000</i>
   <i name="PARAM3">      0.00000000</i>
  </separator>
  <separator name="model GW" >
   <i type="int" name="MODEL_GW">     0</i>
   <i name="MODEL_EPS0">     12.26607635</i>
   <i name="MODEL_ALPHA">      1.00000000</i>
  </separator>
  <separator name="linear response parameters" >
   <i type="logical" name="LEPSILON"> F  </i>
   <i type="logical" name="LRPA"> F  </i>
   <i type="logical" name="LNABLA"> F  </i>
   <i type="logical" name="LVEL"> F  </i>
   <i type="int" name="KINTER">     0</i>
   <i name="CSHIFT">      0.10000000</i>
   <i name="OMEGAMAX">     -1.00000000</i>
   <i name="DEG_THRESHOLD">      0.00200000</i>
   <i name="RTIME">     -0.10000000</i>
   <i name="WPLASMAI">      0.00000000</i>
   <v name="DFIELD">      0.00000000      0.00000000      0.00000000</v>
   <v name="WPLASMA">      0.00000000      0.00000000      0.00000000      0.00000000      0.00000000      0.00000000      0.00000000      0.00000000      0.00000000</v>
  </separator>
  <separator name="orbital magnetization" >
   <i type="logical" name="NUCIND"> F  </i>
   <v name="MAGPOS">      0.00000000      0.00000000      0.00000000</v>
   <i type="logical" name="LNICSALL"> T  </i>
   <i type="logical" name="ORBITALMAG"> F  </i>
   <i type="logical" name="LMAGBLOCH"> F  </i>
   <i type="logical" name="LCHIMAG"> F  </i>
   <i type="logical" name="LGAUGE"> T  </i>
   <i type="int" name="MAGATOM">     0</i>
   <v name="MAGDIPOL">      0.00000000      0.00000000      0.00000000</v>
   <v name="AVECCONST">      0.00000000      0.00000000      0.00000000</v>
  </separator>
  <separator name="response functions" >
   <i type="logical" name="LADDER"> F  </i>
   <i type="logical" name="LRPAFORCE"> F  </i>
   <i type="logical" name="LFXC"> F  </i>
   <i type="logical" name="LHARTREE"> T  </i>
   <i type="int" name="IBSE">     0</i>
   <v type="int" name="KPOINT">    -1     0     0     0</v>
   <i type="logical" name="LTCTE"> F  </i>
   <i type="logical" name="LTETE"> F  </i>
   <i type="logical" name="LTRIPLET"> F  </i>
   <i type="logical" name="LFXCEPS"> F  </i>
   <i type="logical" name="LFXHEG"> F  </i>
   <i type="int" name="NATURALO">     2</i>
   <i type="logical" name="L2ORDER"> F  </i>
   <i type="logical" name="LMP2LT"> F  </i>
   <i type="logical" name="LUSEW"> F  </i>
   <i name="ENCUTGW">     -2.00000000</i>
   <i name="ENCUTGWSOFT">     -2.00000000</i>
   <i name="ENCUTLF">     -1.00000000</i>
   <i type="int" name="LMAXMP2">    -1</i>
   <i name="SCISSOR">      0.00000000</i>
   <i type="int" name="NOMEGA">     0</i>
   <i type="int" name="NOMEGAR">     0</i>
   <i type="int" name="NBANDSGW">    -1</i>
   <i type="int" name="NBANDSO">    -1</i>
   <i type="int" name="NBANDSV">    -1</i>
   <i type="int" name="NELM">   120</i>
   <i type="int" name="NELMHF">     1</i>
   <i type="int" name="DIM">     3</i>
   <i type="int" name="ANTIRES">     0</i>
   <i name="OMEGAMAX">    -30.00000000</i>
   <i name="OMEGAMIN">    -30.00000000</i>
   <i name="OMEGATL">   -200.00000000</i>
   <i type="int" name="OMEGAGRID">   140</i>
   <i name="CSHIFT">     -0.10000000</i>
   <i type="logical" name="SELFENERGY"> F  </i>
   <i type="logical" name="LSPECTRAL"> F  </i>
   <i type="logical" name="LSPECTRALGW"> F  </i>
   <i type="logical" name="LSINGLES"> F  </i>
   <i type="logical" name="LFERMIGW"> F  </i>
   <i type="logical" name="ODDONLYGW"> F  </i>
   <i type="logical" name="EVENONLYGW"> F  </i>
   <i type="int" name="NKREDLFX">     1</i>
   <i type="int" name="NKREDLFY">     1</i>
   <i type="int" name="NKREDLFZ">     1</i>
   <i type="int" name="MAXMEM">  2800</i>
   <i type="int" name="TELESCOPE">     0</i>
   <i type="int" name="TAUPAR">     1</i>
   <i type="int" name="OMEGAPAR">    -1</i>
   <i name="LAMBDA">      1.00000000</i>
  </separator>
  <separator name="External order field" >
   <i name="OFIELD_KAPPA">      0.00000000</i>
   <v name="OFIELD_K">      0.00000000      0.00000000      0.00000000</v>
   <i name="OFIELD_Q6_NEAR">      0.00000000</i>
   <i name="OFIELD_Q6_FAR">      0.00000000</i>
   <i name="OFIELD_A">      0.00000000</i>
  </separator>
 </parameters>
 <atominfo>
  <atoms>     128 </atoms>
  <types>       1 </types>
  <array name="atoms" >
   <dimension dim="1">ion</dimension>
   <field type="string">element</field>
   <field type="int">atomtype</field>
   <set>
    <rc><c>Si</c><c>   1</c></rc>
    <rc><c>Si</c><c>   1</c></rc>
    <rc><c>Si</c><c>   1</c></rc>
    <rc><c>Si</c><c>   1</c></rc>
    <rc><c>Si</c><c>   1</c></rc>
    <rc><c>Si</c><c>   1</c></rc>
    <rc><c>Si</c><c>   1</c></rc>
    <rc><c>Si</c><c>   1</c></rc>
    <rc><c>Si</c><c>   1</c></rc>
    <rc><c>Si</c><c>   1</c></rc>
    <rc><c>Si</c><c>   1</c></rc>
    <rc><c>Si</c><c>   1</c></rc>
    <rc><c>Si</c><c>   1</c></rc>
    <rc><c>Si</c><c>   1</c></rc>
    <rc><c>Si</c><c>   1</c></rc>
    <rc><c>Si</c><c>   1</c></rc>
    <rc><c>Si</c><c>   1</c></rc>
    <rc><c>Si</c><c>   1</c></rc>
    <rc><c>Si</c><c>   1</c></rc>
    <rc><c>Si</c><c>   1</c></rc>
    <rc><c>Si</c><c>   1</c></rc>
    <rc><c>Si</c><c>   1</c></rc>
    <rc><c>Si</c><c>   1</c></rc>
    <rc><c>Si</c><c>   1</c></rc>
    <rc><c>Si</c><c>   1</c></rc>
    <rc><c>Si</c><c>   1</c></rc>
    <rc><c>Si</c><c>   1</c></rc>
    <rc><c>Si</c><c>   1</c></rc>
    <rc><c>Si</c><c>   1</c></rc>
    <rc><c>Si</c><c>   1</c></rc>
    <rc><c>Si</c><c>   1</c></rc>
    <rc><c>Si</c><c>   1</c></rc>
    <rc><c>Si</c><c>   1</c></rc>
    <rc><c>Si</c><c>   1</c></rc>
    <rc><c>Si</c><c>   1</c></rc>
    <rc><c>Si</c><c>   1</c></rc>
    <rc><c>Si</c><c>   1</c></rc>
    <rc><c>Si</c><c>   1</c></rc>
    <rc><c>Si</c><c>   1</c></rc>
    <rc><c>Si</c><c>   1</c></rc>
    <rc><c>Si</c><c>   1</c></rc>
    <rc><c>Si</c><c>   1</c></rc>
    <rc><c>Si</c><c>   1</c></rc>
    <rc><c>Si</c><c>   1</c></rc>
    <rc><c>Si</c><c>   1</c></rc>
    <rc><c>Si</c><c>   1</c></rc>
    <rc><c>Si</c><c>   1</c></rc>
    <rc><c>Si</c><c>   1</c></rc>
    <rc><c>Si</c><c>   1</c></rc>
    <rc><c>Si</c><c>   1</c></rc>
    <rc><c>Si</c><c>   1</c></rc>
    <rc><c>Si</c><c>   1</c></rc>
    <rc><c>Si</c><c>   1</c></rc>
    <rc><c>Si</c><c>   1</c></rc>
    <rc><c>Si</c><c>   1</c></rc>
    <rc><c>Si</c><c>   1</c></rc>
    <rc><c>Si</c><c>   1</c></rc>
    <rc><c>Si</c><c>   1</c></rc>
    <rc><c>Si</c><c>   1</c></rc>
    <rc><c>Si</c><c>   1</c></rc>
    <rc><c>Si</c><c>   1</c></rc>
    <rc><c>Si</c><c>   1</c></rc>
    <rc><c>Si</c><c>   1</c></rc>
    <rc><c>Si</c><c>   1</c></rc>
    <rc><c>Si</c><c>   1</c></rc>
    <rc><c>Si</c><c>   1</c></rc>
    <rc><c>Si</c><c>   1</c></rc>
    <rc><c>Si</c><c>   1</c></rc>
    <rc><c>Si</c><c>   1</c></rc>
    <rc><c>Si</c><c>   1</c></rc>
    <rc><c>Si</c><c>   1</c></rc>
    <rc><c>Si</c><c>   1</c></rc>
    <rc><c>Si</c><c>   1</c></rc>
    <rc><c>Si</c><c>   1</c></rc>
    <rc><c>Si</c><c>   1</c></rc>
    <rc><c>Si</c><c>   1</c></rc>
    <rc><c>Si</c><c>   1</c></rc>
    <rc><c>Si</c><c>   1</c></rc>
    <rc><c>Si</c><c>   1</c></rc>
    <rc><c>Si</c><c>   1</c></rc>
    <rc><c>Si</c><c>   1</c></rc>
    <rc><c>Si</c><c>   1</c></rc>
    <rc><c>Si</c><c>   1</c></rc>
    <rc><c>Si</c><c>   1</c></rc>
    <rc><c>Si</c><c>   1</c></rc>
    <rc><c>Si</c><c>   1</c></rc>
    <rc><c>Si</c><c>   1</c></rc>
    <rc><c>Si</c><c>   1</c></rc>
    <rc><c>Si</c><c>   1</c></rc>
    <rc><c>Si</c><c>   1</c></rc>
    <rc><c>Si</c><c>   1</c></rc>
    <rc><c>Si</c><c>   1</c></rc>
    <rc><c>Si</c><c>   1</c></rc>
    <rc><c>Si</c><c>   1</c></rc>
    <rc><c>Si</c><c>   1</c></rc>
    <rc><c>Si</c><c>   1</c></rc>
    <rc><c>Si</c><c>   1</c></rc>
    <rc><c>Si</c><c>   1</c></rc>
    <rc><c>Si</c><c>   1</c></rc>
    <rc><c>Si</c><c>   1</c></rc>
    <rc><c>Si</c><c>   1</c></rc>
    <rc><c>Si</c><c>   1</c></rc>
    <rc><c>Si</c><c>   1</c></rc>
    <rc><c>Si</c><c>   1</c></rc>
    <rc><c>Si</c><c>   1</c></rc>
    <rc><c>Si</c><c>   1</c></rc>
    <rc><c>Si</c><c>   1</c></rc>
    <rc><c>Si</c><c>   1</c></rc>
    <rc><c>Si</c><c>   1</c></rc>
    <rc><c>Si</c><c>   1</c></rc>
    <rc><c>Si</c><c>   1</c></rc>
    <rc><c>Si</c><c>   1</c></rc>
    <rc><c>Si</c><c>   1</c></rc>
    <rc><c>Si</c><c>   1</c></rc>
    <rc><c>Si</c><c>   1</c></rc>
    <rc><c>Si</c><c>   1</c></rc>
    <rc><c>Si</c><c>   1</c></rc>
    <rc><c>Si</c><c>   1</c></rc>
    <rc><c>Si</c><c>   1</c></rc>
    <rc><c>Si</c><c>   1</c></rc>
    <rc><c>Si</c><c>   1</c></rc>
    <rc><c>Si</c><c>   1</c></rc>
    <rc><c>Si</c><c>   1</c></rc>
    <rc><c>Si</c><c>   1</c></rc>
    <rc><c>Si</c><c>   1</c></rc>
    <rc><c>Si</c><c>   1</c></rc>
    <rc><c>Si</c><c>   1</c></rc>
    <rc><c>Si</c><c>   1</c></rc>
   </set>
  </array>
  <array name="atomtypes" >
   <dimension dim="1">type</dimension>
   <field type="int">atomspertype</field>
   <field type="string">element</field>
   <field>mass</field>
   <field>valence</field>
   <field type="string">pseudopotential</field>
   <set>
    <rc><c> 128</c><c>Si</c><c>     28.08500000</c><c>      4.00000000</c><c> PAW_PBE Si 05Jan2001                   </c></rc>
   </set>
  </array>
 </atominfo>
 <structure name="initialpos" >
  <crystal>
   <varray name="basis" >
    <v>       0.00000000      10.93733369      10.93733369 </v>
    <v>      10.93733369       0.00000000      10.93733369 </v>
    <v>      10.93733369      10.93733369       0.00000000 </v>
   </varray>
   <i name="volume">   2616.76295363 </i>
   <varray name="rec_basis" >
    <v>      -0.04571498       0.04571498       0.04571498 </v>
    <v>       0.04571498      -0.04571498       0.04571498 </v>
    <v>       0.04571498       0.04571498      -0.04571498 </v>
   </varray>
  </crystal>
  <varray name="positions" >
   <v>       0.01128852       0.99216345       0.99826927 </v>
   <v>       0.24825567       0.99941200       0.99347089 </v>
   <v>       0.49857767       0.00401192       0.00142331 </v>
   <v>       0.74124361       0.00492349       0.99104306 </v>
   <v>       0.00205909       0.24843585       0.99823692 </v>
   <v>       0.23603606       0.25882325       0.99963756 </v>
   <v>       0.49377504       0.25086546       0.99852861 </v>
   <v>       0.74285117       0.25099461       0.00817908 </v>
   <v>       0.00365948       0.50540532       0.99542518 </v>
   <v>       0.25503037       0.51374701       0.99611194 </v>
   <v>       0.50196764       0.50649908       0.99663774 </v>
   <v>       0.73483362       0.50334335       0.99758965 </v>
   <v>       0.99500916       0.75920045       0.99384384 </v>
   <v>       0.25298451       0.74721854       0.99798547 </v>
   <v>       0.49987002       0.74882027       0.99644596 </v>
   <v>       0.74760503       0.74098256       0.00169107 </v>
   <v>       0.99564867       0.00348361       0.24914967 </v>
   <v>       0.25041054       0.99198467       0.25310876 </v>
   <v>       0.52305051       0.99084460       0.24836051 </v>
   <v>       0.74795952       0.99919650       0.24080035 </v>
   <v>       0.99125196       0.24202212       0.25651174 </v>
   <v>       0.25253347       0.25511591       0.24491868 </v>
   <v>       0.50059121       0.24892004       0.25566516 </v>
   <v>       0.74849895       0.26325231       0.24541091 </v>
   <v>       0.99381623       0.50107780       0.25458718 </v>
   <v>       0.26133758       0.49472998       0.24593029 </v>
   <v>       0.50249686       0.49907625       0.24519743 </v>
   <v>       0.75274985       0.49920980       0.23774339 </v>
   <v>       0.00776533       0.74387120       0.25610403 </v>
   <v>       0.24869085       0.75992398       0.25116579 </v>
   <v>       0.50244775       0.74477270       0.24759874 </v>
   <v>       0.75275418       0.73808683       0.25156349 </v>
   <v>       0.00110248       0.98361202       0.50373737 </v>
   <v>       0.24276412       0.99822170       0.50663959 </v>
   <v>       0.50404919       0.99098163       0.50744724 </v>
   <v>       0.74998228       0.01169288       0.50517986 </v>
   <v>       0.99910030       0.25726161       0.49035952 </v>
   <v>       0.24719484       0.25037236       0.50557376 </v>
   <v>       0.50419402       0.24234116       0.49957898 </v>
   <v>       0.76147253       0.23849738       0.49985032 </v>
   <v>       0.99240006       0.49476690       0.50205463 </v>
   <v>       0.24431131       0.49359332       0.51630808 </v>
   <v>       0.49309146       0.50252148       0.50207276 </v>
   <v>       0.75338093       0.49381623       0.49467206 </v>
   <v>       0.00819056       0.75538464       0.49805655 </v>
   <v>       0.26017646       0.74280179       0.49578973 </v>
   <v>       0.48807506       0.75104705       0.50345748 </v>
   <v>       0.75309680       0.75528343       0.49174055 </v>
   <v>       0.00187798       0.00026343       0.75317733 </v>
   <v>       0.24876467       0.00079751       0.75343233 </v>
   <v>       0.50261208       0.99969199       0.74660759 </v>
   <v>       0.74841901       0.00943604       0.74444885 </v>
   <v>       0.00010174       0.23873227       0.75427392 </v>
   <v>       0.24625610       0.23607269       0.75561674 </v>
   <v>       0.49903070       0.26263968       0.74602815 </v>
   <v>       0.76603205       0.23834831       0.75055038 </v>
   <v>       0.00066181       0.50259383       0.74322421 </v>
   <v>       0.25885367       0.50323965       0.75069663 </v>
   <v>       0.48706463       0.51683255       0.74786214 </v>
   <v>       0.75240803       0.49819271       0.74521100 </v>
   <v>       0.01043321       0.74145429       0.74100527 </v>
   <v>       0.25830532       0.74528825       0.75546037 </v>
   <v>       0.50113537       0.74934885       0.75055683 </v>
   <v>       0.74247162       0.74200936       0.75380707 </v>
   <v>       0.06326892       0.05373217       0.05326527 </v>
   <v>       0.30339632       0.06656121       0.06713985 </v>
   <v>       0.56150724       0.06405248       0.05368634 </v>
   <v>       0.80801330       0.06412866       0.06881875 </v>
   <v>       0.04774029       0.31873556       0.06093037 </v>
   <v>       0.30233805       0.30849623       0.06487572 </v>
   <v>       0.56180695       0.32239242       0.06530498 </v>
   <v>       0.81716177       0.29808449       0.06559597 </v>
   <v>       0.05725429       0.57434943       0.05709646 </v>
   <v>       0.31601631       0.56570847       0.05162939 </v>
   <v>       0.56253520       0.55987719       0.05797354 </v>
   <v>       0.80728142       0.56176289       0.06242774 </v>
   <v>       0.06899722       0.80772870       0.06024484 </v>
   <v>       0.30158818       0.81429707       0.06662407 </v>
   <v>       0.56506586       0.80022903       0.06883021 </v>
   <v>       0.81201376       0.79623706       0.07128058 </v>
   <v>       0.06478312       0.06129454       0.31458004 </v>
   <v>       0.30927383       0.06208497       0.31249725 </v>
   <v>       0.56707553       0.05611159       0.31006008 </v>
   <v>       0.81725013       0.06339627       0.30653323 </v>
   <v>       0.06025245       0.31485700       0.30734056 </v>
   <v>       0.30800622       0.31824658       0.30615766 </v>
   <v>       0.55822099       0.31172650       0.31716971 </v>
   <v>       0.81221692       0.31676117       0.31380562 </v>
   <v>       0.05881712       0.56201057       0.30800891 </v>
   <v>       0.30898440       0.56334437       0.31711199 </v>
   <v>       0.56451480       0.56299373       0.32152957 </v>
   <v>       0.80090470       0.56646948       0.31198379 </v>
   <v>       0.06790135       0.80520903       0.31305417 </v>
   <v>       0.33537536       0.80177367       0.30747403 </v>
   <v>       0.55357300       0.81662175       0.30130819 </v>
   <v>       0.82133372       0.82056167       0.31253629 </v>
   <v>       0.06028653       0.07030070       0.55021866 </v>
   <v>       0.30984024       0.05377314       0.56657770 </v>
   <v>       0.56897124       0.05613987       0.55952844 </v>
   <v>       0.82048168       0.06153240       0.56464239 </v>
   <v>       0.06003559       0.32369317       0.55828034 </v>
   <v>       0.30970397       0.31672883       0.57316086 </v>
   <v>       0.56999819       0.30873397       0.56389235 </v>
   <v>       0.80956109       0.30374491       0.57315963 </v>
   <v>       0.05833395       0.55507469       0.56430396 </v>
   <v>       0.31023973       0.56408378       0.56489741 </v>
   <v>       0.56139732       0.55222318       0.56722057 </v>
   <v>       0.81167304       0.56301391       0.56558482 </v>
   <v>       0.06529594       0.80329145       0.56770812 </v>
   <v>       0.30449050       0.81669929       0.57256467 </v>
   <v>       0.56925076       0.80400363       0.56269401 </v>
   <v>       0.81407385       0.80925120       0.56455465 </v>
   <v>       0.06495737       0.05831836       0.82362226 </v>
   <v>       0.31136190       0.05716999       0.81354533 </v>
   <v>       0.55337288       0.07384122       0.80202389 </v>
   <v>       0.80001911       0.06717108       0.82062814 </v>
   <v>       0.06011064       0.30757987       0.80618796 </v>
   <v>       0.32188311       0.31395963       0.80492063 </v>
   <v>       0.56126313       0.31251943       0.80985561 </v>
   <v>       0.81949118       0.30432063       0.81757765 </v>
   <v>       0.05208119       0.56618946       0.81002007 </v>
   <v>       0.31055300       0.56779686       0.81564232 </v>
   <v>       0.56393972       0.56852233       0.80246715 </v>
   <v>       0.80730086       0.56341170       0.81377993 </v>
   <v>       0.06464732       0.80770352       0.80749385 </v>
   <v>       0.30681584       0.81175821       0.81681115 </v>
   <v>       0.55435628       0.82212318       0.81370152 </v>
   <v>       0.81631760       0.80613163       0.81724709 </v>
  </varray>
 </structure>
 <calculation>
  <scstep>
   <time name="dav">   69.43   69.45</time>
   <time name="total">   70.43   70.45</time>
   <energy>
    <i name="alphaZ">    210.77028614 </i>
    <i name="ewald"> -14463.54035818 </i>
    <i name="hartreedc">   -762.13039467 </i>
    <i name="XCdc">  -1195.22720151 </i>
    <i name="pawpsdc">   4221.13331941 </i>
    <i name="pawaedc">  -1969.18571412 </i>
    <i name="eentropy">     -0.00187482 </i>
    <i name="bandstr">   2150.32421498 </i>
    <i name="atom">  13192.48085998 </i>
    <i name="e_fr_energy">   1384.62313721 </i>
    <i name="e_wo_entrp">   1384.62501203 </i>
    <i name="e_0_energy">   1384.62407462 </i>
   </energy>
  </scstep>
  <scstep>
   <time name="dav">   79.00   79.02</time>
   <time name="total">   79.00   79.02</time>
   <energy>
    <i name="e_fr_energy">   -537.28035705 </i>
    <i name="e_wo_entrp">   -537.28035705 </i>
    <i name="e_0_energy">   -537.28035705 </i>
   </energy>
  </scstep>
  <scstep>
   <time name="dav">   80.66   80.69</time>
   <time name="total">   80.66   80.69</time>
   <energy>
    <i name="e_fr_energy">   -686.95221301 </i>
    <i name="e_wo_entrp">   -686.95221301 </i>
    <i name="e_0_energy">   -686.95221301 </i>
   </energy>
  </scstep>
  <scstep>
   <time name="dav">   79.63   79.67</time>
   <time name="total">   79.63   79.68</time>
   <energy>
    <i name="e_fr_energy">   -691.19521220 </i>
    <i name="e_wo_entrp">   -691.19521220 </i>
    <i name="e_0_energy">   -691.19521220 </i>
   </energy>
  </scstep>
  <scstep>
   <time name="dav">   80.81   80.85</time>
   <time name="total">   83.96   84.00</time>
   <energy>
    <i name="e_fr_energy">   -691.34314517 </i>
    <i name="e_wo_entrp">   -691.34314517 </i>
    <i name="e_0_energy">   -691.34314517 </i>
   </energy>
  </scstep>
  <scstep>
   <time name="dav">   76.78   76.80</time>
   <time name="total">   80.94   80.97</time>
   <energy>
    <i name="e_fr_energy">   -682.73999466 </i>
    <i name="e_wo_entrp">   -682.73999466 </i>
    <i name="e_0_energy">   -682.73999466 </i>
   </energy>
  </scstep>
  <scstep>
   <time name="dav">   76.42   76.45</time>
   <time name="total">   80.57   80.63</time>
   <energy>
    <i name="e_fr_energy">   -679.22308524 </i>
    <i name="e_wo_entrp">   -679.22308524 </i>
    <i name="e_0_energy">   -679.22308524 </i>
   </energy>
  </scstep>
  <scstep>
   <time name="dav">   76.24   76.28</time>
   <time name="total">   80.40   80.44</time>
   <energy>
    <i name="e_fr_energy">   -679.26943475 </i>
    <i name="e_wo_entrp">   -679.26943475 </i>
    <i name="e_0_energy">   -679.26943475 </i>
   </energy>
  </scstep>
  <scstep>
   <time name="dav">   78.26   78.30</time>
   <time name="total">   82.41   82.45</time>
   <energy>
    <i name="e_fr_energy">   -679.29486236 </i>
    <i name="e_wo_entrp">   -679.29486236 </i>
    <i name="e_0_energy">   -679.29486236 </i>
   </energy>
  </scstep>
  <scstep>
   <time name="dav">   78.54   78.57</time>
   <time name="total">   82.70   82.73</time>
   <energy>
    <i name="e_fr_energy">   -679.29729066 </i>
    <i name="e_wo_entrp">   -679.29729066 </i>
    <i name="e_0_energy">   -679.29729066 </i>
   </energy>
  </scstep>
  <scstep>
   <time name="dav">   74.98   75.03</time>
   <time name="total">   79.13   79.18</time>
   <energy>
    <i name="e_fr_energy">   -679.29900819 </i>
    <i name="e_wo_entrp">   -679.29900819 </i>
    <i name="e_0_energy">   -679.29900819 </i>
   </energy>
  </scstep>
  <scstep>
   <time name="dav">   79.37   79.40</time>
   <time name="total">   83.53   83.56</time>
   <energy>
    <i name="e_fr_energy">   -679.29907779 </i>
    <i name="e_wo_entrp">   -679.29907779 </i>
    <i name="e_0_energy">   -679.29907779 </i>
   </energy>
  </scstep>
  <scstep>
   <time name="dav">   75.75   75.78</time>
   <time name="total">   79.90   79.94</time>
   <energy>
    <i name="e_fr_energy">   -679.29911302 </i>
    <i name="e_wo_entrp">   -679.29911302 </i>
    <i name="e_0_energy">   -679.29911302 </i>
   </energy>
  </scstep>
  <scstep>
   <time name="dav">   78.97   79.00</time>
   <time name="total">   83.09   83.12</time>
   <energy>
    <i name="e_fr_energy">   -679.29911633 </i>
    <i name="e_wo_entrp">   -679.29911633 </i>
    <i name="e_0_energy">   -679.29911633 </i>
   </energy>
  </scstep>
  <scstep>
   <time name="dav">   78.42   78.45</time>
   <time name="total">   82.57   82.60</time>
   <energy>
    <i name="e_fr_energy">   -679.29912093 </i>
    <i name="e_wo_entrp">   -679.29912093 </i>
    <i name="e_0_energy">   -679.29912093 </i>
   </energy>
  </scstep>
  <scstep>
   <time name="dav">   78.32   78.36</time>
   <time name="total">   82.40   82.44</time>
   <energy>
    <i name="e_fr_energy">   -679.29912022 </i>
    <i name="e_wo_entrp">   -679.29912022 </i>
    <i name="e_0_energy">   -679.29912022 </i>
   </energy>
  </scstep>
  <scstep>
   <time name="dav">   60.54   60.58</time>
   <time name="total">   61.54   61.58</time>
   <energy>
    <i name="alphaZ">    210.77028614 </i>
    <i name="ewald"> -14463.54035818 </i>
    <i name="hartreedc">  -1008.72718095 </i>
    <i name="XCdc">  -1155.61355178 </i>
    <i name="pawpsdc">   4733.75397495 </i>
    <i name="pawaedc">  -2495.55707306 </i>
    <i name="eentropy">     -0.00000000 </i>
    <i name="bandstr">    307.13392268 </i>
    <i name="atom">  13192.48085998 </i>
    <i name="e_fr_energy">   -679.29912022 </i>
    <i name="e_wo_entrp">   -679.29912022 </i>
    <i name="e_0_energy">   -679.29912022 </i>
   </energy>
  </scstep>
  <structure>
   <crystal>
    <varray name="basis" >
     <v>       0.00000000      10.93733369      10.93733369 </v>
     <v>      10.93733369       0.00000000      10.93733369 </v>
     <v>      10.93733369      10.93733369       0.00000000 </v>
    </varray>
    <i name="volume">   2616.76295363 </i>
    <varray name="rec_basis" >
     <v>      -0.04571498       0.04571498       0.04571498 </v>
     <v>       0.04571498      -0.04571498       0.04571498 </v>
     <v>       0.04571498       0.04571498      -0.04571498 </v>
    </varray>
   </crystal>
   <varray name="positions" >
    <v>       0.01128852       0.99216345       0.99826927 </v>
    <v>       0.24825567       0.99941200       0.99347089 </v>
    <v>       0.49857767       0.00401192       0.00142331 </v>
    <v>       0.74124361       0.00492349       0.99104306 </v>
    <v>       0.00205909       0.24843585       0.99823692 </v>
    <v>       0.23603606       0.25882325       0.99963756 </v>
    <v>       0.49377504       0.25086546       0.99852861 </v>
    <v>       0.74285117       0.25099461       0.00817908 </v>
    <v>       0.00365948       0.50540532       0.99542518 </v>
    <v>       0.25503037       0.51374701       0.99611194 </v>
    <v>       0.50196764       0.50649908       0.99663774 </v>
    <v>       0.73483362       0.50334335       0.99758965 </v>
    <v>       0.99500916       0.75920045       0.99384384 </v>
    <v>       0.25298451       0.74721854       0.99798547 </v>
    <v>       0.49987002       0.74882027       0.99644596 </v>
    <v>       0.74760503       0.74098256       0.00169107 </v>
    <v>       0.99564867       0.00348361       0.24914967 </v>
    <v>       0.25041054       0.99198467       0.25310876 </v>
    <v>       0.52305051       0.99084460       0.24836051 </v>
    <v>       0.74795952       0.99919650       0.24080035 </v>
    <v>       0.99125196       0.24202212       0.25651174 </v>
    <v>       0.25253347       0.25511591       0.24491868 </v>
    <v>       0.50059121       0.24892004       0.25566516 </v>
    <v>       0.74849895       0.26325231       0.24541091 </v>
    <v>       0.99381623       0.50107780       0.25458718 </v>
    <v>       0.26133758       0.49472998       0.24593029 </v>
    <v>       0.50249686       0.49907625       0.24519743 </v>
    <v>       0.75274985       0.49920980       0.23774339 </v>
    <v>       0.00776533       0.74387120       0.25610403 </v>
    <v>       0.24869085       0.75992398       0.25116579 </v>
    <v>       0.50244775       0.74477270       0.24759874 </v>
    <v>       0.75275418       0.73808683       0.25156349 </v>
    <v>       0.00110248       0.98361202       0.50373737 </v>
    <v>       0.24276412       0.99822170       0.50663959 </v>
    <v>       0.50404919       0.99098163       0.50744724 </v>
    <v>       0.74998228       0.01169288       0.50517986 </v>
    <v>       0.99910030       0.25726161       0.49035952 </v>
    <v>       0.24719484       0.25037236       0.50557376 </v>
    <v>       0.50419402       0.24234116       0.49957898 </v>
    <v>       0.76147253       0.23849738       0.49985032 </v>
    <v>       0.99240006       0.49476690       0.50205463 </v>
    <v>       0.24431131       0.49359332       0.51630808 </v>
    <v>       0.49309146       0.50252148       0.50207276 </v>
    <v>       0.75338093       0.49381623       0.49467206 </v>
    <v>       0.00819056       0.75538464       0.49805655 </v>
    <v>       0.26017646       0.74280179       0.49578973 </v>
    <v>       0.48807506       0.75104705       0.50345748 </v>
    <v>       0.75309680       0.75528343       0.49174055 </v>
    <v>       0.00187798       0.00026343       0.75317733 </v>
    <v>       0.24876467       0.00079751       0.75343233 </v>
    <v>       0.50261208       0.99969199       0.74660759 </v>
    <v>       0.74841901       0.00943604       0.74444885 </v>
    <v>       0.00010174       0.23873227       0.75427392 </v>
    <v>       0.24625610       0.23607269       0.75561674 </v>
    <v>       0.49903070       0.26263968       0.74602815 </v>
    <v>       0.76603205       0.23834831       0.75055038 </v>
    <v>       0.00066181       0.50259383       0.74322421 </v>
    <v>       0.25885367       0.50323965       0.75069663 </v>
    <v>       0.48706463       0.51683255       0.74786214 </v>
    <v>       0.75240803       0.49819271       0.74521100 </v>
    <v>       0.01043321       0.74145429       0.74100527 </v>
    <v>       0.25830532       0.74528825       0.75546037 </v>
    <v>       0.50113537       0.74934885       0.75055683 </v>
    <v>       0.74247162       0.74200936       0.75380707 </v>
    <v>       0.06326892       0.05373217       0.05326527 </v>
    <v>       0.30339632       0.06656121       0.06713985 </v>
    <v>       0.56150724       0.06405248       0.05368634 </v>
    <v>       0.80801330       0.06412866       0.06881875 </v>
    <v>       0.04774029       0.31873556       0.06093037 </v>
    <v>       0.30233805       0.30849623       0.06487572 </v>
    <v>       0.56180695       0.32239242       0.06530498 </v>
    <v>       0.81716177       0.29808449       0.06559597 </v>
    <v>       0.05725429       0.57434943       0.05709646 </v>
    <v>       0.31601631       0.56570847       0.05162939 </v>
    <v>       0.56253520       0.55987719       0.05797354 </v>
    <v>       0.80728142       0.56176289       0.06242774 </v>
    <v>       0.06899722       0.80772870       0.06024484 </v>
    <v>       0.30158818       0.81429707       0.06662407 </v>
    <v>       0.56506586       0.80022903       0.06883021 </v>
    <v>       0.81201376       0.79623706       0.07128058 </v>
    <v>       0.06478312       0.06129454       0.31458004 </v>
    <v>       0.30927383       0.06208497       0.31249725 </v>
    <v>       0.56707553       0.05611159       0.31006008 </v>
    <v>       0.81725013       0.06339627       0.30653323 </v>
    <v>       0.06025245       0.31485700       0.30734056 </v>
    <v>       0.30800622       0.31824658       0.30615766 </v>
    <v>       0.55822099       0.31172650       0.31716971 </v>
    <v>       0.81221692       0.31676117       0.31380562 </v>
    <v>       0.05881712       0.56201057       0.30800891 </v>
    <v>       0.30898440       0.56334437       0.31711199 </v>
    <v>       0.56451480       0.56299373       0.32152957 </v>
    <v>       0.80090470       0.56646948       0.31198379 </v>
    <v>       0.06790135       0.80520903       0.31305417 </v>
    <v>       0.33537536       0.80177367       0.30747403 </v>
    <v>       0.55357300       0.81662175       0.30130819 </v>
    <v>       0.82133372       0.82056167       0.31253629 </v>
    <v>       0.06028653       0.07030070       0.55021866 </v>
    <v>       0.30984024       0.05377314       0.56657770 </v>
    <v>       0.56897124       0.05613987       0.55952844 </v>
    <v>       0.82048168       0.06153240       0.56464239 </v>
    <v>       0.06003559       0.32369317       0.55828034 </v>
    <v>       0.30970397       0.31672883       0.57316086 </v>
    <v>       0.56999819       0.30873397       0.56389235 </v>
    <v>       0.80956109       0.30374491       0.57315963 </v>
    <v>       0.05833395       0.55507469       0.56430396 </v>
    <v>       0.31023973       0.56408378       0.56489741 </v>
    <v>       0.56139732       0.55222318       0.56722057 </v>
    <v>       0.81167304       0.56301391       0.56558482 </v>
    <v>       0.06529594       0.80329145       0.56770812 </v>
    <v>       0.30449050       0.81669929       0.57256467 </v>
    <v>       0.56925076       0.80400363       0.56269401 </v>
    <v>       0.81407385       0.80925120       0.56455465 </v>
    <v>       0.06495737       0.05831836       0.82362226 </v>
    <v>       0.31136190       0.05716999       0.81354533 </v>
    <v>       0.55337288       0.07384122       0.80202389 </v>
    <v>       0.80001911       0.06717108       0.82062814 </v>
    <v>       0.06011064       0.30757987       0.80618796 </v>
    <v>       0.32188311       0.31395963       0.80492063 </v>
    <v>       0.56126313       0.31251943       0.80985561 </v>
    <v>       0.81949118       0.30432063       0.81757765 </v>
    <v>       0.05208119       0.56618946       0.81002007 </v>
    <v>       0.31055300       0.56779686       0.81564232 </v>
    <v>       0.56393972       0.56852233       0.80246715 </v>
    <v>       0.80730086       0.56341170       0.81377993 </v>
    <v>       0.06464732       0.80770352       0.80749385 </v>
    <v>       0.30681584       0.81175821       0.81681115 </v>
    <v>       0.55435628       0.82212318       0.81370152 </v>
    <v>       0.81631760       0.80613163       0.81724709 </v>
   </varray>
  </structure>
  <varray name="forces" >
   <v>       0.32270102      -1.48363742      -2.92872711 </v>
   <v>       0.99946849       1.03743204      -0.09026926 </v>
   <v>      -1.50386775      -1.27351290      -1.55058859 </v>
   <v>       1.02323535       3.27893378      -1.19072577 </v>
   <v>      -1.34578362      -0.81542636      -0.70545741 </v>
   <v>      -0.98196784      -0.02495332      -0.14232851 </v>
   <v>       0.55795053       0.28459905       0.46410691 </v>
   <v>      -1.15098942      -0.08206620       0.12494153 </v>
   <v>       0.21758274      -0.81171575      -1.10536048 </v>
   <v>      -1.66845519      -1.32757716      -3.70471375 </v>
   <v>      -1.29386325      -1.32911038      -0.53685914 </v>
   <v>      -1.66713463       2.80773385       1.11668008 </v>
   <v>      -0.14952069       0.27178966      -0.15502846 </v>
   <v>       0.50151311       0.07314323      -0.11127702 </v>
   <v>       1.01510309       0.08062703      -0.68786244 </v>
   <v>       0.66073270       0.35736989       0.91174077 </v>
   <v>      -1.52042920       0.89120007       0.60251896 </v>
   <v>       0.05747154       0.30286483       0.54984589 </v>
   <v>      -0.44432659      -3.72714252      -1.41561335 </v>
   <v>       1.77336414       1.94952918       0.15350754 </v>
   <v>      -0.05233132      -0.05553495       2.09721833 </v>
   <v>      -0.19539895      -0.20997055      -1.68553292 </v>
   <v>      -0.70194029      -0.89366457      -0.53699647 </v>
   <v>      -0.51412365       0.76077817      -1.51194721 </v>
   <v>      -0.76797622      -1.49751900      -0.15105558 </v>
   <v>       1.23969810      -1.77939991       0.28465001 </v>
   <v>       1.32362257       0.31882605      -0.19131446 </v>
   <v>       2.03370136       1.10347699      -0.60103488 </v>
   <v>      -0.72108683      -1.42154406      -0.06148973 </v>
   <v>      -1.09182265       0.78285133      -0.59928938 </v>
   <v>      -1.74291504       1.36653376       1.10948775 </v>
   <v>       2.88214740      -0.74922840       1.22079813 </v>
   <v>       0.70082377      -0.13687339       1.74106893 </v>
   <v>      -0.55319149      -0.85259620       0.71820104 </v>
   <v>      -0.77194989      -1.11169757      -0.17954957 </v>
   <v>      -2.45333928      -0.24162298      -0.79473310 </v>
   <v>       0.69604421       0.55946367      -0.24112172 </v>
   <v>      -0.39176154      -0.12654877       0.60847998 </v>
   <v>       1.55178287       0.31621359      -0.06883171 </v>
   <v>       1.61407421      -0.99975473       0.59750772 </v>
   <v>       0.78634766      -1.00266661       2.15759233 </v>
   <v>      -0.07326527      -1.43118189       1.07082454 </v>
   <v>      -0.72949213       1.08975204      -0.41264077 </v>
   <v>       1.28231240       0.62297589      -0.57522690 </v>
   <v>      -1.30193138      -0.92233401      -2.50862421 </v>
   <v>       1.47285514      -0.40251240       0.54042163 </v>
   <v>      -1.13699509       0.57184436       0.88279508 </v>
   <v>       0.29570824       1.15072706      -0.54996409 </v>
   <v>      -0.36580490      -0.92673132      -0.24587028 </v>
   <v>      -0.98047581      -0.31847203      -0.57682684 </v>
   <v>       0.55499137      -1.25924073       0.09537078 </v>
   <v>       0.25919339       0.73518048      -1.63013306 </v>
   <v>      -0.26849323      -0.85907411       1.07387128 </v>
   <v>       1.31659392      -0.09314773       1.63836498 </v>
   <v>      -1.58301616       0.28209943      -0.74288553 </v>
   <v>       2.50860950      -1.32994156      -0.11466414 </v>
   <v>       0.11344739       0.26160460      -1.66031587 </v>
   <v>      -0.04944664      -1.24687810      -1.55758256 </v>
   <v>      -1.74734167       1.73419188      -0.26487935 </v>
   <v>       0.45055654       0.73979531      -0.70233855 </v>
   <v>       2.56863939       0.15630844      -0.80211254 </v>
   <v>       0.50178556      -1.97882794      -0.82461616 </v>
   <v>       0.72252641      -0.63031942       0.33794937 </v>
   <v>       1.05950486      -0.15664594       1.66610157 </v>
   <v>       3.04890175       1.90624493       1.83801130 </v>
   <v>      -0.79071591      -0.25944734       0.32916515 </v>
   <v>       1.83025059       1.14196592       0.29098227 </v>
   <v>      -2.55045083      -1.52277784       1.03128664 </v>
   <v>       0.43295028       1.29633649       0.46768749 </v>
   <v>       0.47408921      -0.13230174       2.03836822 </v>
   <v>      -0.54013550      -0.66606946      -1.60167424 </v>
   <v>       1.25813279      -0.92379761       1.42948107 </v>
   <v>       0.09477144       1.39952682       0.13887762 </v>
   <v>       1.76602821       2.60225412       0.93407132 </v>
   <v>       2.19164923      -0.45788358      -0.10774385 </v>
   <v>      -2.03815568      -0.56517952       0.44133576 </v>
   <v>       0.35215956       0.06798368      -0.77467459 </v>
   <v>      -0.73959750       0.75802334       0.96680813 </v>
   <v>       0.07481250      -1.95916224       0.98530658 </v>
   <v>       0.22126201      -1.68601132       1.15181612 </v>
   <v>      -0.78839675       0.06598622      -1.37311360 </v>
   <v>      -0.18852759       1.02698897       0.80931040 </v>
   <v>       2.41152152       1.09910189       0.62148862 </v>
   <v>       1.50293763      -0.95839095      -0.82145151 </v>
   <v>      -0.47064900      -0.10633247       0.18365511 </v>
   <v>       0.02236381       2.28411395      -0.44430516 </v>
   <v>      -0.20298689       0.19939568       0.94454803 </v>
   <v>      -0.03587413      -0.18455654      -0.76517874 </v>
   <v>      -0.01616298       1.80579141       0.39711227 </v>
   <v>       0.06800704       0.33321324       0.36297861 </v>
   <v>      -1.82600772      -0.80659242      -0.40521617 </v>
   <v>      -2.11620450       1.40120877      -0.65006930 </v>
   <v>       1.76951595      -0.11933799       1.08359936 </v>
   <v>       2.68267271      -2.59413994      -2.20326898 </v>
   <v>       0.56822238       2.88434210       0.27364205 </v>
   <v>      -1.78052795      -0.81661676      -1.09897300 </v>
   <v>       0.70149588       0.78832411      -1.13660196 </v>
   <v>       0.74704232       0.17522002       1.21910319 </v>
   <v>       0.78684998      -0.08160441       0.05005934 </v>
   <v>      -0.53282507       0.19280984      -0.41721636 </v>
   <v>      -1.85898955       1.64218465      -2.37432081 </v>
   <v>      -2.31339798       0.48683627      -0.82127452 </v>
   <v>      -0.71689601      -1.04820145       0.03171559 </v>
   <v>      -1.08314165      -0.83831315       1.52502936 </v>
   <v>       0.30219338      -0.84211774       1.35597809 </v>
   <v>      -0.13159555       0.45799807      -0.60603750 </v>
   <v>       0.54838435      -0.72616510       1.26272859 </v>
   <v>      -0.74967097      -1.61274494       0.02381011 </v>
   <v>      -1.17945465       0.21165986       1.96636948 </v>
   <v>      -1.21745007      -0.22273866      -0.46662409 </v>
   <v>       0.21787941      -0.83697843      -0.40255430 </v>
   <v>       0.62933838      -0.14056574       0.81750304 </v>
   <v>      -1.66379738      -1.27146499       0.10192700 </v>
   <v>      -0.73362949       0.82695898       0.81546655 </v>
   <v>       0.66510017       1.70453959       0.46889425 </v>
   <v>      -3.16916178       0.45178881       0.93387275 </v>
   <v>       1.39731047       0.63355547       0.56146367 </v>
   <v>       1.07105000      -1.00934918      -1.83024703 </v>
   <v>       1.24692638       1.09293451       1.70223140 </v>
   <v>       0.82839252      -0.78862567      -0.34077009 </v>
   <v>      -1.20957079       2.07093952       0.43630209 </v>
   <v>      -0.06459064      -0.00888507      -0.50264242 </v>
   <v>       0.16253681       1.22825930      -0.54883301 </v>
   <v>      -1.01330144       0.39248215      -0.31242320 </v>
   <v>       0.38304115       0.24342265       0.84264738 </v>
   <v>       0.09660641       0.62542958       1.67251003 </v>
   <v>      -1.46167284       0.75561664      -0.56240405 </v>
   <v>      -0.51450880      -1.44586012       0.41281820 </v>
  </varray>
  <varray name="stress" >
   <v>      13.25226052       5.36401754       4.02140012 </v>
   <v>       5.36401755      13.13844355      -2.47398181 </v>
   <v>       4.02140013      -2.47398180      14.49047626 </v>
  </varray>
  <energy>
   <i name="e_fr_energy">   -679.29912022 </i>
   <i name="e_wo_entrp">   -679.29912022 </i>
   <i name="e_0_energy">     -0.00000000 </i>
  </energy>
  <time name="totalsc"> 1469.13 1469.82</time>
  <eigenvalues>
   <array>
    <dimension dim="1">band</dimension>
    <dimension dim="2">kpoint</dimension>
    <dimension dim="3">spin</dimension>
    <field>eigene</field>
    <field>occ</field>
    <set>
     <set comment="spin 1">
      <set comment="kpoint 1">
       <r>   -6.3101    1.0000 </r>
       <r>   -5.7657    1.0000 </r>
       <r>   -5.6805    1.0000 </r>
       <r>   -5.6193    1.0000 </r>
       <r>   -5.5615    1.0000 </r>
       <r>   -5.5017    1.0000 </r>
       <r>   -5.4418    1.0000 </r>
       <r>   -5.4139    1.0000 </r>
       <r>   -5.3927    1.0000 </r>
       <r>   -5.3608    1.0000 </r>
       <r>   -5.2810    1.0000 </r>
       <r>   -5.2220    1.0000 </r>
       <r>   -5.1889    1.0000 </r>
       <r>   -5.1657    1.0000 </r>
       <r>   -5.0704    1.0000 </r>
       <r>   -4.5695    1.0000 </r>
       <r>   -4.4723    1.0000 </r>
       <r>   -4.4230    1.0000 </r>
       <r>   -4.3876    1.0000 </r>
       <r>   -4.3704    1.0000 </r>
       <r>   -4.3156    1.0000 </r>
       <r>   -4.3019    1.0000 </r>
       <r>   -4.2823    1.0000 </r>
       <r>   -4.2410    1.0000 </r>
       <r>   -4.2199    1.0000 </r>
       <r>   -4.1638    1.0000 </r>
       <r>   -4.1115    1.0000 </r>
       <r>   -4.0589    1.0000 </r>
       <r>   -4.0320    1.0000 </r>
       <r>   -4.0233    1.0000 </r>
       <r>   -3.9418    1.0000 </r>
       <r>   -3.8808    1.0000 </r>
       <r>   -3.8516    1.0000 </r>
       <r>   -3.8192    1.0000 </r>
       <r>   -3.7922    1.0000 </r>
       <r>   -3.7324    1.0000 </r>
       <r>   -3.6996    1.0000 </r>
       <r>   -3.6759    1.0000 </r>
       <r>   -3.6532    1.0000 </r>
       <r>   -3.6288    1.0000 </r>
       <r>   -3.5972    1.0000 </r>
       <r>   -3.5836    1.0000 </r>
       <r>   -3.5451    1.0000 </r>
       <r>   -3.5385    1.0000 </r>
       <r>   -3.5259    1.0000 </r>
       <r>   -3.4665    1.0000 </r>
       <r>   -3.4515    1.0000 </r>
       <r>   -3.4439    1.0000 </r>
       <r>   -3.3911    1.0000 </r>
       <r>   -3.3859    1.0000 </r>
       <r>   -3.3420    1.0000 </r>
       <r>   -3.3199    1.0000 </r>
       <r>   -3.2914    1.0000 </r>
       <r>   -3.2572    1.0000 </r>
       <r>   -3.1835    1.0000 </r>
       <r>   -2.3488    1.0000 </r>
       <r>   -2.3095    1.0000 </r>
       <r>   -2.2642    1.0000 </r>
       <r>   -2.2166    1.0000 </r>
       <r>   -2.1877    1.0000 </r>
       <r>   -2.1528    1.0000 </r>
       <r>   -2.1275    1.0000 </r>
       <r>   -2.1061    1.0000 </r>
       <r>   -2.0973    1.0000 </r>
       <r>   -2.0330    1.0000 </r>
       <r>   -2.0287    1.0000 </r>
       <r>   -1.9950    1.0000 </r>
       <r>   -1.9553    1.0000 </r>
       <r>   -1.9200    1.0000 </r>
       <r>   -1.9110    1.0000 </r>
       <r>   -1.8508    1.0000 </r>
       <r>   -1.8245    1.0000 </r>
       <r>   -1.7483    1.0000 </r>
       <r>   -1.3546    1.0000 </r>
       <r>   -1.3282    1.0000 </r>
       <r>   -1.2689    1.0000 </r>
       <r>   -1.2127    1.0000 </r>
       <r>   -1.0519    1.0000 </r>
       <r>   -0.9967    1.0000 </r>
       <r>   -0.9689    1.0000 </r>
       <r>   -0.9569    1.0000 </r>
       <r>   -0.9382    1.0000 </r>
       <r>   -0.8701    1.0000 </r>
       <r>   -0.8396    1.0000 </r>
       <r>   -0.8194    1.0000 </r>
       <r>   -0.7882    1.0000 </r>
       <r>   -0.7591    1.0000 </r>
       <r>   -0.7461    1.0000 </r>
       <r>   -0.7406    1.0000 </r>
       <r>   -0.7130    1.0000 </r>
       <r>   -0.6626    1.0000 </r>
       <r>   -0.6554    1.0000 </r>
       <r>   -0.6336    1.0000 </r>
       <r>   -0.6278    1.0000 </r>
       <r>   -0.5825    1.0000 </r>
       <r>   -0.5675    1.0000 </r>
       <r>   -0.5365    1.0000 </r>
       <r>   -0.5207    1.0000 </r>
       <r>   -0.4775    1.0000 </r>
       <r>   -0.4294    1.0000 </r>
       <r>   -0.3691    1.0000 </r>
       <r>   -0.0124    1.0000 </r>
       <r>    0.0095    1.0000 </r>
       <r>    0.0480    1.0000 </r>
       <r>    0.0884    1.0000 </r>
       <r>    0.1140    1.0000 </r>
       <r>    0.1491    1.0000 </r>
       <r>    0.1649    1.0000 </r>
       <r>    0.2147    1.0000 </r>
       <r>    0.2428    1.0000 </r>
       <r>    0.3149    1.0000 </r>
       <r>    0.3279    1.0000 </r>
       <r>    0.3700    1.0000 </r>
       <r>    1.4134    1.0000 </r>
       <r>    1.4785    1.0000 </r>
       <r>    1.5071    1.0000 </r>
       <r>    1.5391    1.0000 </r>
       <r>    1.5498    1.0000 </r>
       <r>    1.5856    1.0000 </r>
       <r>    1.6074    1.0000 </r>
       <r>    1.6416    1.0000 </r>
       <r>    1.6529    1.0000 </r>
       <r>    1.6733    1.0000 </r>
       <r>    1.6762    1.0000 </r>
       <r>    1.6950    1.0000 </r>
       <r>    1.7170    1.0000 </r>
       <r>    1.7372    1.0000 </r>
       <r>    1.7443    1.0000 </r>
       <r>    1.7694    1.0000 </r>
       <r>    1.7844    1.0000 </r>
       <r>    1.8015    1.0000 </r>
       <r>    1.8080    1.0000 </r>
       <r>    1.8116    1.0000 </r>
       <r>    1.8227    1.0000 </r>
       <r>    1.8344    1.0000 </r>
       <r>    1.8575    1.0000 </r>
       <r>    1.8731    1.0000 </r>
       <r>    1.9027    1.0000 </r>
       <r>    1.9070    1.0000 </r>
       <r>    1.9096    1.0000 </r>
       <r>    1.9323    1.0000 </r>
       <r>    1.9405    1.0000 </r>
       <r>    1.9504    1.0000 </r>
       <r>    1.9676    1.0000 </r>
       <r>    1.9856    1.0000 </r>
       <r>    1.9939    1.0000 </r>
       <r>    2.0168    1.0000 </r>
       <r>    2.0270    1.0000 </r>
       <r>    2.0437    1.0000 </r>
       <r>    2.0534    1.0000 </r>
       <r>    2.0621    1.0000 </r>
       <r>    2.0749    1.0000 </r>
       <r>    2.0905    1.0000 </r>
       <r>    2.0958    1.0000 </r>
       <r>    2.1073    1.0000 </r>
       <r>    2.1173    1.0000 </r>
       <r>    2.1227    1.0000 </r>
       <r>    2.1552    1.0000 </r>
       <r>    2.1799    1.0000 </r>
       <r>    2.1975    1.0000 </r>
       <r>    2.2117    1.0000 </r>
       <r>    2.2270    1.0000 </r>
       <r>    2.2410    1.0000 </r>
       <r>    2.2474    1.0000 </r>
       <r>    2.2730    1.0000 </r>
       <r>    2.2903    1.0000 </r>
       <r>    2.3007    1.0000 </r>
       <r>    2.3121    1.0000 </r>
       <r>    2.3341    1.0000 </r>
       <r>    2.3462    1.0000 </r>
       <r>    2.3770    1.0000 </r>
       <r>    2.4036    1.0000 </r>
       <r>    2.4448    1.0000 </r>
       <r>    2.4635    1.0000 </r>
       <r>    2.4826    1.0000 </r>
       <r>    2.7566    1.0000 </r>
       <r>    2.7786    1.0000 </r>
       <r>    2.8062    1.0000 </r>
       <r>    2.8268    1.0000 </r>
       <r>    2.8400    1.0000 </r>
       <r>    2.8676    1.0000 </r>
       <r>    3.1916    1.0000 </r>
       <r>    3.2005    1.0000 </r>
       <r>    3.2187    1.0000 </r>
       <r>    3.2417    1.0000 </r>
       <r>    3.2904    1.0000 </r>
       <r>    3.3218    1.0000 </r>
       <r>    3.3373    1.0000 </r>
       <r>    3.3587    1.0000 </r>
       <r>    3.3725    1.0000 </r>
       <r>    3.3763    1.0000 </r>
       <r>    3.4001    1.0000 </r>
       <r>    3.4116    1.0000 </r>
       <r>    3.4306    1.0000 </r>
       <r>    3.4400    1.0000 </r>
       <r>    3.4647    1.0000 </r>
       <r>    3.4874    1.0000 </r>
       <r>    3.4970    1.0000 </r>
       <r>    3.5223    1.0000 </r>
       <r>    3.5509    1.0000 </r>
       <r>    3.5668    1.0000 </r>
       <r>    3.5828    1.0000 </r>
       <r>    3.5965    1.0000 </r>
       <r>    3.6138    1.0000 </r>
       <r>    3.6519    1.0000 </r>
       <r>    3.6655    1.0000 </r>
       <r>    3.6978    1.0000 </r>
       <r>    3.7159    1.0000 </r>
       <r>    3.7417    1.0000 </r>
       <r>    3.7529    1.0000 </r>
       <r>    3.7995    1.0000 </r>
       <r>    3.8119    1.0000 </r>
       <r>    3.8531    1.0000 </r>
       <r>    3.8781    1.0000 </r>
       <r>    3.8962    1.0000 </r>
       <r>    3.9303    1.0000 </r>
       <r>    3.9918    1.0000 </r>
       <r>    4.1477    1.0000 </r>
       <r>    4.1613    1.0000 </r>
       <r>    4.1965    1.0000 </r>
       <r>    4.2344    1.0000 </r>
       <r>    4.2600    1.0000 </r>
       <r>    4.2633    1.0000 </r>
       <r>    4.3225    1.0000 </r>
       <r>    4.3591    1.0000 </r>
       <r>    4.3893    1.0000 </r>
       <r>    4.4149    1.0000 </r>
       <r>    4.4279    1.0000 </r>
       <r>    4.4376    1.0000 </r>
       <r>    4.4651    1.0000 </r>
       <r>    4.4736    1.0000 </r>
       <r>    4.5033    1.0000 </r>
       <r>    4.5450    1.0000 </r>
       <r>    4.5665    1.0000 </r>
       <r>    4.5931    1.0000 </r>
       <r>    4.6003    1.0000 </r>
       <r>    4.6821    1.0000 </r>
       <r>    4.7144    1.0000 </r>
       <r>    4.7420    1.0000 </r>
       <r>    4.7819    1.0000 </r>
       <r>    4.8013    1.0000 </r>
       <r>    4.8791    1.0000 </r>
       <r>    4.9080    1.0000 </r>
       <r>    4.9231    1.0000 </r>
       <r>    4.9506    1.0000 </r>
       <r>    4.9652    1.0000 </r>
       <r>    4.9869    1.0000 </r>
       <r>    5.0165    1.0000 </r>
       <r>    5.0955    1.0000 </r>
       <r>    5.1201    1.0000 </r>
       <r>    5.1428    1.0000 </r>
       <r>    5.1850    1.0000 </r>
       <r>    5.2839    1.0000 </r>
       <r>    5.6383    1.0000 </r>
       <r>    5.7412    1.0000 </r>
       <r>    5.8055    1.0000 </r>
       <r>    6.1396    0.0000 </r>
       <r>    6.2123    0.0000 </r>
       <r>    6.2412    0.0000 </r>
       <r>    6.2673    0.0000 </r>
       <r>    6.2900    0.0000 </r>
       <r>    6.3548    0.0000 </r>
       <r>    6.5340    0.0000 </r>
       <r>    6.5768    0.0000 </r>
       <r>    6.6037    0.0000 </r>
       <r>    6.6435    0.0000 </r>
       <r>    6.6745    0.0000 </r>
       <r>    6.7223    0.0000 </r>
       <r>    6.8048    0.0000 </r>
       <r>    6.8257    0.0000 </r>
       <r>    6.8520    0.0000 </r>
       <r>    6.8677    0.0000 </r>
       <r>    6.9169    0.0000 </r>
       <r>    6.9218    0.0000 </r>
       <r>    6.9333    0.0000 </r>
       <r>    6.9461    0.0000 </r>
       <r>    6.9546    0.0000 </r>
       <r>    6.9916    0.0000 </r>
       <r>    7.0176    0.0000 </r>
       <r>    7.0215    0.0000 </r>
       <r>    7.0279    0.0000 </r>
       <r>    7.0553    0.0000 </r>
       <r>    7.0801    0.0000 </r>
       <r>    7.0891    0.0000 </r>
       <r>    7.0996    0.0000 </r>
       <r>    7.1215    0.0000 </r>
       <r>    7.1522    0.0000 </r>
       <r>    7.1717    0.0000 </r>
       <r>    7.1938    0.0000 </r>
       <r>    7.2211    0.0000 </r>
       <r>    7.2362    0.0000 </r>
       <r>    7.2495    0.0000 </r>
       <r>    7.2739    0.0000 </r>
       <r>    7.3209    0.0000 </r>
       <r>    7.3593    0.0000 </r>
       <r>    7.3780    0.0000 </r>
       <r>    7.4591    0.0000 </r>
       <r>    7.4751    0.0000 </r>
       <r>    7.4973    0.0000 </r>
       <r>    7.5166    0.0000 </r>
       <r>    7.5584    0.0000 </r>
       <r>    7.5796    0.0000 </r>
       <r>    7.6016    0.0000 </r>
       <r>    7.6537    0.0000 </r>
       <r>    7.8027    0.0000 </r>
       <r>    7.8534    0.0000 </r>
       <r>    7.8788    0.0000 </r>
       <r>    7.9198    0.0000 </r>
       <r>    7.9616    0.0000 </r>
       <r>    7.9796    0.0000 </r>
       <r>    7.9986    0.0000 </r>
       <r>    8.0086    0.0000 </r>
       <r>    8.0311    0.0000 </r>
       <r>    8.0448    0.0000 </r>
       <r>    8.0801    0.0000 </r>
       <r>    8.1178    0.0000 </r>
       <r>    8.1530    0.0000 </r>
       <r>    8.1879    0.0000 </r>
       <r>    8.2375    0.0000 </r>
       <r>    8.5093    0.0000 </r>
       <r>    8.5678    0.0000 </r>
       <r>    8.5960    0.0000 </r>
      </set>
      <set comment="kpoint 2">
       <r>   -6.1516    1.0000 </r>
       <r>   -6.0912    1.0000 </r>
       <r>   -5.7567    1.0000 </r>
       <r>   -5.6784    1.0000 </r>
       <r>   -5.6170    1.0000 </r>
       <r>   -5.5276    1.0000 </r>
       <r>   -5.5152    1.0000 </r>
       <r>   -5.4564    1.0000 </r>
       <r>   -5.2240    1.0000 </r>
       <r>   -5.1619    1.0000 </r>
       <r>   -5.1151    1.0000 </r>
       <r>   -5.0616    1.0000 </r>
       <r>   -5.0058    1.0000 </r>
       <r>   -4.9116    1.0000 </r>
       <r>   -4.7922    1.0000 </r>
       <r>   -4.7319    1.0000 </r>
       <r>   -4.6543    1.0000 </r>
       <r>   -4.5818    1.0000 </r>
       <r>   -4.5637    1.0000 </r>
       <r>   -4.5163    1.0000 </r>
       <r>   -4.4876    1.0000 </r>
       <r>   -4.4442    1.0000 </r>
       <r>   -4.2810    1.0000 </r>
       <r>   -4.2513    1.0000 </r>
       <r>   -4.2298    1.0000 </r>
       <r>   -4.2141    1.0000 </r>
       <r>   -4.1481    1.0000 </r>
       <r>   -4.1222    1.0000 </r>
       <r>   -4.1136    1.0000 </r>
       <r>   -4.0826    1.0000 </r>
       <r>   -4.0276    1.0000 </r>
       <r>   -3.9972    1.0000 </r>
       <r>   -3.9741    1.0000 </r>
       <r>   -3.9402    1.0000 </r>
       <r>   -3.8971    1.0000 </r>
       <r>   -3.8735    1.0000 </r>
       <r>   -3.8260    1.0000 </r>
       <r>   -3.7873    1.0000 </r>
[...]
       <r>    -3.1202    28.4285    99.3623 </r>
       <r>    -3.0656    53.9388   102.3104 </r>
       <r>    -3.0109    38.6883   104.4249 </r>
       <r>    -2.9562    54.6783   107.4134 </r>
       <r>    -2.9016    34.4953   109.2989 </r>
       <r>    -2.8469    46.2956   111.8292 </r>
       <r>    -2.7923    22.5656   113.0625 </r>
       <r>    -2.7376    32.2440   114.8249 </r>
       <r>    -2.6830    29.8706   116.4576 </r>
       <r>    -2.6283    34.5658   118.3468 </r>
       <r>    -2.5737    30.0403   119.9887 </r>
       <r>    -2.5190    36.7326   121.9964 </r>
       <r>    -2.4643    13.3209   122.7244 </r>
       <r>    -2.4097     0.4676   122.7500 </r>
       <r>    -2.3550     0.8684   122.7975 </r>
       <r>    -2.3004     7.8269   123.2252 </r>
       <r>    -2.2457     5.0410   123.5008 </r>
       <r>    -2.1911    23.0595   124.7611 </r>
       <r>    -2.1364    23.9967   126.0727 </r>
       <r>    -2.0818    33.4244   127.8996 </r>
       <r>    -2.0271    33.6546   129.7390 </r>
       <r>    -1.9724    23.1019   131.0016 </r>
       <r>    -1.9178    21.0227   132.1507 </r>
       <r>    -1.8631     6.5755   132.5101 </r>
       <r>    -1.8085     8.9106   132.9971 </r>
       <r>    -1.7538     1.0494   133.0544 </r>
       <r>    -1.6992     4.1863   133.2832 </r>
       <r>    -1.6445    13.2217   134.0059 </r>
       <r>    -1.5898    20.5459   135.1288 </r>
       <r>    -1.5352    35.1903   137.0522 </r>
       <r>    -1.4805    39.7533   139.2249 </r>
       <r>    -1.4259    30.9770   140.9180 </r>
       <r>    -1.3712    36.7623   142.9273 </r>
       <r>    -1.3166    63.7753   146.4130 </r>
       <r>    -1.2619    54.4474   149.3889 </r>
       <r>    -1.2073    62.3590   152.7972 </r>
       <r>    -1.1526    63.8322   156.2860 </r>
       <r>    -1.0979    71.2722   160.1815 </r>
       <r>    -1.0433    63.8708   163.6724 </r>
       <r>    -0.9886    61.9507   167.0584 </r>
       <r>    -0.9340    63.3341   170.5200 </r>
       <r>    -0.8793    65.8044   174.1166 </r>
       <r>    -0.8247    75.0044   178.2161 </r>
       <r>    -0.7700    45.8686   180.7231 </r>
       <r>    -0.7154    61.7320   184.0971 </r>
       <r>    -0.6607    33.5962   185.9333 </r>
       <r>    -0.6060    40.7154   188.1587 </r>
       <r>    -0.5514    26.4919   189.6066 </r>
       <r>    -0.4967    16.3598   190.5008 </r>
       <r>    -0.4421    18.3330   191.5028 </r>
       <r>    -0.3874    32.8191   193.2966 </r>
       <r>    -0.3328    55.5953   196.3352 </r>
       <r>    -0.2781    40.0033   198.5216 </r>
       <r>    -0.2235    52.7304   201.4036 </r>
       <r>    -0.1688    47.3890   203.9937 </r>
       <r>    -0.1141    51.5493   206.8112 </r>
       <r>    -0.0595    36.9176   208.8290 </r>
       <r>    -0.0048    45.3775   211.3091 </r>
       <r>     0.0498    32.7467   213.0990 </r>
       <r>     0.1045    12.2653   213.7694 </r>
       <r>     0.1591     9.3913   214.2827 </r>
       <r>     0.2138     8.7013   214.7582 </r>
       <r>     0.2684    12.0488   215.4168 </r>
       <r>     0.3231    27.8259   216.9377 </r>
       <r>     0.3778    28.2036   218.4792 </r>
       <r>     0.4324    19.9565   219.5699 </r>
       <r>     0.4871    26.7900   221.0341 </r>
       <r>     0.5417    28.2964   222.5807 </r>
       <r>     0.5964    16.6987   223.4934 </r>
       <r>     0.6510    17.2971   224.4388 </r>
       <r>     0.7057    18.5881   225.4548 </r>
       <r>     0.7604    24.2728   226.7814 </r>
       <r>     0.8150     8.5726   227.2500 </r>
       <r>     0.8697     9.3567   227.7614 </r>
       <r>     0.9243    26.6265   229.2167 </r>
       <r>     0.9790    19.8059   230.2992 </r>
       <r>     1.0336    18.0656   231.2866 </r>
       <r>     1.0883    25.2161   232.6648 </r>
       <r>     1.1429    24.4321   234.0002 </r>
       <r>     1.1976    26.3506   235.4404 </r>
       <r>     1.2523    28.1699   236.9801 </r>
       <r>     1.3069    26.7224   238.4406 </r>
       <r>     1.3616    28.8479   240.0174 </r>
       <r>     1.4162    48.9547   242.6930 </r>
       <r>     1.4709    53.1929   245.6004 </r>
       <r>     1.5255    79.7152   249.9573 </r>
       <r>     1.5802    95.0689   255.1534 </r>
       <r>     1.6348    85.0567   259.8022 </r>
       <r>     1.6895    77.7093   264.0496 </r>
       <r>     1.7442    49.2578   266.7418 </r>
       <r>     1.7988    52.3966   269.6056 </r>
       <r>     1.8535    44.1992   272.0214 </r>
       <r>     1.9081    21.3722   273.1895 </r>
       <r>     1.9628    20.3518   274.3018 </r>
       <r>     2.0174    24.8281   275.6588 </r>
       <r>     2.0721    53.0922   278.5606 </r>
       <r>     2.1267   100.4071   284.0485 </r>
       <r>     2.1814   110.3136   290.0778 </r>
       <r>     2.2361   117.9220   296.5229 </r>
       <r>     2.2907   123.4397   303.2697 </r>
       <r>     2.3454   113.4820   309.4722 </r>
       <r>     2.4000   107.6082   315.3537 </r>
       <r>     2.4547    86.3785   320.0748 </r>
       <r>     2.5093    45.5087   322.5621 </r>
       <r>     2.5640    23.4800   323.8455 </r>
       <r>     2.6187    47.8212   326.4592 </r>
       <r>     2.6733    54.0837   329.4152 </r>
       <r>     2.7280    73.6255   333.4393 </r>
       <r>     2.7826    99.1825   338.8602 </r>
       <r>     2.8373    88.7199   343.7093 </r>
       <r>     2.8919    92.7453   348.7784 </r>
       <r>     2.9466   104.4863   354.4892 </r>
       <r>     3.0012   111.4208   360.5790 </r>
       <r>     3.0559   102.0358   366.1559 </r>
       <r>     3.1106    72.1314   370.0983 </r>
       <r>     3.1652    60.4893   373.4044 </r>
       <r>     3.2199    85.8074   378.0943 </r>
       <r>     3.2745    92.7414   383.1632 </r>
       <r>     3.3292    96.1502   388.4183 </r>
       <r>     3.3838    86.9356   393.1699 </r>
       <r>     3.4385    92.6775   398.2353 </r>
       <r>     3.4931    79.7362   402.5934 </r>
       <r>     3.5478    83.9085   407.1795 </r>
       <r>     3.6025    80.5633   411.5828 </r>
       <r>     3.6571    70.6049   415.4418 </r>
       <r>     3.7118    80.2270   419.8267 </r>
       <r>     3.7664    92.6172   424.8888 </r>
       <r>     3.8211    74.5044   428.9609 </r>
       <r>     3.8757    70.5809   432.8186 </r>
       <r>     3.9304    85.0139   437.4651 </r>
       <r>     3.9850    74.1309   441.5169 </r>
       <r>     4.0397    59.6520   444.7772 </r>
       <r>     4.0944    57.9314   447.9435 </r>
       <r>     4.1490    67.9702   451.6585 </r>
       <r>     4.2037    82.8524   456.1869 </r>
       <r>     4.2583    83.5850   460.7553 </r>
       <r>     4.3130    66.1511   464.3709 </r>
       <r>     4.3676    76.5478   468.5547 </r>
       <r>     4.4223    76.5485   472.7385 </r>
       <r>     4.4769    68.7368   476.4954 </r>
       <r>     4.5316    70.7300   480.3612 </r>
       <r>     4.5863    63.5958   483.8371 </r>
       <r>     4.6409    59.8543   487.1085 </r>
       <r>     4.6956    46.4051   489.6448 </r>
       <r>     4.7502    28.7716   491.2173 </r>
       <r>     4.8049    20.6162   492.3441 </r>
       <r>     4.8595    17.9914   493.3275 </r>
       <r>     4.9142    41.5533   495.5986 </r>
       <r>     4.9689    55.8381   498.6505 </r>
       <r>     5.0235    33.5875   500.4863 </r>
       <r>     5.0782    24.6740   501.8348 </r>
       <r>     5.1328    30.5191   503.5029 </r>
       <r>     5.1875     7.4361   503.9093 </r>
       <r>     5.2421     1.6635   504.0003 </r>
       <r>     5.2968    16.8444   504.9209 </r>
       <r>     5.3514    13.5231   505.6600 </r>
       <r>     5.4061    21.4260   506.8311 </r>
       <r>     5.4608    26.0979   508.2575 </r>
       <r>     5.5154    22.3921   509.4813 </r>
       <r>     5.5701    23.4152   510.7612 </r>
       <r>     5.6247     9.0691   511.2568 </r>
       <r>     5.6794     4.4487   511.5000 </r>
       <r>     5.7340     0.7154   511.5391 </r>
       <r>     5.7887     3.8986   511.7522 </r>
       <r>     5.8433     4.5341   512.0000 </r>
       <r>     5.8980     0.0000   512.0000 </r>
       <r>     5.9527     0.0000   512.0000 </r>
       <r>     6.0073     0.0000   512.0000 </r>
       <r>     6.0620     0.0000   512.0000 </r>
       <r>     6.1166     0.0256   512.0014 </r>
       <r>     6.1713    19.2130   513.0515 </r>
       <r>     6.2259    15.1766   513.8810 </r>
       <r>     6.2806    11.9720   514.5353 </r>
       <r>     6.3352    13.6004   515.2787 </r>
       <r>     6.3899    26.0894   516.7046 </r>
       <r>     6.4446    31.5818   518.4307 </r>
       <r>     6.4992    23.9606   519.7403 </r>
       <r>     6.5539    25.3930   521.1282 </r>
       <r>     6.6085    10.3422   521.6935 </r>
       <r>     6.6632    16.6779   522.6050 </r>
       <r>     6.7178    22.6363   523.8422 </r>
       <r>     6.7725    31.8475   525.5829 </r>
       <r>     6.8272    40.1024   527.7748 </r>
       <r>     6.8818    27.2394   529.2636 </r>
       <r>     6.9365    42.5653   531.5900 </r>
       <r>     6.9911    35.1897   533.5134 </r>
       <r>     7.0458    52.2529   536.3693 </r>
       <r>     7.1004    39.8407   538.5468 </r>
       <r>     7.1551    20.5010   539.6673 </r>
       <r>     7.2097    17.7149   540.6355 </r>
       <r>     7.2644    48.9698   543.3120 </r>
       <r>     7.3191    72.7331   547.2874 </r>
       <r>     7.3737    87.8542   552.0891 </r>
       <r>     7.4284    78.2359   556.3652 </r>
       <r>     7.4830    77.4408   560.5978 </r>
       <r>     7.5377    87.5462   565.3827 </r>
       <r>     7.5923    70.3242   569.2264 </r>
       <r>     7.6470    94.5111   574.3920 </r>
       <r>     7.7016    91.4513   579.3904 </r>
       <r>     7.7563    86.7327   584.1309 </r>
       <r>     7.8110    98.8875   589.5357 </r>
       <r>     7.8656    92.3927   594.5855 </r>
       <r>     7.9203    93.5106   599.6964 </r>
       <r>     7.9749    98.2414   605.0659 </r>
       <r>     8.0296    91.4697   610.0654 </r>
       <r>     8.0842    84.0661   614.6601 </r>
       <r>     8.1389    63.5767   618.1349 </r>
       <r>     8.1935    84.4245   622.7493 </r>
       <r>     8.2482    98.5825   628.1374 </r>
       <r>     8.3029    71.8302   632.0633 </r>
       <r>     8.3575   101.8176   637.6283 </r>
       <r>     8.4122    57.9810   640.7973 </r>
       <r>     8.4668    39.9494   642.9808 </r>
       <r>     8.5215     9.3041   643.4893 </r>
       <r>     8.5761     4.2311   643.7205 </r>
       <r>     8.6308     5.1133   644.0000 </r>
       <r>     8.6854     0.0000   644.0000 </r>
       <r>     8.7401     0.0000   644.0000 </r>
       <r>     8.7948     0.0000   644.0000 </r>
       <r>     8.8494     0.0000   644.0000 </r>
       <r>     8.9041     0.0000   644.0000 </r>
       <r>     8.9587     0.0000   644.0000 </r>
       <r>     9.0134     0.0000   644.0000 </r>
       <r>     9.0680     0.0000   644.0000 </r>
       <r>     9.1227     0.0000   644.0000 </r>
       <r>     9.1774     0.0000   644.0000 </r>
       <r>     9.2320     0.0000   644.0000 </r>
       <r>     9.2867     0.0000   644.0000 </r>
       <r>     9.3413     0.0000   644.0000 </r>
      </set>
     </set>
    </array>
   </total>
  </dos>
 </calculation>
 <structure name="finalpos" >
  <crystal>
   <varray name="basis" >
    <v>       0.00000000      10.93733369      10.93733369 </v>
    <v>      10.93733369       0.00000000      10.93733369 </v>
    <v>      10.93733369      10.93733369       0.00000000 </v>
   </varray>
   <i name="volume">   2616.76295363 </i>
   <varray name="rec_basis" >
    <v>      -0.04571498       0.04571498       0.04571498 </v>
    <v>       0.04571498      -0.04571498       0.04571498 </v>
    <v>       0.04571498       0.04571498      -0.04571498 </v>
   </varray>
  </crystal>
  <varray name="positions" >
   <v>       0.01128852       0.99216345       0.99826927 </v>
   <v>       0.24825567       0.99941200       0.99347089 </v>
   <v>       0.49857767       0.00401192       0.00142331 </v>
   <v>       0.74124361       0.00492349       0.99104306 </v>
   <v>       0.00205909       0.24843585       0.99823692 </v>
   <v>       0.23603606       0.25882325       0.99963756 </v>
   <v>       0.49377504       0.25086546       0.99852861 </v>
   <v>       0.74285117       0.25099461       0.00817908 </v>
   <v>       0.00365948       0.50540532       0.99542518 </v>
   <v>       0.25503037       0.51374701       0.99611194 </v>
   <v>       0.50196764       0.50649908       0.99663774 </v>
   <v>       0.73483362       0.50334335       0.99758965 </v>
   <v>       0.99500916       0.75920045       0.99384384 </v>
   <v>       0.25298451       0.74721854       0.99798547 </v>
   <v>       0.49987002       0.74882027       0.99644596 </v>
   <v>       0.74760503       0.74098256       0.00169107 </v>
   <v>       0.99564867       0.00348361       0.24914967 </v>
   <v>       0.25041054       0.99198467       0.25310876 </v>
   <v>       0.52305051       0.99084460       0.24836051 </v>
   <v>       0.74795952       0.99919650       0.24080035 </v>
   <v>       0.99125196       0.24202212       0.25651174 </v>
   <v>       0.25253347       0.25511591       0.24491868 </v>
   <v>       0.50059121       0.24892004       0.25566516 </v>
   <v>       0.74849895       0.26325231       0.24541091 </v>
   <v>       0.99381623       0.50107780       0.25458718 </v>
   <v>       0.26133758       0.49472998       0.24593029 </v>
   <v>       0.50249686       0.49907625       0.24519743 </v>
   <v>       0.75274985       0.49920980       0.23774339 </v>
   <v>       0.00776533       0.74387120       0.25610403 </v>
   <v>       0.24869085       0.75992398       0.25116579 </v>
   <v>       0.50244775       0.74477270       0.24759874 </v>
   <v>       0.75275418       0.73808683       0.25156349 </v>
   <v>       0.00110248       0.98361202       0.50373737 </v>
   <v>       0.24276412       0.99822170       0.50663959 </v>
   <v>       0.50404919       0.99098163       0.50744724 </v>
   <v>       0.74998228       0.01169288       0.50517986 </v>
   <v>       0.99910030       0.25726161       0.49035952 </v>
   <v>       0.24719484       0.25037236       0.50557376 </v>
   <v>       0.50419402       0.24234116       0.49957898 </v>
   <v>       0.76147253       0.23849738       0.49985032 </v>
   <v>       0.99240006       0.49476690       0.50205463 </v>
   <v>       0.24431131       0.49359332       0.51630808 </v>
   <v>       0.49309146       0.50252148       0.50207276 </v>
   <v>       0.75338093       0.49381623       0.49467206 </v>
   <v>       0.00819056       0.75538464       0.49805655 </v>
   <v>       0.26017646       0.74280179       0.49578973 </v>
   <v>       0.48807506       0.75104705       0.50345748 </v>
   <v>       0.75309680       0.75528343       0.49174055 </v>
   <v>       0.00187798       0.00026343       0.75317733 </v>
   <v>       0.24876467       0.00079751       0.75343233 </v>
   <v>       0.50261208       0.99969199       0.74660759 </v>
   <v>       0.74841901       0.00943604       0.74444885 </v>
   <v>       0.00010174       0.23873227       0.75427392 </v>
   <v>       0.24625610       0.23607269       0.75561674 </v>
   <v>       0.49903070       0.26263968       0.74602815 </v>
   <v>       0.76603205       0.23834831       0.75055038 </v>
   <v>       0.00066181       0.50259383       0.74322421 </v>
   <v>       0.25885367       0.50323965       0.75069663 </v>
   <v>       0.48706463       0.51683255       0.74786214 </v>
   <v>       0.75240803       0.49819271       0.74521100 </v>
   <v>       0.01043321       0.74145429       0.74100527 </v>
   <v>       0.25830532       0.74528825       0.75546037 </v>
   <v>       0.50113537       0.74934885       0.75055683 </v>
   <v>       0.74247162       0.74200936       0.75380707 </v>
   <v>       0.06326892       0.05373217       0.05326527 </v>
   <v>       0.30339632       0.06656121       0.06713985 </v>
   <v>       0.56150724       0.06405248       0.05368634 </v>
   <v>       0.80801330       0.06412866       0.06881875 </v>
   <v>       0.04774029       0.31873556       0.06093037 </v>
   <v>       0.30233805       0.30849623       0.06487572 </v>
   <v>       0.56180695       0.32239242       0.06530498 </v>
   <v>       0.81716177       0.29808449       0.06559597 </v>
   <v>       0.05725429       0.57434943       0.05709646 </v>
   <v>       0.31601631       0.56570847       0.05162939 </v>
   <v>       0.56253520       0.55987719       0.05797354 </v>
   <v>       0.80728142       0.56176289       0.06242774 </v>
   <v>       0.06899722       0.80772870       0.06024484 </v>
   <v>       0.30158818       0.81429707       0.06662407 </v>
   <v>       0.56506586       0.80022903       0.06883021 </v>
   <v>       0.81201376       0.79623706       0.07128058 </v>
   <v>       0.06478312       0.06129454       0.31458004 </v>
   <v>       0.30927383       0.06208497       0.31249725 </v>
   <v>       0.56707553       0.05611159       0.31006008 </v>
   <v>       0.81725013       0.06339627       0.30653323 </v>
   <v>       0.06025245       0.31485700       0.30734056 </v>
   <v>       0.30800622       0.31824658       0.30615766 </v>
   <v>       0.55822099       0.31172650       0.31716971 </v>
   <v>       0.81221692       0.31676117       0.31380562 </v>
   <v>       0.05881712       0.56201057       0.30800891 </v>
   <v>       0.30898440       0.56334437       0.31711199 </v>
   <v>       0.56451480       0.56299373       0.32152957 </v>
   <v>       0.80090470       0.56646948       0.31198379 </v>
   <v>       0.06790135       0.80520903       0.31305417 </v>
   <v>       0.33537536       0.80177367       0.30747403 </v>
   <v>       0.55357300       0.81662175       0.30130819 </v>
   <v>       0.82133372       0.82056167       0.31253629 </v>
   <v>       0.06028653       0.07030070       0.55021866 </v>
   <v>       0.30984024       0.05377314       0.56657770 </v>
   <v>       0.56897124       0.05613987       0.55952844 </v>
   <v>       0.82048168       0.06153240       0.56464239 </v>
   <v>       0.06003559       0.32369317       0.55828034 </v>
   <v>       0.30970397       0.31672883       0.57316086 </v>
   <v>       0.56999819       0.30873397       0.56389235 </v>
   <v>       0.80956109       0.30374491       0.57315963 </v>
   <v>       0.05833395       0.55507469       0.56430396 </v>
   <v>       0.31023973       0.56408378       0.56489741 </v>
   <v>       0.56139732       0.55222318       0.56722057 </v>
   <v>       0.81167304       0.56301391       0.56558482 </v>
   <v>       0.06529594       0.80329145       0.56770812 </v>
   <v>       0.30449050       0.81669929       0.57256467 </v>
   <v>       0.56925076       0.80400363       0.56269401 </v>
   <v>       0.81407385       0.80925120       0.56455465 </v>
   <v>       0.06495737       0.05831836       0.82362226 </v>
   <v>       0.31136190       0.05716999       0.81354533 </v>
   <v>       0.55337288       0.07384122       0.80202389 </v>
   <v>       0.80001911       0.06717108       0.82062814 </v>
   <v>       0.06011064       0.30757987       0.80618796 </v>
   <v>       0.32188311       0.31395963       0.80492063 </v>
   <v>       0.56126313       0.31251943       0.80985561 </v>
   <v>       0.81949118       0.30432063       0.81757765 </v>
   <v>       0.05208119       0.56618946       0.81002007 </v>
   <v>       0.31055300       0.56779686       0.81564232 </v>
   <v>       0.56393972       0.56852233       0.80246715 </v>
   <v>       0.80730086       0.56341170       0.81377993 </v>
   <v>       0.06464732       0.80770352       0.80749385 </v>
   <v>       0.30681584       0.81175821       0.81681115 </v>
   <v>       0.55435628       0.82212318       0.81370152 </v>
   <v>       0.81631760       0.80613163       0.81724709 </v>
  </varray>
 </structure>
</modeling>
