potpaw_PBE@./ARUN.APL1ZEROSTATE         
           1
     0.000000   10.937334   10.937334
    10.937334    0.000000   10.937334
    10.937334   10.937334    0.000000
   Si
 128
Direct configuration=     1
   0.01128852  0.99216345  0.99826927
   0.24825567  0.99941200  0.99347089
   0.49857767  0.00401192  0.00142331
   0.74124361  0.00492349  0.99104306
   0.00205909  0.24843585  0.99823692
   0.23603606  0.25882325  0.99963756
   0.49377504  0.25086546  0.99852861
   0.74285117  0.25099461  0.00817908
   0.00365948  0.50540532  0.99542518
   0.25503037  0.51374701  0.99611194
   0.50196764  0.50649908  0.99663774
   0.73483362  0.50334335  0.99758965
   0.99500916  0.75920045  0.99384384
   0.25298451  0.74721854  0.99798547
   0.49987002  0.74882027  0.99644596
   0.74760503  0.74098256  0.00169107
   0.99564867  0.00348361  0.24914967
   0.25041054  0.99198467  0.25310876
   0.52305051  0.99084460  0.24836051
   0.74795952  0.99919650  0.24080035
   0.99125196  0.24202212  0.25651174
   0.25253347  0.25511591  0.24491868
   0.50059121  0.24892004  0.25566516
   0.74849895  0.26325231  0.24541091
   0.99381623  0.50107780  0.25458718
   0.26133758  0.49472998  0.24593029
   0.50249686  0.49907625  0.24519743
   0.75274985  0.49920980  0.23774339
   0.00776533  0.74387120  0.25610403
   0.24869085  0.75992398  0.25116579
   0.50244775  0.74477270  0.24759874
   0.75275418  0.73808683  0.25156349
   0.00110248  0.98361202  0.50373737
   0.24276412  0.99822170  0.50663959
   0.50404919  0.99098163  0.50744724
   0.74998228  0.01169288  0.50517986
   0.99910030  0.25726161  0.49035952
   0.24719484  0.25037236  0.50557376
   0.50419402  0.24234116  0.49957898
   0.76147253  0.23849738  0.49985032
   0.99240006  0.49476690  0.50205463
   0.24431131  0.49359332  0.51630808
   0.49309146  0.50252148  0.50207276
   0.75338093  0.49381623  0.49467206
   0.00819056  0.75538464  0.49805655
   0.26017646  0.74280179  0.49578973
   0.48807506  0.75104705  0.50345748
   0.75309680  0.75528343  0.49174055
   0.00187798  0.00026343  0.75317733
   0.24876467  0.00079751  0.75343233
   0.50261208  0.99969199  0.74660759
   0.74841901  0.00943604  0.74444885
   0.00010174  0.23873227  0.75427392
   0.24625610  0.23607269  0.75561674
   0.49903070  0.26263968  0.74602815
   0.76603205  0.23834831  0.75055038
   0.00066181  0.50259383  0.74322421
   0.25885367  0.50323965  0.75069663
   0.48706463  0.51683255  0.74786214
   0.75240803  0.49819271  0.74521100
   0.01043321  0.74145429  0.74100527
   0.25830532  0.74528825  0.75546037
   0.50113537  0.74934885  0.75055683
   0.74247162  0.74200936  0.75380707
   0.06326892  0.05373217  0.05326527
   0.30339632  0.06656121  0.06713985
   0.56150724  0.06405248  0.05368634
   0.80801330  0.06412866  0.06881875
   0.04774029  0.31873556  0.06093037
   0.30233805  0.30849623  0.06487572
   0.56180695  0.32239242  0.06530498
   0.81716177  0.29808449  0.06559597
   0.05725429  0.57434943  0.05709646
   0.31601631  0.56570847  0.05162939
   0.56253520  0.55987719  0.05797354
   0.80728142  0.56176289  0.06242774
   0.06899722  0.80772870  0.06024484
   0.30158818  0.81429707  0.06662407
   0.56506586  0.80022903  0.06883021
   0.81201376  0.79623706  0.07128058
   0.06478312  0.06129454  0.31458004
   0.30927383  0.06208497  0.31249725
   0.56707553  0.05611159  0.31006008
   0.81725013  0.06339627  0.30653323
   0.06025245  0.31485700  0.30734056
   0.30800622  0.31824658  0.30615766
   0.55822099  0.31172650  0.31716971
   0.81221692  0.31676117  0.31380562
   0.05881712  0.56201057  0.30800891
   0.30898440  0.56334437  0.31711199
   0.56451480  0.56299373  0.32152957
   0.80090470  0.56646948  0.31198379
   0.06790135  0.80520903  0.31305417
   0.33537536  0.80177367  0.30747403
   0.55357300  0.81662175  0.30130819
   0.82133372  0.82056167  0.31253629
   0.06028653  0.07030070  0.55021866
   0.30984024  0.05377314  0.56657770
   0.56897124  0.05613987  0.55952844
   0.82048168  0.06153240  0.56464239
   0.06003559  0.32369317  0.55828034
   0.30970397  0.31672883  0.57316086
   0.56999819  0.30873397  0.56389235
   0.80956109  0.30374491  0.57315963
   0.05833395  0.55507469  0.56430396
   0.31023973  0.56408378  0.56489741
   0.56139732  0.55222318  0.56722057
   0.81167304  0.56301391  0.56558482
   0.06529594  0.80329145  0.56770812
   0.30449050  0.81669929  0.57256467
   0.56925076  0.80400363  0.56269401
   0.81407385  0.80925120  0.56455465
   0.06495737  0.05831836  0.82362226
   0.31136190  0.05716999  0.81354533
   0.55337288  0.07384122  0.80202389
   0.80001911  0.06717108  0.82062814
   0.06011064  0.30757987  0.80618796
   0.32188311  0.31395963  0.80492063
   0.56126313  0.31251943  0.80985561
   0.81949118  0.30432063  0.81757765
   0.05208119  0.56618946  0.81002007
   0.31055300  0.56779686  0.81564232
   0.56393972  0.56852233  0.80246715
   0.80730086  0.56341170  0.81377993
   0.06464732  0.80770352  0.80749385
   0.30681584  0.81175821  0.81681115
   0.55435628  0.82212318  0.81370152
   0.81631760  0.80613163  0.81724709
