 128 128   0   0
  0.2044346E+02  0.1546773E-08  0.1546773E-08  0.1546773E-08  0.5000000E-15
  1.000000000000000E-004
  CAR 
 potpaw_PBE@./ARUN.APL1ZEROSTATE         
      9.34337735     -7.04367257  301      5.91575274      1.00000000
     -7.044  0.0000E+00  0.0000E+00
     -6.989  0.0000E+00  0.0000E+00
     -6.934  0.0000E+00  0.0000E+00
     -6.880  0.0000E+00  0.0000E+00
     -6.825  0.0000E+00  0.0000E+00
     -6.771  0.0000E+00  0.0000E+00
     -6.716  0.0000E+00  0.0000E+00
     -6.661  0.0000E+00  0.0000E+00
     -6.607  0.0000E+00  0.0000E+00
     -6.552  0.0000E+00  0.0000E+00
     -6.497  0.0000E+00  0.0000E+00
     -6.443  0.0000E+00  0.0000E+00
     -6.388  0.0000E+00  0.0000E+00
     -6.334  0.2023E-05  0.1105E-06
     -6.279  0.4565E+01  0.2494E+00
     -6.224  0.1137E-01  0.2500E+00
     -6.170  0.3701E-02  0.2502E+00
     -6.115  0.1784E+02  0.1225E+01
     -6.060  0.3163E+02  0.2952E+01
     -6.006  0.9143E+01  0.3452E+01
     -5.951  0.5460E+01  0.3750E+01
     -5.897  0.4334E+01  0.3987E+01
     -5.842  0.7811E+01  0.4413E+01
     -5.787  0.1097E+02  0.5013E+01
     -5.733  0.2294E+02  0.6266E+01
     -5.678  0.3450E+02  0.8151E+01
     -5.623  0.2493E+02  0.9513E+01
     -5.569  0.2409E+02  0.1083E+02
     -5.514  0.3213E+02  0.1258E+02
     -5.460  0.1999E+02  0.1368E+02
     -5.405  0.1147E+02  0.1430E+02
     -5.350  0.8196E+01  0.1475E+02
     -5.296  0.8894E+01  0.1524E+02
     -5.241  0.4504E+01  0.1548E+02
     -5.186  0.2536E+02  0.1687E+02
     -5.132  0.5100E+02  0.1965E+02
     -5.077  0.4325E+02  0.2202E+02
     -5.023  0.2904E+02  0.2360E+02
     -4.968  0.3489E+02  0.2551E+02
     -4.913  0.2639E+02  0.2695E+02
     -4.859  0.3256E+02  0.2873E+02
     -4.804  0.1246E+02  0.2941E+02
     -4.749  0.3314E+02  0.3122E+02
     -4.695  0.3269E+02  0.3300E+02
     -4.640  0.3864E+02  0.3511E+02
     -4.586  0.4534E+02  0.3759E+02
     -4.531  0.4013E+02  0.3978E+02
     -4.476  0.2167E+02  0.4097E+02
     -4.422  0.2404E+02  0.4228E+02
     -4.367  0.2229E+02  0.4350E+02
     -4.312  0.1724E+02  0.4444E+02
     -4.258  0.4067E+02  0.4666E+02
     -4.203  0.5207E+02  0.4951E+02
     -4.149  0.5600E+02  0.5256E+02
     -4.094  0.5668E+02  0.5566E+02
     -4.039  0.5830E+02  0.5885E+02
     -3.985  0.5385E+02  0.6179E+02
     -3.930  0.6428E+02  0.6530E+02
     -3.876  0.2650E+02  0.6675E+02
     -3.821  0.6198E+02  0.7013E+02
     -3.766  0.6509E+02  0.7369E+02
     -3.712  0.4415E+02  0.7610E+02
     -3.657  0.4531E+02  0.7857E+02
     -3.602  0.2134E+02  0.7974E+02
     -3.548  0.3258E+02  0.8152E+02
     -3.493  0.3736E+02  0.8356E+02
     -3.439  0.4749E+02  0.8615E+02
     -3.384  0.5208E+02  0.8900E+02
     -3.329  0.5605E+02  0.9206E+02
     -3.275  0.4512E+02  0.9452E+02
     -3.220  0.3373E+02  0.9637E+02
     -3.165  0.3308E+02  0.9817E+02
     -3.111  0.3923E+02  0.1003E+03
     -3.056  0.4944E+02  0.1030E+03
     -3.002  0.4661E+02  0.1056E+03
     -2.947  0.3717E+02  0.1076E+03
     -2.892  0.3162E+02  0.1093E+03
     -2.838  0.3776E+02  0.1114E+03
     -2.783  0.3561E+02  0.1133E+03
     -2.728  0.3476E+02  0.1152E+03
     -2.674  0.3471E+02  0.1171E+03
     -2.619  0.3128E+02  0.1188E+03
     -2.565  0.2475E+02  0.1202E+03
     -2.510  0.3081E+02  0.1219E+03
     -2.455  0.1221E+02  0.1225E+03
     -2.401  0.3962E+01  0.1228E+03
     -2.346  0.4308E+01  0.1230E+03
     -2.291  0.2575E+01  0.1231E+03
     -2.237  0.1161E+02  0.1238E+03
     -2.182  0.2555E+02  0.1252E+03
     -2.128  0.2393E+02  0.1265E+03
     -2.073  0.2910E+02  0.1281E+03
     -2.018  0.3233E+02  0.1298E+03
     -1.964  0.2777E+02  0.1313E+03
     -1.909  0.2060E+02  0.1325E+03
     -1.854  0.5223E+01  0.1327E+03
     -1.800  0.5632E+00  0.1328E+03
     -1.745  0.7818E+01  0.1332E+03
     -1.691  0.5288E+01  0.1335E+03
     -1.636  0.1530E+02  0.1343E+03
     -1.581  0.3166E+02  0.1361E+03
     -1.527  0.2868E+02  0.1376E+03
     -1.472  0.2127E+02  0.1388E+03
     -1.417  0.3197E+02  0.1405E+03
     -1.363  0.4721E+02  0.1431E+03
     -1.308  0.5667E+02  0.1462E+03
     -1.254  0.6434E+02  0.1497E+03
     -1.199  0.6401E+02  0.1532E+03
     -1.144  0.7353E+02  0.1572E+03
     -1.090  0.5911E+02  0.1605E+03
     -1.035  0.5288E+02  0.1634E+03
     -0.980  0.6659E+02  0.1670E+03
     -0.926  0.8200E+02  0.1715E+03
     -0.871  0.6902E+02  0.1752E+03
     -0.817  0.5175E+02  0.1781E+03
     -0.762  0.5335E+02  0.1810E+03
     -0.707  0.4906E+02  0.1837E+03
     -0.653  0.4703E+02  0.1862E+03
     -0.598  0.3336E+02  0.1880E+03
     -0.543  0.2618E+02  0.1895E+03
     -0.489  0.1872E+02  0.1905E+03
     -0.434  0.1899E+02  0.1915E+03
     -0.380  0.2846E+02  0.1931E+03
     -0.325  0.5076E+02  0.1959E+03
     -0.270  0.5178E+02  0.1987E+03
     -0.216  0.4718E+02  0.2013E+03
     -0.161  0.6378E+02  0.2048E+03
     -0.106  0.3429E+02  0.2066E+03
     -0.052  0.4428E+02  0.2090E+03
      0.003  0.3499E+02  0.2110E+03
      0.057  0.3322E+02  0.2128E+03
      0.112  0.1771E+02  0.2137E+03
      0.167  0.4767E+01  0.2140E+03
      0.221  0.1159E+02  0.2146E+03
      0.276  0.2046E+02  0.2158E+03
      0.330  0.3189E+02  0.2175E+03
      0.385  0.1727E+02  0.2184E+03
      0.440  0.2886E+02  0.2200E+03
      0.494  0.1775E+02  0.2210E+03
      0.549  0.2063E+02  0.2221E+03
      0.604  0.2816E+02  0.2236E+03
      0.658  0.1782E+02  0.2246E+03
      0.713  0.1941E+02  0.2257E+03
      0.767  0.2136E+02  0.2268E+03
      0.822  0.1238E+02  0.2275E+03
      0.877  0.9439E+01  0.2280E+03
      0.931  0.1320E+02  0.2288E+03
      0.986  0.3243E+02  0.2305E+03
      1.041  0.1239E+02  0.2312E+03
      1.095  0.3472E+02  0.2331E+03
      1.150  0.2162E+02  0.2343E+03
      1.204  0.2768E+02  0.2358E+03
      1.259  0.2977E+02  0.2374E+03
      1.314  0.2542E+02  0.2388E+03
      1.368  0.2742E+02  0.2403E+03
      1.423  0.4114E+02  0.2426E+03
      1.478  0.8039E+02  0.2469E+03
      1.532  0.7570E+02  0.2511E+03
      1.587  0.8355E+02  0.2556E+03
      1.641  0.7905E+02  0.2600E+03
      1.696  0.7752E+02  0.2642E+03
      1.751  0.6478E+02  0.2677E+03
      1.805  0.5405E+02  0.2707E+03
      1.860  0.2303E+02  0.2719E+03
      1.915  0.2527E+02  0.2733E+03
      1.969  0.1785E+02  0.2743E+03
      2.024  0.4000E+02  0.2765E+03
      2.078  0.6065E+02  0.2798E+03
      2.133  0.8169E+02  0.2843E+03
      2.188  0.1130E+03  0.2904E+03
      2.242  0.1232E+03  0.2972E+03
      2.297  0.1228E+03  0.3039E+03
      2.352  0.1086E+03  0.3098E+03
      2.406  0.1102E+03  0.3158E+03
      2.461  0.7828E+02  0.3201E+03
      2.515  0.4955E+02  0.3228E+03
      2.570  0.3853E+02  0.3249E+03
      2.625  0.3399E+02  0.3268E+03
      2.679  0.5878E+02  0.3300E+03
      2.734  0.7057E+02  0.3338E+03
      2.789  0.9337E+02  0.3389E+03
      2.843  0.1022E+03  0.3445E+03
      2.898  0.8009E+02  0.3489E+03
      2.952  0.1045E+03  0.3546E+03
      3.007  0.9719E+02  0.3599E+03
      3.062  0.9848E+02  0.3653E+03
      3.116  0.8343E+02  0.3698E+03
      3.171  0.7424E+02  0.3739E+03
      3.226  0.8276E+02  0.3784E+03
      3.280  0.9427E+02  0.3836E+03
      3.335  0.9133E+02  0.3886E+03
      3.389  0.9355E+02  0.3937E+03
      3.444  0.7422E+02  0.3977E+03
      3.499  0.8781E+02  0.4025E+03
      3.553  0.8644E+02  0.4072E+03
      3.608  0.7527E+02  0.4114E+03
      3.663  0.8260E+02  0.4159E+03
      3.717  0.8229E+02  0.4204E+03
      3.772  0.8313E+02  0.4249E+03
      3.826  0.8753E+02  0.4297E+03
      3.881  0.8422E+02  0.4343E+03
      3.936  0.8417E+02  0.4389E+03
      3.990  0.4532E+02  0.4414E+03
      4.045  0.6268E+02  0.4448E+03
      4.100  0.6355E+02  0.4483E+03
      4.154  0.7123E+02  0.4521E+03
      4.209  0.7597E+02  0.4563E+03
      4.263  0.7657E+02  0.4605E+03
      4.318  0.7458E+02  0.4645E+03
      4.373  0.7202E+02  0.4685E+03
      4.427  0.7779E+02  0.4727E+03
      4.482  0.7400E+02  0.4768E+03
      4.537  0.5570E+02  0.4798E+03
      4.591  0.7822E+02  0.4841E+03
      4.646  0.5152E+02  0.4869E+03
      4.700  0.4479E+02  0.4894E+03
      4.755  0.2027E+02  0.4905E+03
      4.810  0.1590E+02  0.4913E+03
      4.864  0.4446E+02  0.4938E+03
      4.919  0.2354E+02  0.4950E+03
      4.973  0.4698E+02  0.4976E+03
      5.028  0.4844E+02  0.5003E+03
      5.083  0.2502E+02  0.5016E+03
      5.137  0.2489E+02  0.5030E+03
      5.192  0.1371E+02  0.5037E+03
      5.247  0.6601E+01  0.5041E+03
      5.301  0.1246E+02  0.5048E+03
      5.356  0.1522E+02  0.5056E+03
      5.410  0.1803E+02  0.5066E+03
      5.465  0.1652E+02  0.5075E+03
      5.520  0.3209E+02  0.5092E+03
      5.574  0.1747E+02  0.5102E+03
      5.629  0.8927E+01  0.5107E+03
      5.684  0.1495E+02  0.5115E+03
      5.738  0.3857E-01  0.5115E+03
      5.793  0.4538E+01  0.5117E+03
      5.847  0.4138E-01  0.5118E+03
      5.902  0.4535E+01  0.5120E+03
      5.957  0.0000E+00  0.5120E+03
      6.011  0.0000E+00  0.5120E+03
      6.066  0.0000E+00  0.5120E+03
      6.121  0.1103E+00  0.5120E+03
      6.175  0.1724E+02  0.5129E+03
      6.230  0.2356E+02  0.5142E+03
      6.284  0.9602E+01  0.5148E+03
      6.339  0.2313E+02  0.5160E+03
      6.394  0.2050E+02  0.5171E+03
      6.448  0.1714E+02  0.5181E+03
      6.503  0.3570E+02  0.5200E+03
      6.558  0.2288E+02  0.5213E+03
      6.612  0.1494E+02  0.5221E+03
      6.667  0.1416E+02  0.5229E+03
      6.721  0.1715E+02  0.5238E+03
      6.776  0.3461E+02  0.5257E+03
      6.831  0.3382E+02  0.5275E+03
      6.885  0.4066E+02  0.5298E+03
      6.940  0.2852E+02  0.5313E+03
      6.995  0.5498E+02  0.5343E+03
      7.049  0.3448E+02  0.5362E+03
      7.104  0.4233E+02  0.5385E+03
      7.158  0.2523E+02  0.5399E+03
      7.213  0.1705E+02  0.5408E+03
      7.268  0.5542E+02  0.5439E+03
      7.322  0.7130E+02  0.5478E+03
      7.377  0.6700E+02  0.5514E+03
      7.432  0.9742E+02  0.5567E+03
      7.486  0.8306E+02  0.5613E+03
      7.541  0.9065E+02  0.5662E+03
      7.595  0.7465E+02  0.5703E+03
      7.650  0.8051E+02  0.5747E+03
      7.705  0.8065E+02  0.5791E+03
      7.759  0.9992E+02  0.5846E+03
      7.814  0.9819E+02  0.5899E+03
      7.869  0.9545E+02  0.5951E+03
      7.923  0.9685E+02  0.6004E+03
      7.978  0.9068E+02  0.6054E+03
      8.032  0.9572E+02  0.6106E+03
      8.087  0.8019E+02  0.6150E+03
      8.142  0.7353E+02  0.6190E+03
      8.196  0.9393E+02  0.6241E+03
      8.251  0.9340E+02  0.6292E+03
      8.306  0.8699E+02  0.6340E+03
      8.360  0.6406E+02  0.6375E+03
      8.415  0.8222E+02  0.6420E+03
      8.469  0.2321E+02  0.6432E+03
      8.524  0.3548E+01  0.6434E+03
      8.579  0.5173E+01  0.6437E+03
      8.633  0.5012E+01  0.6440E+03
      8.688  0.0000E+00  0.6440E+03
      8.743  0.0000E+00  0.6440E+03
      8.797  0.0000E+00  0.6440E+03
      8.852  0.0000E+00  0.6440E+03
      8.906  0.0000E+00  0.6440E+03
      8.961  0.0000E+00  0.6440E+03
      9.016  0.0000E+00  0.6440E+03
      9.070  0.0000E+00  0.6440E+03
      9.125  0.0000E+00  0.6440E+03
      9.180  0.0000E+00  0.6440E+03
      9.234  0.0000E+00  0.6440E+03
      9.289  0.0000E+00  0.6440E+03
      9.343  0.0000E+00  0.6440E+03
