 vasp.5.4.4.18Apr17-6-g9f103f2a35 (build Nov 08 2017 09:05:29) complex          
  
 executed on          Intel_17.33 date 2020.07.19  00:13:34
 running on   32 total cores
 distrk:  each k-point on   32 cores,    1 groups
 distr:  one band on NCORES_PER_BAND=  16 cores,    2 groups


--------------------------------------------------------------------------------------------------------


 INCAR:
 POTCAR:   PAW_PBE Si 05Jan2001                   

 ----------------------------------------------------------------------------- 
|                                                                             |
|           W    W    AA    RRRRR   N    N  II  N    N   GGGG   !!!           |
|           W    W   A  A   R    R  NN   N  II  NN   N  G    G  !!!           |
|           W    W  A    A  R    R  N N  N  II  N N  N  G       !!!           |
|           W WW W  AAAAAA  RRRRR   N  N N  II  N  N N  G  GGG   !            |
|           WW  WW  A    A  R   R   N   NN  II  N   NN  G    G                |
|           W    W  A    A  R    R  N    N  II  N    N   GGGG   !!!           |
|                                                                             |
|      For optimal performance we recommend to set                            |
|        NCORE= 4 - approx SQRT( number of cores)                             |
|      NCORE specifies how many cores store one orbital (NPAR=cpu/NCORE).     |
|      This setting can  greatly improve the performance of VASP for DFT.     |
|      The default,   NCORE=1            might be grossly inefficient         |
|      on modern multi-core architectures or massively parallel machines.     |
|      Do your own testing !!!!                                               |
|      Unfortunately you need to use the default for GW and RPA calculations. |
|      (for HF NCORE is supported but not extensively tested yet)             |
|                                                                             |
 ----------------------------------------------------------------------------- 

 POTCAR:   PAW_PBE Si 05Jan2001                   
   VRHFIN =Si: s2p2                                                             
   LEXCH  = PE                                                                  
   EATOM  =   103.0669 eV,    7.5752 Ry                                         
                                                                                
   TITEL  = PAW_PBE Si 05Jan2001                                                
   LULTRA =        F    use ultrasoft PP ?                                      
   IUNSCR =        1    unscreen: 0-lin 1-nonlin 2-no                           
   RPACOR =    1.500    partial core radius                                     
   POMASS =   28.085; ZVAL   =    4.000    mass and valenz                      
   RCORE  =    1.900    outmost cutoff radius                                   
   RWIGS  =    2.480; RWIGS  =    1.312    wigner-seitz radius (au A)           
   ENMAX  =  245.345; ENMIN  =  184.009 eV                                      
   ICORE  =        2    local potential                                         
   LCOR   =        T    correct aug charges                                     
   LPAW   =        T    paw PP                                                  
   EAUG   =  322.069                                                            
   DEXC   =    -.007                                                            
   RMAX   =    2.944    core radius for proj-oper                               
   RAUG   =    1.300    factor for augmentation sphere                          
   RDEP   =    1.993    radius for radial grids                                 
   QCUT   =   -4.246; QGAM   =    8.493    optimization parameters              
                                                                                
   Description                                                                  
     l     E      TYP  RCUT    TYP  RCUT                                        
     0   .000     23  1.900                                                     
     0   .000     23  1.900                                                     
     1   .000     23  1.900                                                     
     1   .000     23  1.900                                                     
     2   .000      7  1.900                                                     
  local pseudopotential read in
  partial core-charges read in
  atomic valenz-charges read in
  non local Contribution for L=           0  read in
    real space projection operators read in
  non local Contribution for L=           0  read in
    real space projection operators read in
  non local Contribution for L=           1  read in
    real space projection operators read in
  non local Contribution for L=           1  read in
    real space projection operators read in
    PAW grid and wavefunctions read in
 
   number of l-projection  operators is LMAX  =           4
   number of lm-projection operators is LMMAX =           8
 

 ----------------------------------------------------------------------------- 
|                                                                             |
|  ADVICE TO THIS USER RUNNING 'VASP/VAMP'   (HEAR YOUR MASTER'S VOICE ...):  |
|                                                                             |
|      You have a (more or less) 'large supercell' and for larger cells       |
|      it might be more efficient to use real space projection operators      |
|      So try LREAL= Auto  in the INCAR   file.                               |
|      Mind: If you want to do a very accurate calculations keep the          |
|      reciprocal projection scheme          (i.e. LREAL=.FALSE.)             |
|                                                                             |
 ----------------------------------------------------------------------------- 

 PAW_PBE Si 05Jan2001                   :
 energy of atom  1       EATOM= -103.0669
 kinetic energy error for atom=    0.0006 (will be added to EATOM!!)
 
 
 POSCAR: kk                                      
  positions in direct lattice
  No initial velocities read in
 exchange correlation table for  LEXCH =        8
   RHO(1)=    0.500       N(1)  =     2000
   RHO(2)=  100.500       N(2)  =     4000
 


--------------------------------------------------------------------------------------------------------


 ion  position               nearest neighbor table
   1  0.999  0.004  0.993-  65 2.40 113 2.43  68 2.47  77 2.50
   2  0.252  0.992  0.007- 114 2.25  65 2.25  78 2.25  66 2.34
   3  0.490  0.006  0.005-  66 2.27  67 2.31 115 2.43  79 2.46
   4  0.748  0.015  0.987-  67 2.39 116 2.41  68 2.54  80 2.57
   5  0.004  0.246  0.004-  65 2.34  72 2.38 117 2.38  69 2.41
   6  0.252  0.251  0.999-  70 2.26 118 2.30  66 2.30  69 2.31
   7  0.493  0.244  0.009-  71 2.25  67 2.32  70 2.33 119 2.53
   8  0.752  0.245  0.005-  68 2.29  72 2.39  71 2.52 120 2.62
   9  0.003  0.488  0.006-  69 2.28  76 2.34 121 2.40  73 2.48
  10  0.241  0.506  0.996-  73 2.18 122 2.27  70 2.39  74 2.48
  11  0.496  0.495  0.011-  71 2.27  74 2.29  75 2.48 123 2.58
  12  0.745  0.502  0.000-  75 2.38  76 2.41 124 2.45  72 2.47
  13  0.993  0.744  0.007-  73 2.24  80 2.30 125 2.44  77 2.49
  14  0.251  0.757  0.995-  78 2.33 126 2.34  77 2.41  74 2.68
  15  0.501  0.748  0.011-  79 2.31  75 2.32 127 2.37  78 2.40
  16  0.749  0.738  0.018-  76 2.34  79 2.35  80 2.38 128 2.61
  17  0.992  0.011  0.254-  84 2.26  81 2.29  93 2.56  65 2.61
  18  0.238  0.019  0.242-  81 2.33  82 2.34  66 2.36  94 2.70
  19  0.496  0.996  0.258-  83 2.23  82 2.27  95 2.39  67 2.44
  20  0.739  0.009  0.258-  83 2.23  84 2.25  68 2.26  96 2.40
  21  0.003  0.253  0.246-  85 2.17  69 2.25  88 2.38  81 2.45
  22  0.255  0.250  0.249-  86 2.25  82 2.44  85 2.45  70 2.47
  23  0.504  0.243  0.252-  83 2.40  86 2.42  87 2.45  71 2.51
  24  0.750  0.246  0.256-  84 2.21  87 2.31  72 2.36  88 2.42
  25  0.001  0.497  0.249-  92 2.26  73 2.42  85 2.47  89 2.51
  26  0.257  0.498  0.250-  74 2.20  86 2.33  90 2.50  89 2.51
  27  0.499  0.493  0.248-  75 2.17  87 2.25  90 2.34  91 2.41
  28  0.750  0.502  0.251-  88 2.23  76 2.32  91 2.41  92 2.44
  29  0.980  0.750  0.264-  89 2.21  96 2.23  77 2.42  93 2.45
  30  0.245  0.750  0.252-  90 2.21  94 2.30  93 2.32  78 2.41
  31  0.506  0.752  0.248-  95 2.17  79 2.27  91 2.43  94 2.47
  32  0.744  0.750  0.253-  95 2.24  80 2.31  92 2.39  96 2.47
  33  0.996  0.996  0.505- 100 2.18  97 2.19  81 2.31 109 2.35
  34  0.238  0.003  0.512-  98 2.33  97 2.45 110 2.50  82 2.60
  35  0.513  0.988  0.504- 111 2.21  99 2.24  98 2.47  83 2.48
  36  0.762  0.996  0.489-  84 2.43 112 2.44 100 2.46  99 2.46
  37  0.012  0.238  0.500-  97 2.33 101 2.35  85 2.42 104 2.48
  38  0.256  0.251  0.492-  86 2.35 102 2.36  98 2.38 101 2.46
  39  0.493  0.242  0.505- 102 2.33  99 2.41 103 2.47  87 2.49
  40  0.747  0.251  0.505- 104 2.35 103 2.37 100 2.41  88 2.55
  41  0.006  0.496  0.495- 101 2.34  89 2.36 105 2.36 108 2.48
  42  0.245  0.492  0.515- 102 2.26 106 2.31 105 2.46  90 2.60
  43  0.496  0.500  0.500- 103 2.28 106 2.33  91 2.37 107 2.45
  44  0.770  0.508  0.490- 108 2.17  92 2.25 104 2.49 107 2.69
  45  0.997  0.740  0.506- 105 2.23 112 2.33  93 2.36 109 2.50
  46  0.266  0.745  0.494-  94 2.29 106 2.43 110 2.46 109 2.57
  47  0.512  0.736  0.497- 107 2.17 111 2.45  95 2.47 110 2.50
  48  0.754  0.751  0.499- 112 2.24  96 2.29 108 2.42 111 2.49
  49  0.000  0.001  0.754- 116 2.31  97 2.35 113 2.35 125 2.40
  50  0.254  0.995  0.749- 126 2.28 113 2.31 114 2.35  98 2.43
  51  0.506  0.002  0.746-  99 2.32 115 2.37 127 2.43 114 2.69
  52  0.752  0.989  0.758- 116 2.28 128 2.33 115 2.45 100 2.55
  53  0.004  0.255  0.742- 101 2.25 113 2.36 117 2.38 120 2.40
  54  0.246  0.258  0.753- 117 2.26 118 2.35 102 2.42 114 2.51
  55  0.497  0.253  0.755- 118 2.25 119 2.27 115 2.30 103 2.50
  56  0.756  0.252  0.749- 120 2.16 104 2.37 116 2.39 119 2.45
  57  0.003  0.483  0.753- 117 2.24 124 2.33 121 2.34 105 2.35
  58  0.248  0.503  0.753- 106 2.31 122 2.40 118 2.49 121 2.52
  59  0.501  0.495  0.748- 107 2.29 119 2.30 122 2.34 123 2.46
  60  0.765  0.485  0.754- 120 2.14 124 2.26 108 2.34 123 2.52
  61  0.001  0.744  0.750- 128 2.25 109 2.30 121 2.39 125 2.48
  62  0.247  0.749  0.760- 125 2.29 110 2.29 126 2.29 122 2.38
  63  0.506  0.742  0.762- 123 2.23 127 2.31 111 2.46 126 2.46
  64  0.747  0.749  0.758- 128 2.36 127 2.38 124 2.43 112 2.45
  65  0.074  0.062  0.049-   2 2.25   5 2.34   1 2.40  17 2.61
  66  0.310  0.069  0.056-   3 2.27   6 2.30   2 2.34  18 2.36
  67  0.559  0.060  0.064-   3 2.31   7 2.32   4 2.39  19 2.44
  68  0.805  0.065  0.079-  20 2.26   8 2.29   1 2.47   4 2.54
  69  0.070  0.307  0.068-  21 2.25   9 2.28   6 2.31   5 2.41
  70  0.310  0.317  0.054-   6 2.26   7 2.33  10 2.39  22 2.47
  71  0.553  0.317  0.054-   7 2.25  11 2.27  23 2.51   8 2.52
  72  0.815  0.307  0.069-  24 2.36   5 2.38   8 2.39  12 2.47
  73  0.068  0.567  0.058-  10 2.18  13 2.24  25 2.42   9 2.48
  74  0.315  0.545  0.076-  26 2.20  11 2.29  10 2.48  14 2.68
  75  0.557  0.564  0.077-  27 2.17  15 2.32  12 2.38  11 2.48
  76  0.818  0.553  0.067-  28 2.32  16 2.34   9 2.34  12 2.41
  77  0.061  0.807  0.073-  14 2.41  29 2.42  13 2.49   1 2.50
  78  0.312  0.814  0.061-   2 2.25  14 2.33  15 2.40  30 2.41
  79  0.564  0.811  0.068-  31 2.27  15 2.31  16 2.35   3 2.46
  80  0.811  0.812  0.070-  13 2.30  32 2.31  16 2.38   4 2.57
  81  0.055  0.060  0.323-  17 2.29  33 2.31  18 2.33  21 2.45
  82  0.317  0.057  0.308-  19 2.27  18 2.34  22 2.44  34 2.60
  83  0.564  0.053  0.309-  19 2.23  20 2.23  23 2.40  35 2.48
  84  0.814  0.072  0.297-  24 2.21  20 2.25  17 2.26  36 2.43
  85  0.062  0.301  0.310-  21 2.17  37 2.42  22 2.45  25 2.47
  86  0.312  0.314  0.306-  22 2.25  26 2.33  38 2.35  23 2.42
  87  0.567  0.316  0.309-  27 2.25  24 2.31  23 2.45  39 2.49
  88  0.814  0.325  0.304-  28 2.23  21 2.38  24 2.42  40 2.55
  89  0.058  0.576  0.309-  29 2.21  41 2.36  25 2.51  26 2.51
  90  0.316  0.576  0.310-  30 2.21  27 2.34  26 2.50  42 2.60
  91  0.559  0.560  0.313-  43 2.37  27 2.41  28 2.41  31 2.43
  92  0.822  0.561  0.312-  44 2.25  25 2.26  32 2.39  28 2.44
  93  0.061  0.808  0.319-  30 2.32  45 2.36  29 2.45  17 2.56
  94  0.311  0.805  0.313-  46 2.29  30 2.30  31 2.47  18 2.70
  95  0.568  0.808  0.302-  31 2.17  32 2.24  19 2.39  47 2.47
  96  0.804  0.819  0.318-  29 2.23  48 2.29  20 2.40  32 2.47
  97  0.046  0.055  0.569-  33 2.19  37 2.33  49 2.35  34 2.45
  98  0.318  0.063  0.557-  34 2.33  38 2.38  50 2.43  35 2.47
  99  0.568  0.052  0.563-  35 2.24  51 2.32  39 2.41  36 2.46
 100  0.824  0.061  0.557-  33 2.18  40 2.41  36 2.46  52 2.55
 101  0.061  0.311  0.564-  53 2.25  41 2.34  37 2.35  38 2.46
 102  0.309  0.314  0.561-  42 2.26  39 2.33  38 2.36  54 2.42
 103  0.560  0.320  0.557-  43 2.28  40 2.37  39 2.47  55 2.50
 104  0.816  0.312  0.562-  40 2.35  56 2.37  37 2.48  44 2.49
 105  0.051  0.564  0.568-  45 2.23  57 2.35  41 2.36  42 2.46
 106  0.311  0.554  0.570-  58 2.31  42 2.31  43 2.33  46 2.43
 107  0.558  0.565  0.567-  47 2.17  59 2.29  43 2.45  44 2.69
 108  0.809  0.559  0.570-  44 2.17  60 2.34  48 2.42  41 2.48
 109  0.063  0.810  0.567-  61 2.30  33 2.35  45 2.50  46 2.57
 110  0.315  0.806  0.578-  62 2.29  46 2.46  34 2.50  47 2.50
 111  0.556  0.814  0.568-  35 2.21  47 2.45  63 2.46  48 2.49
 112  0.813  0.803  0.565-  48 2.24  45 2.33  36 2.44  64 2.45
 113  0.072  0.068  0.800-  50 2.31  49 2.35  53 2.36   1 2.43
 114  0.294  0.060  0.830-   2 2.25  50 2.35  54 2.51  51 2.69
 115  0.559  0.070  0.812-  55 2.30  51 2.37   3 2.43  52 2.45
 116  0.818  0.063  0.797-  52 2.28  49 2.31  56 2.39   4 2.41
 117  0.068  0.305  0.816-  57 2.24  54 2.26  53 2.38   5 2.38
 118  0.319  0.306  0.817-  55 2.25   6 2.30  54 2.35  58 2.49
 119  0.562  0.313  0.810-  55 2.27  59 2.30  56 2.45   7 2.53
 120  0.814  0.317  0.797-  60 2.14  56 2.16  53 2.40   8 2.62
 121  0.050  0.556  0.817-  57 2.34  61 2.39   9 2.40  58 2.52
 122  0.316  0.561  0.817-  10 2.27  59 2.34  62 2.38  58 2.40
 123  0.566  0.567  0.806-  63 2.23  59 2.46  60 2.52  11 2.58
 124  0.819  0.557  0.806-  60 2.26  57 2.33  64 2.43  12 2.45
 125  0.066  0.811  0.815-  62 2.29  49 2.40  13 2.44  61 2.48
 126  0.312  0.815  0.810-  50 2.28  62 2.29  14 2.34  63 2.46
 127  0.558  0.811  0.824-  63 2.31  15 2.37  64 2.38  51 2.43
 128  0.823  0.805  0.812-  61 2.25  52 2.33  64 2.36  16 2.61
 
  LATTYP: Found a face centered cubic cell.
 ALAT       =    21.8746673814
  
  Lattice vectors:
  
 A1 = (   0.0000000000,  10.9373336907,  10.9373336907)
 A2 = (  10.9373336907,   0.0000000000,  10.9373336907)
 A3 = (  10.9373336907,  10.9373336907,   0.0000000000)


Analysis of symmetry for initial positions (statically):
=====================================================================
 Subroutine PRICEL returns:
 Original cell was already a primitive cell.
 

 Routine SETGRP: Setting up the symmetry group for a 
 face centered cubic supercell.


 Subroutine GETGRP returns: Found  1 space group operations
 (whereof  1 operations were pure point group operations)
 out of a pool of 48 trial point group operations.


The static configuration has the point symmetry C_1 .


Analysis of symmetry for dynamics (positions and initial velocities):
=====================================================================
 Subroutine PRICEL returns:
 Original cell was already a primitive cell.
 

 Routine SETGRP: Setting up the symmetry group for a 
 face centered cubic supercell.


 Subroutine GETGRP returns: Found  1 space group operations
 (whereof  1 operations were pure point group operations)
 out of a pool of 48 trial point group operations.


The dynamic configuration has the point symmetry C_1 .


 Subroutine INISYM returns: Found  1 space group operations
 (whereof  1 operations are pure point group operations),
 and found     1 'primitive' translations

 
 
 KPOINTS: KPOINTS File, automatically generated by

Automatic generation of k-mesh.
Space group operators:
 irot       det(A)        alpha          n_x          n_y          n_z        tau_x        tau_y        tau_z
    1     1.000000     0.000001     1.000000     0.000000     0.000000     0.000000     0.000000     0.000000
 
 Subroutine IBZKPT returns following result:
 ===========================================
 
 Found      8 irreducible k-points:
 
 Following reciprocal coordinates:
            Coordinates               Weight
  0.000000  0.000000  0.000000      1.000000
  0.500000  0.000000  0.000000      1.000000
  0.000000  0.500000  0.000000      1.000000
  0.500000  0.500000  0.000000      1.000000
  0.000000  0.000000  0.500000      1.000000
  0.500000  0.000000  0.500000      1.000000
  0.000000  0.500000  0.500000      1.000000
  0.500000  0.500000  0.500000      1.000000
 
 Following cartesian coordinates:
            Coordinates               Weight
  0.000000  0.000000  0.000000      1.000000
 -0.022857  0.022857  0.022857      1.000000
  0.022857 -0.022857  0.022857      1.000000
  0.000000  0.000000  0.045715      1.000000
  0.022857  0.022857 -0.022857      1.000000
  0.000000  0.045715  0.000000      1.000000
  0.045715  0.000000  0.000000      1.000000
  0.022857  0.022857  0.022857      1.000000
 


--------------------------------------------------------------------------------------------------------




 Dimension of arrays:
   k-points           NKPTS =      8   k-points in BZ     NKDIM =      8   number of bands    NBANDS=    322
   number of dos      NEDOS =    301   number of ions     NIONS =    128
   non local maximal  LDIM  =      4   non local SUM 2l+1 LMDIM =      8
   total plane-waves  NPLWV = ******
   max r-space proj   IRMAX =      1   max aug-charges    IRDMAX= 176811
   dimension x,y,z NGX =   120 NGY =  120 NGZ =  120
   dimension x,y,z NGXF=   240 NGYF=  240 NGZF=  240
   support grid    NGXF=   480 NGYF=  480 NGZF=  480
   ions per type =             128
   NGX,Y,Z   is equivalent  to a cutoff of  12.90, 12.90, 12.90 a.u.
   NGXF,Y,Z  is equivalent  to a cutoff of  25.80, 25.80, 25.80 a.u.

 SYSTEM =  potpaw_PBE@./ARUN.APL1ZEROSTATE         
 POSCAR =  kk                                      

 Startparameter for this run:
   NWRITE =      2    write-flag & timer
   PREC   = accura    normal or accurate (medium, high low for compatibility)
   ISTART =      0    job   : 0-new  1-cont  2-samecut
   ICHARG =      2    charge: 1-file 2-atom 10-const
   ISPIN  =      1    spin polarized calculation?
   LNONCOLLINEAR =      F non collinear calculations
   LSORBIT =      F    spin-orbit coupling
   INIWAV =      1    electr: 0-lowe 1-rand  2-diag
   LASPH  =      F    aspherical Exc in radial PAW
   METAGGA=      F    non-selfconsistent MetaGGA calc.

 Electronic Relaxation 1
   ENCUT  =  500.0 eV  36.75 Ry    6.06 a.u.  28.20 28.20 28.20*2*pi/ulx,y,z
   ENINI  =  500.0     initial cutoff
   ENAUG  =  322.1 eV  augmentation charge cutoff
   NELM   =    120;   NELMIN=  4; NELMDL= -5     # of ELM steps 
   EDIFF  = 0.1E-07   stopping-criterion for ELM
   LREAL  =      F    real-space projection
   NLSPLINE    = F    spline interpolate recip. space projectors
   LCOMPAT=      F    compatible to vasp.4.4
   GGA_COMPAT  = T    GGA compatible to vasp.4.4-vasp.4.6
   LMAXPAW     = -100 max onsite density
   LMAXMIX     =    2 max onsite mixed and CHGCAR
   VOSKOWN=      0    Vosko Wilk Nusair interpolation
   ROPT   =    0.00000
 Ionic relaxation
   EDIFFG = 0.1E-06   stopping-criterion for IOM
   NSW    =      0    number of steps for IOM
   NBLOCK =      1;   KBLOCK =      1    inner block; outer block 
   IBRION =     -1    ionic relax: 0-MD 1-quasi-New 2-CG
   NFREE  =      0    steps in history (QN), initial steepest desc. (CG)
   ISIF   =      2    stress and relaxation
   IWAVPR =     10    prediction:  0-non 1-charg 2-wave 3-comb
   ISYM   =      2    0-nonsym 1-usesym 2-fastsym
   LCORR  =      T    Harris-Foulkes like correction to forces

   POTIM  = 0.5000    time-step for ionic-motion
   TEIN   =    0.0    initial temperature
   TEBEG  =    0.0;   TEEND  =   0.0 temperature during run
   SMASS  =  -3.00    Nose mass-parameter (am)
   estimated Nose-frequenzy (Omega)   =  0.10E-29 period in steps =****** mass=  -0.547E-26a.u.
   SCALEE = 1.0000    scale energy and forces
   NPACO  =    256;   APACO  = 16.0  distance and # of slots for P.C.
   PSTRESS=    0.0 pullay stress

  Mass of Ions in am
   POMASS =  28.09
  Ionic Valenz
   ZVAL   =   4.00
  Atomic Wigner-Seitz radii
   RWIGS  =  -1.00
  virtual crystal weights 
   VCA    =   1.00
   NELECT =     512.0000    total number of electrons
   NUPDOWN=      -1.0000    fix difference up-down

 DOS related values:
   EMIN   =  10.00;   EMAX   =-10.00  energy-range for DOS
   EFERMI =   0.00
   ISMEAR =     0;   SIGMA  =   0.01  broadening in eV -4-tet -1-fermi 0-gaus

 Electronic relaxation 2 (details)
   IALGO  =     38    algorithm
   LDIAG  =      T    sub-space diagonalisation (order eigenvalues)
   LSUBROT=      F    optimize rotation matrix (better conditioning)
   TURBO    =      0    0=normal 1=particle mesh
   IRESTART =      0    0=no restart 2=restart with 2 vectors
   NREBOOT  =      0    no. of reboots
   NMIN     =      0    reboot dimension
   EREF     =   0.00    reference energy to select bands
   IMIX   =      4    mixing-type and parameters
     AMIX     =   0.40;   BMIX     =  1.00
     AMIX_MAG =   1.60;   BMIX_MAG =  1.00
     AMIN     =   0.10
     WC   =   100.;   INIMIX=   1;  MIXPRE=   1;  MAXMIX= -45

 Intra band minimization:
   WEIMIN = 0.0000     energy-eigenvalue tresh-hold
   EBREAK =  0.78E-11  absolut break condition
   DEPER  =   0.30     relativ break condition  

   TIME   =   0.40     timestep for ELM

  volume/ion in A,a.u.               =      20.44       137.96
  Fermi-wavevector in a.u.,A,eV,Ry     =   0.950408  1.796010 12.289804  0.903275
  Thomas-Fermi vector in A             =   2.078782
 
 Write flags
   LWAVE        =      F    write WAVECAR
   LDOWNSAMPLE  =      F    k-point downsampling of WAVECAR
   LCHARG       =      F    write CHGCAR
   LVTOT        =      F    write LOCPOT, total local potential
   LVHAR        =      F    write LOCPOT, Hartree potential only
   LELF         =      F    write electronic localiz. function (ELF)
   LORBIT       =      0    0 simple, 1 ext, 2 COOP (PROOUT), +10 PAW based schemes


 Dipole corrections
   LMONO  =      F    monopole corrections only (constant potential shift)
   LDIPOL =      F    correct potential (dipole corrections)
   IDIPOL =      0    1-x, 2-y, 3-z, 4-all directions 
   EPSILON=  1.0000000 bulk dielectric constant

 Exchange correlation treatment:
   GGA     =    --    GGA type
   LEXCH   =     8    internal setting for exchange type
   VOSKOWN=      0    Vosko Wilk Nusair interpolation
   LHFCALC =     F    Hartree Fock is set to
   LHFONE  =     F    Hartree Fock one center treatment
   AEXX    =    0.0000 exact exchange contribution

 Linear response parameters
   LEPSILON=     F    determine dielectric tensor
   LRPA    =     F    only Hartree local field effects (RPA)
   LNABLA  =     F    use nabla operator in PAW spheres
   LVEL    =     F    velocity operator in full k-point grid
   LINTERFAST=   F  fast interpolation
   KINTER  =     0    interpolate to denser k-point grid
   CSHIFT  =0.1000    complex shift for real part using Kramers Kronig
   OMEGAMAX=  -1.0    maximum frequency
   DEG_THRESHOLD= 0.2000000E-02 threshold for treating states as degnerate
   RTIME   =   -0.100 relaxation time in fs
  (WPLASMAI=    0.000 imaginary part of plasma frequency in eV, 0.658/RTIME)
   DFIELD  = 0.0000000 0.0000000 0.0000000 field for delta impulse in time
 
 Orbital magnetization related:
   ORBITALMAG=     F  switch on orbital magnetization
   LCHIMAG   =     F  perturbation theory with respect to B field
   DQ        =  0.001000  dq finite difference perturbation B field
   LLRAUG    =     F  two centre corrections for induced B field



--------------------------------------------------------------------------------------------------------


 Static calculation
 charge density and potential will be updated during run
 non-spin polarized calculation
 Variant of blocked Davidson
 Davidson routine will perform the subspace rotation
 perform sub-space diagonalisation
    after iterative eigenvector-optimisation
 modified Broyden-mixing scheme, WC =      100.0
 initial mixing is a Kerker type mixing with AMIX =  0.4000 and BMIX =      1.0000
 Hartree-type preconditioning will be used
 using additional bands           66
 reciprocal scheme for non local part
 use partial core corrections
 calculate Harris-corrections to forces 
   (improved forces if not selfconsistent)
 use gradient corrections 
 use of overlap-Matrix (Vanderbilt PP)
 Gauss-broadening in eV      SIGMA  =   0.01


--------------------------------------------------------------------------------------------------------


  energy-cutoff  :      500.00
  volume of cell :     2616.76
      direct lattice vectors                 reciprocal lattice vectors
     0.000000000 10.937333691 10.937333691    -0.045714981  0.045714981  0.045714981
    10.937333691  0.000000000 10.937333691     0.045714981 -0.045714981  0.045714981
    10.937333691 10.937333691  0.000000000     0.045714981  0.045714981 -0.045714981

  length of vectors
    15.467725642 15.467725642 15.467725642     0.079180669  0.079180669  0.079180669


 
 k-points in units of 2pi/SCALE and weight: KPOINTS File, automatically generated by
   0.00000000  0.00000000  0.00000000       0.125
  -0.02285749  0.02285749  0.02285749       0.125
   0.02285749 -0.02285749  0.02285749       0.125
   0.00000000  0.00000000  0.04571498       0.125
   0.02285749  0.02285749 -0.02285749       0.125
   0.00000000  0.04571498  0.00000000       0.125
   0.04571498  0.00000000  0.00000000       0.125
   0.02285749  0.02285749  0.02285749       0.125
 
 k-points in reciprocal lattice and weights: KPOINTS File, automatically generated by
   0.00000000  0.00000000  0.00000000       0.125
   0.50000000  0.00000000  0.00000000       0.125
   0.00000000  0.50000000  0.00000000       0.125
   0.50000000  0.50000000  0.00000000       0.125
   0.00000000  0.00000000  0.50000000       0.125
   0.50000000  0.00000000  0.50000000       0.125
   0.00000000  0.50000000  0.50000000       0.125
   0.50000000  0.50000000  0.50000000       0.125
 
 position of ions in fractional coordinates (direct lattice) 
   0.99882844  0.00440442  0.99254703
   0.25177659  0.99210883  0.00663379
   0.49025427  0.00581060  0.00466224
   0.74759288  0.01469616  0.98724545
   0.00355808  0.24624018  0.00442162
   0.25241468  0.25099816  0.99897431
   0.49296553  0.24368636  0.00948336
   0.75204939  0.24536792  0.00452023
   0.00348513  0.48764967  0.00623127
   0.24050545  0.50628261  0.99566663
   0.49625435  0.49507582  0.01063849
   0.74542052  0.50206287  0.00001870
   0.99250704  0.74378658  0.00716645
   0.25067570  0.75738084  0.99468496
   0.50121415  0.74760383  0.01149150
   0.74883888  0.73767028  0.01838914
   0.99164070  0.01098085  0.25409575
   0.23776398  0.01914589  0.24156178
   0.49610619  0.99619043  0.25778619
   0.73894446  0.00943150  0.25800677
   0.00252884  0.25278709  0.24594722
   0.25495934  0.24954047  0.24928819
   0.50379088  0.24292181  0.25152074
   0.75025968  0.24613869  0.25569610
   0.00105111  0.49663798  0.24875592
   0.25697233  0.49809543  0.24974790
   0.49940271  0.49328806  0.24809363
   0.75003025  0.50160439  0.25057621
   0.98031791  0.75047342  0.26413998
   0.24513681  0.75028751  0.25241647
   0.50593324  0.75156848  0.24760433
   0.74410747  0.74961242  0.25254421
   0.99586837  0.99638628  0.50526411
   0.23828988  0.00287488  0.51248448
   0.51300987  0.98793703  0.50436876
   0.76231946  0.99605537  0.48901179
   0.01216303  0.23778781  0.50043984
   0.25559469  0.25085138  0.49167057
   0.49344042  0.24237753  0.50518978
   0.74674254  0.25117780  0.50541144
   0.00555668  0.49573272  0.49488980
   0.24527833  0.49241945  0.51504896
   0.49574984  0.50000109  0.50039617
   0.77030324  0.50806277  0.49008474
   0.99704760  0.74015887  0.50559922
   0.26621580  0.74537641  0.49363937
   0.51194367  0.73570050  0.49723668
   0.75365149  0.75080201  0.49942407
   0.00018138  0.00136818  0.75356927
   0.25445741  0.99538318  0.74897552
   0.50603861  0.00201255  0.74625934
   0.75214433  0.98897257  0.75823415
   0.00355746  0.25511291  0.74200097
   0.24642852  0.25788934  0.75254084
   0.49703822  0.25267988  0.75458404
   0.75554388  0.25193598  0.74908251
   0.00250603  0.48254040  0.75257253
   0.24807385  0.50292431  0.75252762
   0.50129040  0.49460495  0.74843201
   0.76472791  0.48483516  0.75390807
   0.00077540  0.74418888  0.74963725
   0.24651884  0.74877082  0.75954020
   0.50569896  0.74240172  0.76156073
   0.74655308  0.74892414  0.75841620
   0.07444882  0.06207933  0.04868692
   0.31038349  0.06931063  0.05556348
   0.55902207  0.06012430  0.06437207
   0.80477582  0.06493306  0.07900427
   0.06961480  0.30739244  0.06777293
   0.30970377  0.31700786  0.05425979
   0.55340601  0.31650535  0.05378692
   0.81521813  0.30669822  0.06886759
   0.06805874  0.56744466  0.05760492
   0.31528768  0.54522128  0.07603436
   0.55744479  0.56397075  0.07723856
   0.81819864  0.55293029  0.06686814
   0.06086855  0.80675987  0.07323646
   0.31205083  0.81384610  0.06137004
   0.56364885  0.81100750  0.06817226
   0.81056971  0.81208794  0.07012474
   0.05509405  0.05957195  0.32258224
   0.31708318  0.05689669  0.30759161
   0.56403003  0.05291936  0.30909322
   0.81362865  0.07225961  0.29690265
   0.06216761  0.30099908  0.30955386
   0.31249351  0.31400218  0.30561830
   0.56740062  0.31554785  0.30876351
   0.81408504  0.32538105  0.30362473
   0.05849021  0.57647323  0.30946625
   0.31609385  0.57600850  0.31027321
   0.55904249  0.55970628  0.31274009
   0.82216946  0.56093090  0.31220177
   0.06127910  0.80799469  0.31869992
   0.31091297  0.80524645  0.31332583
   0.56755240  0.80779962  0.30179763
   0.80418664  0.81914349  0.31833540
   0.04565955  0.05543212  0.56928941
   0.31801714  0.06254138  0.55660674
   0.56795580  0.05206067  0.56277180
   0.82361295  0.06134761  0.55694322
   0.06118819  0.31078208  0.56381602
   0.30946013  0.31375028  0.56149406
   0.55975124  0.31980409  0.55664784
   0.81610367  0.31182845  0.56154612
   0.05089633  0.56375963  0.56777955
   0.31138471  0.55414443  0.57016784
   0.55804753  0.56483303  0.56738158
   0.80936548  0.55931078  0.56967739
   0.06281279  0.81041212  0.56749365
   0.31518760  0.80554526  0.57835887
   0.55642513  0.81364755  0.56755185
   0.81288770  0.80347968  0.56463469
   0.07175288  0.06826074  0.80043693
   0.29399009  0.05988147  0.82964205
   0.55890761  0.07035147  0.81227630
   0.81837821  0.06328884  0.79680509
   0.06763968  0.30512124  0.81576587
   0.31889390  0.30569535  0.81735130
   0.56172740  0.31280580  0.80955568
   0.81364653  0.31655789  0.79689258
   0.04970355  0.55553371  0.81683871
   0.31628280  0.56081407  0.81667511
   0.56621103  0.56673094  0.80631678
   0.81865426  0.55694003  0.80644025
   0.06565805  0.81100359  0.81456026
   0.31153132  0.81473072  0.80965053
   0.55826024  0.81059847  0.82382808
   0.82287229  0.80490725  0.81203995
 
 position of ions in cartesian coordinates  (Angst):
  10.90399069 21.78033811 10.97269257
  10.92358129  2.82632059 13.60478993
   0.11454492  5.41306696  5.42562694
  10.95856969 18.97450567  8.33740957
   2.74157177  0.08727671  2.73212692
  13.67136600 13.68685895  5.50599413
   2.76900162  5.49545116  8.05700754
   2.73311013  8.27485439 10.90908597
   5.40174070  0.10627159  5.37170526
  16.42732004 13.52042660  8.16787026
   5.53116615  5.54405621 10.84250886
   5.49143363  8.15311743 13.64414209
   8.21342386 10.93376260 18.99042269
  19.16292832 13.62092511 11.02545070
   8.30247896  5.60763274 13.65873900
   8.26927408  8.39142881 16.25844665
   2.89923113 13.62503523 10.96600644
   2.85144686  5.24254582  2.80990901
  13.71516080  8.24557252 16.32174610
   2.92506170 10.90398836  8.18523769
   5.45482358  2.71766559  2.79247552
   5.45585553  5.51512356  5.51788274
   5.40788319  8.26109528  8.16704594
   5.48873452 11.00247401 10.89794147
   8.15262179  2.73222274  5.44339164
   8.17941204  5.54216827  8.25842808
   8.10873896  8.17561691 10.85739024
   8.22685025 10.94396680 13.68954572
  11.09716536 13.61105125 18.93024236
  10.96690796  5.44190624 10.88728792
  10.92828649  8.24169189 13.75371594
  10.96092154 10.90071204 16.33731292
  16.42405134 16.41838680 21.78995389
   5.63665732  8.21146976  2.63769953
  16.32184641 11.12740948 16.41635710
  16.24267503 13.68622736 19.23193222
   8.07424222  5.60650868  2.73379581
   8.12121040  8.17308952  5.53916970
   8.17639317 10.92235175  8.04788648
   8.27506896 13.69522588 10.91458778
  10.83476905  5.47355017  5.48276938
  11.01901817  8.31595326  8.06844671
  10.94167868 10.89518134 10.89086030
  10.91707242 13.78528393 13.98191565
  13.62527189 16.43494963 19.00040682
  13.55152905  8.31078953 11.06412161
  13.48504533 11.03774216 13.64590061
  13.67413984 13.70530555 16.45470990
   8.25700279  8.24402245  0.01694807
  19.07863320 10.97488083 13.66992367
   8.18409935 13.69680063  5.55672506
  19.10978294 16.51951350 19.04317655
  10.90576723  8.15442137  2.82916413
  11.05141201 10.92606122  5.51589267
  11.01678163 13.68941033  8.19991697
  10.94847328 16.45660097 11.01914345
  13.50884227  8.25854620  5.30511471
  13.73129666 10.94391220  8.21391749
  13.59551004 13.66863099 10.89243978
  13.54854806 16.60982850 13.66688820
  16.33847484  8.20751353  8.14792296
  16.49690088 11.00360348 10.88581512
  16.44933928 13.86044211 13.65089363
  16.48628429 16.46035126 16.35653343
   1.21148748  1.34677672  1.49325398
   1.36578984  4.00248416  4.15284138
   1.36165840  6.81826970  6.77181043
   1.57429062  9.66619777  9.51229622
   4.10330890  1.50265546  4.12345404
   4.06067815  3.98079087  6.85455424
   4.05001008  6.64107164  9.51451076
   4.10768858  9.66954048 12.27077354
   6.83637578  1.37442530  6.95071272
   6.79488023  4.28001972  9.41167356
   7.01312014  6.94174361 12.26529597
   6.77894223  9.68027074 14.99649468
   9.62481352  1.46675124  9.48954157
   9.57253103  4.08422862 12.31431044
   9.61588244  6.91043827 15.03507523
   9.64905444  9.63244905 17.74754817
   4.17974787  4.13077158  1.25414033
   3.98653017  6.83227662  4.09034257
   3.95945238  9.54964026  6.74778133
   4.03765080 12.14625136  9.68925545
   6.67782118  4.06564177  3.97207526
   6.77699592  6.76049510  6.85219245
   6.82830165  9.58289946  9.65710204
   6.87964614 12.22476478 12.46272084
   9.68981568  4.02446260  6.94480699
   9.69355881  6.85078560  9.75722106
   9.54223705  9.53497698 12.23612867
   9.54974338 12.40699668 15.12743010
  12.32303502  4.15595734  9.50753752
  12.23419821  6.82750799 12.20780795
  12.13603537  9.50837140 15.04268403
  12.44098618 12.27739811 17.75490328
   6.83278780  6.72590201  1.10567335
   6.77182952  9.56605324  4.16229553
   6.72462783 12.36714502  6.78132693
   6.76245310 15.09960353  9.67910897
   9.56577119  6.83587956  4.06836296
   9.57283945  9.52591664  6.81626024
   9.58604718 12.21042923  9.61999006
   9.55238912 15.06781552 12.33656999
  12.37602165  6.76666457  6.72269737
  12.29697845  9.64183438  9.46658095
  12.38340903 12.30919376 12.28131943
  12.34812035 15.08305196 14.96966896
  15.07061523  6.89387181  9.55075226
  15.13622126  9.77301596 12.25782926
  15.10663874 12.29331130 14.98494206
  14.96352331 15.06642205 17.67874942
   9.50123634  9.53943101  1.53137567
   9.72901555 12.28953966  3.87041132
   9.65359450 14.99709600  6.88241657
   9.40713441 17.66579882  9.64308682
  12.25951635  9.66210131  4.07701061
  12.28313589 12.42749286  6.83134097
  12.27564212 14.99818068  9.56506148
  12.17817932 17.61500374 12.36142286
  15.01009506  9.47766188  6.61968185
  15.06605886 12.39153874  9.59310114
  15.01748110 15.01179467 12.39136431
  14.91174505 17.77420091 15.04533368
  17.77933419  9.62724136  9.58834088
  17.76639980 12.26274000 12.31830374
  17.87626860 15.11636116 14.97166446
  17.68509112 17.88158068 17.80356801
 


--------------------------------------------------------------------------------------------------------


 k-point  1 :   0.0000 0.0000 0.0000  plane waves:   66299
 k-point  2 :   0.5000 0.0000 0.0000  plane waves:   66394
 k-point  3 :   0.0000 0.5000 0.0000  plane waves:   66394
 k-point  4 :   0.5000 0.5000 0.0000  plane waves:   66552
 k-point  5 :   0.0000 0.0000 0.5000  plane waves:   66394
 k-point  6 :   0.5000 0.0000 0.5000  plane waves:   66552
 k-point  7 :   0.0000 0.5000 0.5000  plane waves:   66552
 k-point  8 :   0.5000 0.5000 0.5000  plane waves:   66394

 maximum and minimum number of plane-waves per node :      4207     4110

 maximum number of plane-waves:     66552
 maximum index in each direction: 
   IXMAX=   28   IYMAX=   28   IZMAX=   28
   IXMIN=  -28   IYMIN=  -28   IZMIN=  -28


 parallel 3D FFT for wavefunctions:
    minimum data exchange during FFTs selected (reduces bandwidth)
 parallel 3D FFT for charge:
    minimum data exchange during FFTs selected (reduces bandwidth)


 total amount of memory used by VASP MPI-rank0   221701. kBytes
=======================================================================

   base      :      30000. kBytes
   nonl-proj :      10690. kBytes
   fftplans  :      66746. kBytes
   grid      :      26864. kBytes
   one-center:         24. kBytes
   wavefun   :      87377. kBytes
 
     INWAV:  cpu time    0.0000: real time    0.0002
 Broyden mixing: mesh for mixing (old mesh)
   NGX = 57   NGY = 57   NGZ = 57
  (NGX  =240   NGY  =240   NGZ  =240)
  gives a total of 185193 points

 initial charge density was supplied:
 charge density of overlapping atoms calculated
 number of electron     512.0000000 magnetization 
 keeping initial charge density in first step


--------------------------------------------------------------------------------------------------------


 Maximum index for augmentation-charges         5605 (set IRDMAX)


--------------------------------------------------------------------------------------------------------


 First call to EWALD:  gamma=   0.129
 Maximum number of real-space cells 3x 3x 3
 Maximum number of reciprocal cells 3x 3x 3

    FEWALD:  cpu time    0.0059: real time    0.0059


--------------------------------------- Iteration      1(   1)  ---------------------------------------


    POTLOK:  cpu time    0.4890: real time    0.4988
    SETDIJ:  cpu time    0.5107: real time    0.5107
     EDDAV:  cpu time   69.5032: real time   69.5228
       DOS:  cpu time    0.0026: real time    0.0026
    --------------------------------------------
      LOOP:  cpu time   70.5056: real time   70.5349

 eigenvalue-minimisations  :  5152
 total energy-change (2. order) : 0.1383251E+04  (-0.1908172E+05)
 number of electron     512.0000000 magnetization 
 augmentation part      512.0000000 magnetization 

 Free energy of the ion-electron system (eV)
  ---------------------------------------------------
  alpha Z        PSCENC =       210.77028614
  Ewald energy   TEWEN  =    -14470.42590537
  -Hartree energ DENC   =      -758.14713910
  -exchange      EXHF   =         0.00000000
  -V(xc)+E(xc)   XCENC  =     -1195.34697998
  PAW double counting   =      4221.13331941    -1969.18571412
  entropy T*S    EENTRO =        -0.00103628
  eigenvalues    EBANDS =      2151.97290472
  atomic energy  EATOM  =     13192.48085998
  Solvation  Ediel_sol  =         0.00000000
  ---------------------------------------------------
  free energy    TOTEN  =      1383.25059542 eV

  energy without entropy =     1383.25163170  energy(sigma->0) =     1383.25111356


--------------------------------------------------------------------------------------------------------




--------------------------------------- Iteration      1(   2)  ---------------------------------------


     EDDAV:  cpu time   78.6636: real time   78.6742
       DOS:  cpu time    0.0036: real time    0.0036
    --------------------------------------------
      LOOP:  cpu time   78.6671: real time   78.6777

 eigenvalue-minimisations  :  6088
 total energy-change (2. order) :-0.1919094E+04  (-0.1824294E+04)
 number of electron     512.0000000 magnetization 
 augmentation part      512.0000000 magnetization 

 Free energy of the ion-electron system (eV)
  ---------------------------------------------------
  alpha Z        PSCENC =       210.77028614
  Ewald energy   TEWEN  =    -14470.42590537
  -Hartree energ DENC   =      -758.14713910
  -exchange      EXHF   =         0.00000000
  -V(xc)+E(xc)   XCENC  =     -1195.34697998
  PAW double counting   =      4221.13331941    -1969.18571412
  entropy T*S    EENTRO =        -0.00000001
  eigenvalues    EBANDS =       232.87782441
  atomic energy  EATOM  =     13192.48085998
  Solvation  Ediel_sol  =         0.00000000
  ---------------------------------------------------
  free energy    TOTEN  =      -535.84344862 eV

  energy without entropy =     -535.84344861  energy(sigma->0) =     -535.84344862


--------------------------------------------------------------------------------------------------------




--------------------------------------- Iteration      1(   3)  ---------------------------------------


     EDDAV:  cpu time   80.9937: real time   81.0125
       DOS:  cpu time    0.0018: real time    0.0018
    --------------------------------------------
      LOOP:  cpu time   80.9955: real time   81.0142

 eigenvalue-minimisations  :  6328
 total energy-change (2. order) :-0.1510532E+03  (-0.1480394E+03)
 number of electron     512.0000000 magnetization 
 augmentation part      512.0000000 magnetization 

 Free energy of the ion-electron system (eV)
  ---------------------------------------------------
  alpha Z        PSCENC =       210.77028614
  Ewald energy   TEWEN  =    -14470.42590537
  -Hartree energ DENC   =      -758.14713910
  -exchange      EXHF   =         0.00000000
  -V(xc)+E(xc)   XCENC  =     -1195.34697998
  PAW double counting   =      4221.13331941    -1969.18571412
  entropy T*S    EENTRO =        -0.00000000
  eigenvalues    EBANDS =        81.82460955
  atomic energy  EATOM  =     13192.48085998
  Solvation  Ediel_sol  =         0.00000000
  ---------------------------------------------------
  free energy    TOTEN  =      -686.89666347 eV

  energy without entropy =     -686.89666347  energy(sigma->0) =     -686.89666347


--------------------------------------------------------------------------------------------------------




--------------------------------------- Iteration      1(   4)  ---------------------------------------


     EDDAV:  cpu time   79.7606: real time   79.7746
       DOS:  cpu time    0.0010: real time    0.0010
    --------------------------------------------
      LOOP:  cpu time   79.7616: real time   79.7757

 eigenvalue-minimisations  :  6200
 total energy-change (2. order) :-0.4227790E+01  (-0.4195392E+01)
 number of electron     512.0000000 magnetization 
 augmentation part      512.0000000 magnetization 

 Free energy of the ion-electron system (eV)
  ---------------------------------------------------
  alpha Z        PSCENC =       210.77028614
  Ewald energy   TEWEN  =    -14470.42590537
  -Hartree energ DENC   =      -758.14713910
  -exchange      EXHF   =         0.00000000
  -V(xc)+E(xc)   XCENC  =     -1195.34697998
  PAW double counting   =      4221.13331941    -1969.18571412
  entropy T*S    EENTRO =        -0.00000000
  eigenvalues    EBANDS =        77.59681926
  atomic energy  EATOM  =     13192.48085998
  Solvation  Ediel_sol  =         0.00000000
  ---------------------------------------------------
  free energy    TOTEN  =      -691.12445376 eV

  energy without entropy =     -691.12445376  energy(sigma->0) =     -691.12445376


--------------------------------------------------------------------------------------------------------




--------------------------------------- Iteration      1(   5)  ---------------------------------------


     EDDAV:  cpu time   80.9522: real time   80.9739
       DOS:  cpu time    0.0015: real time    0.0015
    CHARGE:  cpu time    3.2327: real time    3.2331
    MIXING:  cpu time    0.0288: real time    0.0288
    --------------------------------------------
      LOOP:  cpu time   84.2152: real time   84.2373

 eigenvalue-minimisations  :  6328
 total energy-change (2. order) :-0.1415120E+00  (-0.1411156E+00)
 number of electron     511.9999998 magnetization 
 augmentation part      -30.1766732 magnetization 

 Broyden mixing:
  rms(total) = 0.23959E+01    rms(broyden)= 0.23959E+01
  rms(prec ) = 0.29045E+01
  weight for this iteration     100.00

 Free energy of the ion-electron system (eV)
  ---------------------------------------------------
  alpha Z        PSCENC =       210.77028614
  Ewald energy   TEWEN  =    -14470.42590537
  -Hartree energ DENC   =      -758.14713910
  -exchange      EXHF   =         0.00000000
  -V(xc)+E(xc)   XCENC  =     -1195.34697998
  PAW double counting   =      4221.13331941    -1969.18571412
  entropy T*S    EENTRO =        -0.00000000
  eigenvalues    EBANDS =        77.45530725
  atomic energy  EATOM  =     13192.48085998
  Solvation  Ediel_sol  =         0.00000000
  ---------------------------------------------------
  free energy    TOTEN  =      -691.26596577 eV

  energy without entropy =     -691.26596577  energy(sigma->0) =     -691.26596577


--------------------------------------------------------------------------------------------------------




--------------------------------------- Iteration      1(   6)  ---------------------------------------


    POTLOK:  cpu time    0.4892: real time    0.4907
    SETDIJ:  cpu time    0.5048: real time    0.5048
     EDDAV:  cpu time   76.7201: real time   76.7368
       DOS:  cpu time    0.0010: real time    0.0010
    CHARGE:  cpu time    3.2224: real time    3.2228
    MIXING:  cpu time    0.0319: real time    0.0319
    --------------------------------------------
      LOOP:  cpu time   80.9694: real time   80.9880

 eigenvalue-minimisations  :  5912
 total energy-change (2. order) : 0.8462128E+01  (-0.5919251E+00)
 number of electron     511.9999998 magnetization 
 augmentation part      -29.8372793 magnetization 

 Broyden mixing:
  rms(total) = 0.14235E+01    rms(broyden)= 0.14235E+01
  rms(prec ) = 0.17156E+01
  weight for this iteration     100.00

 eigenvalues of (default mixing * dielectric matrix)
  average eigenvalue GAMMA=   2.4297
  2.4297

 Free energy of the ion-electron system (eV)
  ---------------------------------------------------
  alpha Z        PSCENC =       210.77028614
  Ewald energy   TEWEN  =    -14470.42590537
  -Hartree energ DENC   =      -853.44963807
  -exchange      EXHF   =         0.00000000
  -V(xc)+E(xc)   XCENC  =     -1180.71116915
  PAW double counting   =      4465.32778955    -2220.13725201
  entropy T*S    EENTRO =        -0.00000000
  eigenvalues    EBANDS =       173.34119160
  atomic energy  EATOM  =     13192.48085998
  Solvation  Ediel_sol  =         0.00000000
  ---------------------------------------------------
  free energy    TOTEN  =      -682.80383733 eV

  energy without entropy =     -682.80383733  energy(sigma->0) =     -682.80383733


--------------------------------------------------------------------------------------------------------




--------------------------------------- Iteration      1(   7)  ---------------------------------------


    POTLOK:  cpu time    0.4920: real time    0.4928
    SETDIJ:  cpu time    0.5022: real time    0.5022
     EDDAV:  cpu time   76.1933: real time   76.2080
       DOS:  cpu time    0.0011: real time    0.0011
    CHARGE:  cpu time    3.2268: real time    3.2271
    MIXING:  cpu time    0.0202: real time    0.0202
    --------------------------------------------
      LOOP:  cpu time   80.4356: real time   80.4513

 eigenvalue-minimisations  :  5856
 total energy-change (2. order) : 0.3521141E+01  (-0.1125856E+01)
 number of electron     511.9999998 magnetization 
 augmentation part      -29.3868283 magnetization 

 Broyden mixing:
  rms(total) = 0.15675E+00    rms(broyden)= 0.15675E+00
  rms(prec ) = 0.20422E+00
  weight for this iteration     100.00

 eigenvalues of (default mixing * dielectric matrix)
  average eigenvalue GAMMA=   2.0815
  2.0815  2.0815

 Free energy of the ion-electron system (eV)
  ---------------------------------------------------
  alpha Z        PSCENC =       210.77028614
  Ewald energy   TEWEN  =    -14470.42590537
  -Hartree energ DENC   =     -1003.54341208
  -exchange      EXHF   =         0.00000000
  -V(xc)+E(xc)   XCENC  =     -1156.85560360
  PAW double counting   =      4783.94997383    -2547.25738528
  entropy T*S    EENTRO =        -0.00000000
  eigenvalues    EBANDS =       311.59848974
  atomic energy  EATOM  =     13192.48085998
  Solvation  Ediel_sol  =         0.00000000
  ---------------------------------------------------
  free energy    TOTEN  =      -679.28269663 eV

  energy without entropy =     -679.28269663  energy(sigma->0) =     -679.28269663


--------------------------------------------------------------------------------------------------------




--------------------------------------- Iteration      1(   8)  ---------------------------------------


    POTLOK:  cpu time    0.4909: real time    0.4914
    SETDIJ:  cpu time    0.5020: real time    0.5022
     EDDAV:  cpu time   75.8609: real time   75.8808
       DOS:  cpu time    0.0011: real time    0.0011
    CHARGE:  cpu time    3.1573: real time    3.1575
    MIXING:  cpu time    0.0238: real time    0.0238
    --------------------------------------------
      LOOP:  cpu time   80.0360: real time   80.0569

 eigenvalue-minimisations  :  5832
 total energy-change (2. order) :-0.5275030E-01  (-0.1041229E+00)
 number of electron     511.9999998 magnetization 
 augmentation part      -29.4542712 magnetization 

 Broyden mixing:
  rms(total) = 0.63810E-01    rms(broyden)= 0.63809E-01
  rms(prec ) = 0.78659E-01
  weight for this iteration     100.00

 eigenvalues of (default mixing * dielectric matrix)
  average eigenvalue GAMMA=   1.9993
  2.6709  1.6635  1.6635

 Free energy of the ion-electron system (eV)
  ---------------------------------------------------
  alpha Z        PSCENC =       210.77028614
  Ewald energy   TEWEN  =    -14470.42590537
  -Hartree energ DENC   =      -997.58663610
  -exchange      EXHF   =         0.00000000
  -V(xc)+E(xc)   XCENC  =     -1156.89522512
  PAW double counting   =      4738.79649874    -2500.69578830
  entropy T*S    EENTRO =        -0.00000000
  eigenvalues    EBANDS =       304.22046310
  atomic energy  EATOM  =     13192.48085998
  Solvation  Ediel_sol  =         0.00000000
  ---------------------------------------------------
  free energy    TOTEN  =      -679.33544693 eV

  energy without entropy =     -679.33544693  energy(sigma->0) =     -679.33544693


--------------------------------------------------------------------------------------------------------




--------------------------------------- Iteration      1(   9)  ---------------------------------------


    POTLOK:  cpu time    0.4931: real time    0.4960
    SETDIJ:  cpu time    0.5063: real time    0.5065
     EDDAV:  cpu time   78.3240: real time   78.3435
       DOS:  cpu time    0.0011: real time    0.0011
    CHARGE:  cpu time    3.1594: real time    3.1628
    MIXING:  cpu time    0.0184: real time    0.0184
    --------------------------------------------
      LOOP:  cpu time   82.5024: real time   82.5283

 eigenvalue-minimisations  :  6080
 total energy-change (2. order) :-0.2391596E-01  (-0.1103061E-01)
 number of electron     511.9999998 magnetization 
 augmentation part      -29.4613697 magnetization 

 Broyden mixing:
  rms(total) = 0.27570E-01    rms(broyden)= 0.27570E-01
  rms(prec ) = 0.32259E-01
  weight for this iteration     100.00

 eigenvalues of (default mixing * dielectric matrix)
  average eigenvalue GAMMA=   1.7713
  2.5930  1.8089  1.8089  0.8743

 Free energy of the ion-electron system (eV)
  ---------------------------------------------------
  alpha Z        PSCENC =       210.77028614
  Ewald energy   TEWEN  =    -14470.42590537
  -Hartree energ DENC   =     -1003.84780333
  -exchange      EXHF   =         0.00000000
  -V(xc)+E(xc)   XCENC  =     -1155.76721249
  PAW double counting   =      4739.81298385    -2501.73347365
  entropy T*S    EENTRO =        -0.00000000
  eigenvalues    EBANDS =       309.35090197
  atomic energy  EATOM  =     13192.48085998
  Solvation  Ediel_sol  =         0.00000000
  ---------------------------------------------------
  free energy    TOTEN  =      -679.35936289 eV

  energy without entropy =     -679.35936289  energy(sigma->0) =     -679.35936289


--------------------------------------------------------------------------------------------------------




--------------------------------------- Iteration      1(  10)  ---------------------------------------


    POTLOK:  cpu time    0.4883: real time    0.4901
    SETDIJ:  cpu time    0.5070: real time    0.5070
     EDDAV:  cpu time   77.9704: real time   77.9897
       DOS:  cpu time    0.0011: real time    0.0011
    CHARGE:  cpu time    3.1462: real time    3.1464
    MIXING:  cpu time    0.0265: real time    0.0267
    --------------------------------------------
      LOOP:  cpu time   82.1395: real time   82.1611

 eigenvalue-minimisations  :  6048
 total energy-change (2. order) :-0.2395778E-02  (-0.7812831E-03)
 number of electron     511.9999998 magnetization 
 augmentation part      -29.4697963 magnetization 

 Broyden mixing:
  rms(total) = 0.11807E-01    rms(broyden)= 0.11807E-01
  rms(prec ) = 0.14136E-01
  weight for this iteration     100.00

 eigenvalues of (default mixing * dielectric matrix)
  average eigenvalue GAMMA=   1.8460
  2.6605  2.6605  1.4977  1.4977  0.9138

 Free energy of the ion-electron system (eV)
  ---------------------------------------------------
  alpha Z        PSCENC =       210.77028614
  Ewald energy   TEWEN  =    -14470.42590537
  -Hartree energ DENC   =     -1002.91122524
  -exchange      EXHF   =         0.00000000
  -V(xc)+E(xc)   XCENC  =     -1155.91374691
  PAW double counting   =      4733.48065911    -2495.24583878
  entropy T*S    EENTRO =        -0.00000000
  eigenvalues    EBANDS =       308.40315239
  atomic energy  EATOM  =     13192.48085998
  Solvation  Ediel_sol  =         0.00000000
  ---------------------------------------------------
  free energy    TOTEN  =      -679.36175867 eV

  energy without entropy =     -679.36175867  energy(sigma->0) =     -679.36175867


--------------------------------------------------------------------------------------------------------




--------------------------------------- Iteration      1(  11)  ---------------------------------------


    POTLOK:  cpu time    0.4890: real time    0.4907
    SETDIJ:  cpu time    0.5124: real time    0.5125
     EDDAV:  cpu time   75.3060: real time   75.3170
       DOS:  cpu time    0.0011: real time    0.0011
    CHARGE:  cpu time    3.1820: real time    3.1823
    MIXING:  cpu time    0.0258: real time    0.0258
    --------------------------------------------
      LOOP:  cpu time   79.5163: real time   79.5293

 eigenvalue-minimisations  :  5752
 total energy-change (2. order) :-0.1617465E-02  (-0.2515618E-03)
 number of electron     511.9999998 magnetization 
 augmentation part      -29.4724504 magnetization 

 Broyden mixing:
  rms(total) = 0.35800E-02    rms(broyden)= 0.35799E-02
  rms(prec ) = 0.50489E-02
  weight for this iteration     100.00

 eigenvalues of (default mixing * dielectric matrix)
  average eigenvalue GAMMA=   1.7650
  2.8411  2.0521  1.9181  1.6388  0.8840  1.2559

 Free energy of the ion-electron system (eV)
  ---------------------------------------------------
  alpha Z        PSCENC =       210.77028614
  Ewald energy   TEWEN  =    -14470.42590537
  -Hartree energ DENC   =     -1002.87646950
  -exchange      EXHF   =         0.00000000
  -V(xc)+E(xc)   XCENC  =     -1155.91753960
  PAW double counting   =      4729.15156130    -2490.81765935
  entropy T*S    EENTRO =        -0.00000000
  eigenvalues    EBANDS =       308.27149026
  atomic energy  EATOM  =     13192.48085998
  Solvation  Ediel_sol  =         0.00000000
  ---------------------------------------------------
  free energy    TOTEN  =      -679.36337613 eV

  energy without entropy =     -679.36337613  energy(sigma->0) =     -679.36337613


--------------------------------------------------------------------------------------------------------




--------------------------------------- Iteration      1(  12)  ---------------------------------------


    POTLOK:  cpu time    0.4897: real time    0.4904
    SETDIJ:  cpu time    0.5082: real time    0.5082
     EDDAV:  cpu time   79.1828: real time   79.2082
       DOS:  cpu time    0.0010: real time    0.0010
    CHARGE:  cpu time    3.1776: real time    3.1780
    MIXING:  cpu time    0.0305: real time    0.0305
    --------------------------------------------
      LOOP:  cpu time   83.3898: real time   83.4162

 eigenvalue-minimisations  :  6152
 total energy-change (2. order) :-0.8940972E-04  (-0.4105207E-04)
 number of electron     511.9999998 magnetization 
 augmentation part      -29.4707205 magnetization 

 Broyden mixing:
  rms(total) = 0.17651E-02    rms(broyden)= 0.17651E-02
  rms(prec ) = 0.21179E-02
  weight for this iteration     100.00

 eigenvalues of (default mixing * dielectric matrix)
  average eigenvalue GAMMA=   1.8402
  3.1824  2.7010  1.7613  1.7613  0.8972  1.2892  1.2892

 Free energy of the ion-electron system (eV)
  ---------------------------------------------------
  alpha Z        PSCENC =       210.77028614
  Ewald energy   TEWEN  =    -14470.42590537
  -Hartree energ DENC   =     -1003.44251281
  -exchange      EXHF   =         0.00000000
  -V(xc)+E(xc)   XCENC  =     -1155.85459140
  PAW double counting   =      4730.19227362    -2491.89534970
  entropy T*S    EENTRO =        -0.00000000
  eigenvalues    EBANDS =       308.81147399
  atomic energy  EATOM  =     13192.48085998
  Solvation  Ediel_sol  =         0.00000000
  ---------------------------------------------------
  free energy    TOTEN  =      -679.36346554 eV

  energy without entropy =     -679.36346554  energy(sigma->0) =     -679.36346554


--------------------------------------------------------------------------------------------------------




--------------------------------------- Iteration      1(  13)  ---------------------------------------


    POTLOK:  cpu time    0.4907: real time    0.6328
    SETDIJ:  cpu time    0.5067: real time    0.5069
     EDDAV:  cpu time   75.5073: real time   75.5266
       DOS:  cpu time    0.0010: real time    0.0010
    CHARGE:  cpu time    3.1504: real time    3.1509
    MIXING:  cpu time    0.0208: real time    0.0208
    --------------------------------------------
      LOOP:  cpu time   79.6769: real time   79.8391

 eigenvalue-minimisations  :  5776
 total energy-change (2. order) :-0.2933000E-04  (-0.1087949E-04)
 number of electron     511.9999998 magnetization 
 augmentation part      -29.4707216 magnetization 

 Broyden mixing:
  rms(total) = 0.65500E-03    rms(broyden)= 0.65498E-03
  rms(prec ) = 0.83330E-03
  weight for this iteration     100.00

 eigenvalues of (default mixing * dielectric matrix)
  average eigenvalue GAMMA=   1.7759
  3.1633  2.5640  1.9009  1.9009  1.3968  1.3968  0.9423  0.9423

 Free energy of the ion-electron system (eV)
  ---------------------------------------------------
  alpha Z        PSCENC =       210.77028614
  Ewald energy   TEWEN  =    -14470.42590537
  -Hartree energ DENC   =     -1003.43746668
  -exchange      EXHF   =         0.00000000
  -V(xc)+E(xc)   XCENC  =     -1155.86569903
  PAW double counting   =      4729.62645732    -2491.31847531
  entropy T*S    EENTRO =        -0.00000000
  eigenvalues    EBANDS =       308.80644807
  atomic energy  EATOM  =     13192.48085998
  Solvation  Ediel_sol  =         0.00000000
  ---------------------------------------------------
  free energy    TOTEN  =      -679.36349487 eV

  energy without entropy =     -679.36349487  energy(sigma->0) =     -679.36349487


--------------------------------------------------------------------------------------------------------




--------------------------------------- Iteration      1(  14)  ---------------------------------------


    POTLOK:  cpu time    0.4907: real time    0.4922
    SETDIJ:  cpu time    0.5066: real time    0.5066
     EDDAV:  cpu time   78.8873: real time   78.9098
       DOS:  cpu time    0.0011: real time    0.0011
    CHARGE:  cpu time    3.1233: real time    3.1236
    MIXING:  cpu time    0.0355: real time    0.0355
    --------------------------------------------
      LOOP:  cpu time   83.0445: real time   83.0688

 eigenvalue-minimisations  :  6128
 total energy-change (2. order) :-0.5605132E-05  (-0.9328065E-06)
 number of electron     511.9999998 magnetization 
 augmentation part      -29.4705309 magnetization 

 Broyden mixing:
  rms(total) = 0.17441E-03    rms(broyden)= 0.17434E-03
  rms(prec ) = 0.23918E-03
  weight for this iteration     100.00

 eigenvalues of (default mixing * dielectric matrix)
  average eigenvalue GAMMA=   1.7754
  3.2073  2.5948  2.2156  1.6790  1.6790  1.3353  1.3353  1.0012  0.9312

 Free energy of the ion-electron system (eV)
  ---------------------------------------------------
  alpha Z        PSCENC =       210.77028614
  Ewald energy   TEWEN  =    -14470.42590537
  -Hartree energ DENC   =     -1003.49812991
  -exchange      EXHF   =         0.00000000
  -V(xc)+E(xc)   XCENC  =     -1155.85728218
  PAW double counting   =      4729.82303380    -2491.51956205
  entropy T*S    EENTRO =        -0.00000000
  eigenvalues    EBANDS =       308.86319910
  atomic energy  EATOM  =     13192.48085998
  Solvation  Ediel_sol  =         0.00000000
  ---------------------------------------------------
  free energy    TOTEN  =      -679.36350048 eV

  energy without entropy =     -679.36350048  energy(sigma->0) =     -679.36350048


--------------------------------------------------------------------------------------------------------




--------------------------------------- Iteration      1(  15)  ---------------------------------------


    POTLOK:  cpu time    0.4880: real time    0.4920
    SETDIJ:  cpu time    0.5055: real time    0.5055
     EDDAV:  cpu time   80.0213: real time   80.0355
       DOS:  cpu time    0.0012: real time    0.0012
    CHARGE:  cpu time    3.1369: real time    3.1374
    MIXING:  cpu time    0.0344: real time    0.0344
    --------------------------------------------
      LOOP:  cpu time   84.1872: real time   84.2059

 eigenvalue-minimisations  :  6248
 total energy-change (2. order) :-0.3189736E-05  (-0.1341196E-06)
 number of electron     511.9999998 magnetization 
 augmentation part      -29.4704211 magnetization 

 Broyden mixing:
  rms(total) = 0.66115E-04    rms(broyden)= 0.65935E-04
  rms(prec ) = 0.88365E-04
  weight for this iteration     100.00

 eigenvalues of (default mixing * dielectric matrix)
  average eigenvalue GAMMA=   1.7313
  3.2692  2.6171  2.0243  1.7289  1.7289  1.4825  1.4825  0.9300  0.9300  1.1201

 Free energy of the ion-electron system (eV)
  ---------------------------------------------------
  alpha Z        PSCENC =       210.77028614
  Ewald energy   TEWEN  =    -14470.42590537
  -Hartree energ DENC   =     -1003.51969590
  -exchange      EXHF   =         0.00000000
  -V(xc)+E(xc)   XCENC  =     -1155.85599871
  PAW double counting   =      4729.88940002    -2491.58783119
  entropy T*S    EENTRO =        -0.00000000
  eigenvalues    EBANDS =       308.88538135
  atomic energy  EATOM  =     13192.48085998
  Solvation  Ediel_sol  =         0.00000000
  ---------------------------------------------------
  free energy    TOTEN  =      -679.36350367 eV

  energy without entropy =     -679.36350367  energy(sigma->0) =     -679.36350367


--------------------------------------------------------------------------------------------------------




--------------------------------------- Iteration      1(  16)  ---------------------------------------


    POTLOK:  cpu time    0.4893: real time    0.4910
    SETDIJ:  cpu time    0.5058: real time    0.5059
     EDDAV:  cpu time   77.4719: real time   77.4928
       DOS:  cpu time    0.0015: real time    0.0014
    CHARGE:  cpu time    3.0278: real time    3.0281
    MIXING:  cpu time    0.0349: real time    0.0349
    --------------------------------------------
      LOOP:  cpu time   81.5312: real time   81.5541

 eigenvalue-minimisations  :  6000
 total energy-change (2. order) : 0.5289239E-06  (-0.2329470E-07)
 number of electron     511.9999998 magnetization 
 augmentation part      -29.4704250 magnetization 

 Broyden mixing:
  rms(total) = 0.28649E-04    rms(broyden)= 0.28231E-04
  rms(prec ) = 0.36422E-04
  weight for this iteration     100.00

 eigenvalues of (default mixing * dielectric matrix)
  average eigenvalue GAMMA=   1.7069
  3.2788  2.6181  2.0532  2.0532  1.4392  1.4392  1.4643  1.4643  0.9144  1.0254
  1.0254

 Free energy of the ion-electron system (eV)
  ---------------------------------------------------
  alpha Z        PSCENC =       210.77028614
  Ewald energy   TEWEN  =    -14470.42590537
  -Hartree energ DENC   =     -1003.51833735
  -exchange      EXHF   =         0.00000000
  -V(xc)+E(xc)   XCENC  =     -1155.85609004
  PAW double counting   =      4729.88099128    -2491.57898754
  entropy T*S    EENTRO =        -0.00000000
  eigenvalues    EBANDS =       308.88367975
  atomic energy  EATOM  =     13192.48085998
  Solvation  Ediel_sol  =         0.00000000
  ---------------------------------------------------
  free energy    TOTEN  =      -679.36350314 eV

  energy without entropy =     -679.36350314  energy(sigma->0) =     -679.36350314


--------------------------------------------------------------------------------------------------------




--------------------------------------- Iteration      1(  17)  ---------------------------------------


    POTLOK:  cpu time    0.4887: real time    0.4919
    SETDIJ:  cpu time    0.5034: real time    0.5034
     EDDAV:  cpu time   57.1105: real time   57.1204
       DOS:  cpu time    0.0011: real time    0.0011
    CHARGE:  cpu time    3.0242: real time    3.0246
    MIXING:  cpu time    0.0313: real time    0.0313
    --------------------------------------------
      LOOP:  cpu time   61.1592: real time   61.1727

 eigenvalue-minimisations  :  3920
 total energy-change (2. order) :-0.6135269E-07  (-0.2734270E-08)
 number of electron     511.9999998 magnetization 
 augmentation part      -29.4704234 magnetization 

 Broyden mixing:
  rms(total) = 0.13199E-04    rms(broyden)= 0.12265E-04
  rms(prec ) = 0.15507E-04
  weight for this iteration     100.00

 eigenvalues of (default mixing * dielectric matrix)
  average eigenvalue GAMMA=   1.7210
  3.3017  2.6209  2.3647  1.9264  1.9264  1.4071  1.4071  1.3500  1.3500  0.9262
  1.0142  1.0573

 Free energy of the ion-electron system (eV)
  ---------------------------------------------------
  alpha Z        PSCENC =       210.77028614
  Ewald energy   TEWEN  =    -14470.42590537
  -Hartree energ DENC   =     -1003.51856847
  -exchange      EXHF   =         0.00000000
  -V(xc)+E(xc)   XCENC  =     -1155.85601432
  PAW double counting   =      4729.88593240    -2491.58392450
  entropy T*S    EENTRO =        -0.00000000
  eigenvalues    EBANDS =       308.88383093
  atomic energy  EATOM  =     13192.48085998
  Solvation  Ediel_sol  =         0.00000000
  ---------------------------------------------------
  free energy    TOTEN  =      -679.36350320 eV

  energy without entropy =     -679.36350320  energy(sigma->0) =     -679.36350320


--------------------------------------------------------------------------------------------------------




--------------------------------------- Iteration      1(  18)  ---------------------------------------


    POTLOK:  cpu time    0.4911: real time    0.4936
    SETDIJ:  cpu time    0.5062: real time    0.5062
     EDDAV:  cpu time   51.3380: real time   51.3444
       DOS:  cpu time    0.0016: real time    0.0016
    CHARGE:  cpu time    3.0339: real time    3.0343
    MIXING:  cpu time    0.0297: real time    0.0297
    --------------------------------------------
      LOOP:  cpu time   55.4003: real time   55.4097

 eigenvalue-minimisations  :  3328
 total energy-change (2. order) :-0.1053977E-06  (-0.6825392E-09)
 number of electron     511.9999998 magnetization 
 augmentation part      -29.4704189 magnetization 

 Broyden mixing:
  rms(total) = 0.66498E-05    rms(broyden)= 0.45198E-05
  rms(prec ) = 0.63522E-05
  weight for this iteration     100.00
  WARNING: grid for Broyden might be to small

 eigenvalues of (default mixing * dielectric matrix)
  average eigenvalue GAMMA=   1.7229
  3.2584  2.5619  2.5619  2.2819  1.7390  1.7390  1.3706  1.3706  1.2914  1.2914
  0.9298  0.9655  1.0367

 Free energy of the ion-electron system (eV)
  ---------------------------------------------------
  alpha Z        PSCENC =       210.77028614
  Ewald energy   TEWEN  =    -14470.42590537
  -Hartree energ DENC   =     -1003.51948092
  -exchange      EXHF   =         0.00000000
  -V(xc)+E(xc)   XCENC  =     -1155.85591236
  PAW double counting   =      4729.88972684    -2491.58777949
  entropy T*S    EENTRO =        -0.00000000
  eigenvalues    EBANDS =       308.88470187
  atomic energy  EATOM  =     13192.48085998
  Solvation  Ediel_sol  =         0.00000000
  ---------------------------------------------------
  free energy    TOTEN  =      -679.36350330 eV

  energy without entropy =     -679.36350330  energy(sigma->0) =     -679.36350330


--------------------------------------------------------------------------------------------------------




--------------------------------------- Iteration      1(  19)  ---------------------------------------


    POTLOK:  cpu time    0.4882: real time    0.4914
    SETDIJ:  cpu time    0.5045: real time    0.5046
     EDDAV:  cpu time   50.7521: real time   50.7715
       DOS:  cpu time    0.0010: real time    0.0010
    CHARGE:  cpu time    3.0250: real time    3.0255
    MIXING:  cpu time    0.0357: real time    0.0357
    --------------------------------------------
      LOOP:  cpu time   54.8066: real time   54.8297

 eigenvalue-minimisations  :  3272
 total energy-change (2. order) : 0.5022230E-07  (-0.1517272E-09)
 number of electron     511.9999998 magnetization 
 augmentation part      -29.4704207 magnetization 

 Broyden mixing:
  rms(total) = 0.53360E-05    rms(broyden)= 0.21637E-05
  rms(prec ) = 0.29719E-05
  weight for this iteration     100.00
  WARNING: grid for Broyden might be to small

 eigenvalues of (default mixing * dielectric matrix)
  average eigenvalue GAMMA=   1.6780
  3.2982  2.6885  2.3694  2.3694  1.7544  1.7544  1.4680  1.4680  1.3166  1.3166
  1.0026  1.0026  0.9194  0.7639

 Free energy of the ion-electron system (eV)
  ---------------------------------------------------
  alpha Z        PSCENC =       210.77028614
  Ewald energy   TEWEN  =    -14470.42590537
  -Hartree energ DENC   =     -1003.51910009
  -exchange      EXHF   =         0.00000000
  -V(xc)+E(xc)   XCENC  =     -1155.85593877
  PAW double counting   =      4729.88933456    -2491.58734492
  entropy T*S    EENTRO =        -0.00000000
  eigenvalues    EBANDS =       308.88430521
  atomic energy  EATOM  =     13192.48085998
  Solvation  Ediel_sol  =         0.00000000
  ---------------------------------------------------
  free energy    TOTEN  =      -679.36350325 eV

  energy without entropy =     -679.36350325  energy(sigma->0) =     -679.36350325


--------------------------------------------------------------------------------------------------------




--------------------------------------- Iteration      1(  20)  ---------------------------------------


    POTLOK:  cpu time    0.4898: real time    0.4918
    SETDIJ:  cpu time    0.5041: real time    0.5044
     EDDAV:  cpu time   49.8111: real time   49.8175
       DOS:  cpu time    0.0011: real time    0.0011
    --------------------------------------------
      LOOP:  cpu time   50.8060: real time   50.8147

 eigenvalue-minimisations  :  3176
 total energy-change (2. order) : 0.1184162E-08  (-0.4204929E-10)
 number of electron     511.9999998 magnetization 
 augmentation part      -29.4704207 magnetization 

 Free energy of the ion-electron system (eV)
  ---------------------------------------------------
  alpha Z        PSCENC =       210.77028614
  Ewald energy   TEWEN  =    -14470.42590537
  -Hartree energ DENC   =     -1003.51916633
  -exchange      EXHF   =         0.00000000
  -V(xc)+E(xc)   XCENC  =     -1155.85593409
  PAW double counting   =      4729.88929213    -2491.58730219
  entropy T*S    EENTRO =        -0.00000000
  eigenvalues    EBANDS =       308.88436648
  atomic energy  EATOM  =     13192.48085998
  Solvation  Ediel_sol  =         0.00000000
  ---------------------------------------------------
  free energy    TOTEN  =      -679.36350325 eV

  energy without entropy =     -679.36350325  energy(sigma->0) =     -679.36350325


--------------------------------------------------------------------------------------------------------




 average (electrostatic) potential at core
  the test charge radii are     0.9892
  (the norm of the test charge is              1.0000)
       1 -83.5577       2 -83.4444       3 -83.6216       4 -83.5973       5 -83.5923
       6 -83.4446       7 -83.4615       8 -83.4421       9 -83.5179      10 -83.4759
      11 -83.4256      12 -83.5430      13 -83.4219      14 -83.5067      15 -83.5902
      16 -83.4871      17 -83.6824      18 -83.6579      19 -83.6887      20 -83.6487
      21 -83.4778      22 -83.4789      23 -83.5351      24 -83.5200      25 -83.5074
      26 -83.4593      27 -83.5277      28 -83.4016      29 -83.5035      30 -83.5843
      31 -83.4683      32 -83.5441      33 -83.4864      34 -83.5244      35 -83.5095
      36 -83.5331      37 -83.4735      38 -83.4005      39 -83.6004      40 -83.4920
      41 -83.3907      42 -83.4991      43 -83.4295      44 -83.4431      45 -83.3899
      46 -83.5079      47 -83.5157      48 -83.3427      49 -83.5028      50 -83.4964
      51 -83.6115      52 -83.6109      53 -83.6038      54 -83.6171      55 -83.4743
      56 -83.5291      57 -83.3953      58 -83.4735      59 -83.5788      60 -83.5589
      61 -83.5093      62 -83.4489      63 -83.6076      64 -83.6180      65 -83.4965
      66 -83.5540      67 -83.5578      68 -83.4735      69 -83.5416      70 -83.4377
      71 -83.3776      72 -83.4755      73 -83.4514      74 -83.3864      75 -83.5548
      76 -83.4289      77 -83.4990      78 -83.5500      79 -83.5244      80 -83.4240
      81 -83.6541      82 -83.6016      83 -83.6718      84 -83.5917      85 -83.5275
      86 -83.4524      87 -83.6422      88 -83.4809      89 -83.4958      90 -83.6005
      91 -83.5184      92 -83.5281      93 -83.6274      94 -83.5767      95 -83.5946
      96 -83.5846      97 -83.4510      98 -83.4996      99 -83.5818     100 -83.5111
     101 -83.4763     102 -83.5037     103 -83.4889     104 -83.3292     105 -83.4411
     106 -83.3531     107 -83.4486     108 -83.3818     109 -83.5008     110 -83.4354
     111 -83.4461     112 -83.3826     113 -83.5752     114 -83.5645     115 -83.6326
     116 -83.5654     117 -83.5225     118 -83.5175     119 -83.5384     120 -83.5743
     121 -83.5575     122 -83.4742     123 -83.5782     124 -83.5540     125 -83.5775
     126 -83.5254     127 -83.6214     128 -83.5178
 
 
 
 E-fermi :   5.9158     XC(G=0):  -9.3323     alpha+bet :-11.7321


 k-point     1 :       0.0000    0.0000    0.0000
  band No.  band energies     occupation 
      1      -6.2988      2.00000
      2      -5.7098      2.00000
      3      -5.6778      2.00000
      4      -5.6144      2.00000
      5      -5.5430      2.00000
      6      -5.5161      2.00000
      7      -5.4939      2.00000
      8      -5.4110      2.00000
      9      -5.3792      2.00000
     10      -5.3176      2.00000
     11      -5.3070      2.00000
     12      -5.2278      2.00000
     13      -5.1743      2.00000
     14      -5.1358      2.00000
     15      -5.0581      2.00000
     16      -4.5046      2.00000
     17      -4.4821      2.00000
     18      -4.4519      2.00000
     19      -4.4379      2.00000
     20      -4.3915      2.00000
     21      -4.3365      2.00000
     22      -4.2851      2.00000
     23      -4.2527      2.00000
     24      -4.1885      2.00000
     25      -4.1774      2.00000
     26      -4.1365      2.00000
     27      -4.1074      2.00000
     28      -4.0517      2.00000
     29      -4.0126      2.00000
     30      -3.9509      2.00000
     31      -3.9448      2.00000
     32      -3.8576      2.00000
     33      -3.8288      2.00000
     34      -3.7983      2.00000
     35      -3.7788      2.00000
     36      -3.7451      2.00000
     37      -3.7246      2.00000
     38      -3.7049      2.00000
     39      -3.6820      2.00000
     40      -3.6599      2.00000
     41      -3.6107      2.00000
     42      -3.5830      2.00000
     43      -3.5793      2.00000
     44      -3.5474      2.00000
     45      -3.5165      2.00000
     46      -3.4911      2.00000
     47      -3.4681      2.00000
     48      -3.4003      2.00000
     49      -3.3823      2.00000
     50      -3.3745      2.00000
     51      -3.3441      2.00000
     52      -3.3435      2.00000
     53      -3.2831      2.00000
     54      -3.2327      2.00000
     55      -3.2184      2.00000
     56      -2.3571      2.00000
     57      -2.2915      2.00000
     58      -2.2649      2.00000
     59      -2.2254      2.00000
     60      -2.1921      2.00000
     61      -2.1477      2.00000
     62      -2.1429      2.00000
     63      -2.0920      2.00000
     64      -2.0716      2.00000
     65      -2.0355      2.00000
     66      -2.0140      2.00000
     67      -2.0024      2.00000
     68      -1.9753      2.00000
     69      -1.9316      2.00000
     70      -1.9162      2.00000
     71      -1.8696      2.00000
     72      -1.7910      2.00000
     73      -1.7515      2.00000
     74      -1.3634      2.00000
     75      -1.3309      2.00000
     76      -1.2982      2.00000
     77      -1.2360      2.00000
     78      -1.0188      2.00000
     79      -0.9566      2.00000
     80      -0.9326      2.00000
     81      -0.9307      2.00000
     82      -0.8975      2.00000
     83      -0.8812      2.00000
     84      -0.8690      2.00000
     85      -0.7971      2.00000
     86      -0.7933      2.00000
     87      -0.7736      2.00000
     88      -0.7465      2.00000
     89      -0.7171      2.00000
     90      -0.6959      2.00000
     91      -0.6747      2.00000
     92      -0.6440      2.00000
     93      -0.6305      2.00000
     94      -0.6101      2.00000
     95      -0.5830      2.00000
     96      -0.5528      2.00000
     97      -0.5240      2.00000
     98      -0.5029      2.00000
     99      -0.4750      2.00000
    100      -0.4678      2.00000
    101      -0.4489      2.00000
    102       0.0077      2.00000
    103       0.0241      2.00000
[...]
   0.533E+01 0.609E+01 -.222E+01   -.461E+01 -.594E+01 0.203E+01   -.733E+00 -.702E+00 -.713E-01   -.323E-05 0.283E-05 -.113E-05
   -.146E+01 0.151E+01 -.235E+01   0.128E+01 -.175E+01 0.237E+01   0.959E-01 -.779E+00 0.216E+00   -.427E-08 0.163E-05 -.556E-06
   0.487E+01 -.404E+01 0.503E+01   -.474E+01 0.320E+01 -.480E+01   -.422E+00 0.195E+01 -.789E+00   0.867E-06 -.135E-07 -.186E-05
   0.147E+01 0.959E+01 -.122E+02   -.151E+01 -.849E+01 0.107E+02   0.113E+00 -.177E+01 0.232E+01   0.100E-05 -.102E-05 0.816E-06
   -.511E+01 0.104E+02 -.140E+02   0.458E+01 -.974E+01 0.130E+02   0.734E+00 -.202E+01 0.146E+01   0.224E-05 0.136E-05 0.109E-05
   0.139E+01 -.574E+01 0.233E+01   -.165E+01 0.539E+01 -.235E+01   0.734E+00 -.251E+00 0.119E+01   0.133E-05 0.113E-06 0.103E-05
   -.512E+01 -.779E+01 0.113E+02   0.532E+01 0.742E+01 -.109E+02   0.191E+01 0.279E+00 -.117E+01   0.354E-05 -.109E-05 -.413E-05
   -.840E+01 0.304E+01 0.587E+01   0.831E+01 -.278E+01 -.530E+01   0.262E+01 0.268E+00 -.500E+00   0.329E-05 0.212E-05 -.132E-05
   0.143E+01 -.474E+01 0.314E+01   -.380E+00 0.501E+01 -.287E+01   -.208E+00 0.138E+01 -.158E+01   -.169E-05 0.126E-05 0.122E-05
   -.102E+02 -.995E+01 -.672E+01   0.901E+01 0.942E+01 0.597E+01   0.309E+01 0.244E+01 0.286E+01   0.244E-05 -.239E-06 0.136E-05
   -.289E+01 -.353E+01 -.163E+01   0.285E+01 0.370E+01 0.121E+01   0.541E+00 0.110E+01 0.996E+00   0.324E-05 -.150E-05 -.864E-06
   -.182E+01 -.353E+01 0.885E+01   0.169E+01 0.357E+01 -.879E+01   -.292E+00 0.454E+00 -.228E+01   0.906E-06 0.532E-06 -.146E-05
   -.186E+01 -.637E+01 0.113E+02   0.291E+01 0.561E+01 -.103E+02   -.158E+01 0.227E+01 -.286E+01   0.757E-06 0.220E-05 0.131E-05
   0.130E+02 -.527E+01 -.420E+01   -.118E+02 0.504E+01 0.371E+01   -.340E+01 0.148E+01 -.877E+00   -.380E-05 0.442E-05 -.327E-05
   -.237E+01 -.576E+01 0.114E+02   0.247E+01 0.481E+01 -.108E+02   -.130E+01 0.211E+01 -.339E+01   0.614E-06 0.186E-05 -.510E-05
   -.200E+01 -.146E+01 0.170E+01   0.197E+01 0.172E+01 -.194E+01   0.499E-02 -.132E+00 0.770E+00   0.284E-05 0.461E-05 0.614E-07
   0.545E+00 0.631E+01 0.365E+01   -.583E+00 -.505E+01 -.320E+01   -.473E-01 -.293E+01 -.655E+00   0.147E-05 0.598E-06 -.326E-05
   -.160E+01 0.580E+01 -.770E+01   0.167E+01 -.525E+01 0.669E+01   0.661E+00 -.171E+01 0.685E+00   -.139E-06 -.991E-07 0.145E-05
   -.903E+01 0.412E+01 -.887E+01   0.899E+01 -.365E+01 0.789E+01   0.792E+00 -.826E+00 0.313E+01   0.205E-05 0.928E-06 0.140E-05
   -.142E+02 -.918E+00 0.202E+01   0.127E+02 0.670E+00 -.206E+01   0.415E+01 0.132E+01 0.433E-01   0.229E-05 0.520E-05 -.414E-05
   0.184E+00 0.125E+02 -.776E+00   -.310E+00 -.108E+02 0.597E+00   0.248E+00 -.298E+01 -.535E+00   0.344E-06 -.101E-05 -.337E-05
   0.277E+01 -.709E+01 -.318E+01   -.258E+01 0.689E+01 0.317E+01   0.649E+00 0.224E+01 0.214E+01   -.196E-05 -.218E-05 0.362E-05
   0.296E+01 -.353E+01 -.491E+01   -.279E+01 0.297E+01 0.471E+01   0.230E+00 0.121E+01 0.418E+00   -.124E-06 -.970E-06 0.230E-05
   -.620E+01 -.519E+01 -.712E+01   0.578E+01 0.515E+01 0.648E+01   0.904E+00 0.600E+00 0.214E+01   0.235E-06 -.160E-05 0.182E-05
   -.108E+02 0.107E+02 0.143E+02   0.965E+01 -.999E+01 -.135E+02   0.270E+01 -.225E+01 -.312E+01   0.229E-05 -.389E-05 0.190E-05
   0.894E+01 0.130E+01 -.522E+01   -.846E+01 -.616E+00 0.537E+01   -.183E+01 -.656E+00 0.110E+01   0.333E-06 -.339E-05 0.277E-05
   0.591E+01 -.340E+01 0.315E+01   -.609E+01 0.279E+01 -.235E+01   -.179E+00 0.119E+01 -.158E+01   0.131E-05 -.247E-05 -.173E-05
   0.726E+01 -.372E+01 0.617E+01   -.677E+01 0.327E+01 -.542E+01   -.984E+00 0.134E+01 -.229E+01   0.149E-05 0.188E-06 0.326E-05
   -.555E+00 0.750E+01 -.131E+01   0.311E+00 -.683E+01 0.917E+00   0.386E+00 -.579E+00 0.140E+01   0.187E-05 -.318E-05 0.330E-05
   0.392E+01 -.380E+01 -.527E+01   -.378E+01 0.319E+01 0.530E+01   -.174E+01 0.208E+01 -.349E+00   -.273E-05 0.535E-06 -.148E-05
   -.417E+01 0.457E+01 -.270E+01   0.398E+01 -.426E+01 0.240E+01   0.533E+00 -.751E+00 0.104E+01   -.824E-06 0.432E-07 0.154E-05
   0.132E+02 -.778E+01 0.149E+01   -.116E+02 0.667E+01 -.855E+00   -.435E+01 0.224E+01 -.997E+00   -.291E-05 0.544E-06 0.340E-06
   -.103E+02 -.910E+00 -.211E+01   0.878E+01 0.325E+00 0.168E+01   0.215E+01 0.172E+01 0.257E+01   -.722E-07 0.208E-06 -.152E-05
   0.105E+02 -.302E+01 -.595E+01   -.101E+02 0.360E+01 0.532E+01   -.202E+01 -.667E+00 0.754E+00   -.364E-05 0.964E-07 0.301E-05
   0.395E+01 0.660E+01 -.660E+01   -.349E+01 -.629E+01 0.663E+01   -.163E+01 -.165E+01 0.112E+01   -.464E-05 -.801E-07 0.133E-05
   0.152E+01 -.207E+01 0.115E+02   -.114E+01 0.172E+01 -.997E+01   -.201E+01 0.204E+01 -.227E+01   -.421E-05 0.374E-06 -.422E-05
   -.155E+02 -.345E+01 -.119E+01   0.139E+02 0.292E+01 0.101E+01   0.299E+01 0.921E+00 0.101E+01   -.187E-05 0.969E-06 -.255E-05
   -.206E+01 -.641E+00 0.471E+01   0.161E+01 0.792E+00 -.448E+01   0.988E+00 -.294E+00 -.123E+01   0.370E-05 -.200E-05 0.104E-05
   0.107E+02 0.183E+01 -.138E+02   -.103E+02 -.136E+01 0.127E+02   -.177E+01 -.839E+00 0.365E+01   0.149E-05 -.196E-05 0.286E-05
   0.968E+01 -.438E+01 -.123E+01   -.930E+01 0.356E+01 0.122E+01   -.106E+01 0.181E+01 -.387E+00   0.103E-05 -.621E-06 0.135E-05
   -.405E+01 0.261E+00 0.377E+01   0.359E+01 0.508E+00 -.418E+01   0.202E+01 0.405E-01 0.408E+00   0.448E-05 -.174E-05 0.377E-05
   0.245E+01 -.280E+01 0.103E+02   -.179E+01 0.262E+01 -.866E+01   -.415E+00 0.363E-02 -.260E+01   0.861E-06 -.149E-05 -.280E-05
   0.329E+01 0.784E+01 -.379E+01   -.296E+01 -.720E+01 0.392E+01   0.711E+00 -.227E+01 0.132E+00   0.321E-05 -.160E-05 -.101E-05
   0.120E+01 -.106E+02 -.401E+01   -.114E+01 0.971E+01 0.342E+01   0.360E+00 0.268E+01 0.477E+00   0.177E-05 0.338E-06 0.435E-05
   -.433E+01 -.149E+02 0.120E+02   0.438E+01 0.135E+02 -.117E+02   0.347E+00 0.550E+01 -.113E+01   0.322E-05 0.621E-06 0.203E-05
   -.314E+01 0.261E+00 -.575E+01   0.279E+01 -.327E+00 0.526E+01   0.155E+00 0.112E+01 0.149E+01   -.140E-05 0.207E-05 -.453E-06
   0.182E+01 0.187E+01 -.696E+01   -.127E+01 -.188E+01 0.630E+01   -.817E+00 -.103E+01 0.753E+00   -.134E-05 0.213E-05 -.207E-06
   0.215E+01 -.630E+01 0.586E+01   -.133E+01 0.587E+01 -.540E+01   -.174E+01 0.221E+01 -.216E+01   -.437E-05 0.190E-05 -.106E-05
   -.137E+02 0.205E+01 -.261E+00   0.127E+02 -.151E+01 0.179E+00   0.253E+01 0.127E+00 0.118E+00   -.213E-05 -.125E-05 -.276E-05
   -.302E+01 0.433E+01 0.476E+01   0.309E+01 -.370E+01 -.456E+01   0.483E+00 -.130E+01 -.143E+01   -.211E-05 0.927E-06 -.876E-06
   0.470E+01 -.599E+01 -.311E+01   -.402E+01 0.547E+01 0.246E+01   -.906E+00 0.177E+01 0.777E+00   -.389E-05 0.309E-05 -.108E-06
   -.442E+01 0.142E+01 -.328E+01   0.403E+01 -.124E+01 0.343E+01   0.579E+00 0.110E+00 0.597E+00   -.229E-05 -.869E-07 -.258E-05
   -.908E+01 -.935E+00 0.708E+01   0.828E+01 0.122E+01 -.626E+01   0.224E+01 -.172E+00 -.236E+01   -.316E-06 0.127E-05 -.393E-05
 -----------------------------------------------------------------------------------------------
   0.399E+00 0.413E-01 0.119E+01   -.133E-12 -.130E-12 0.258E-12   -.399E+00 -.413E-01 -.119E+01   0.617E-06 -.676E-07 0.755E-06
 
 
 POSITION                                       TOTAL-FORCE (eV/Angst)
 -----------------------------------------------------------------------------------
     10.90399     21.78034     10.97269         0.097809      0.592109     -0.587661
     10.92358      2.82632     13.60479         0.559745      0.273845      0.681041
      0.11454      5.41307      5.42563        -1.441285      0.515457      0.278896
     10.95857     18.97451      8.33741         0.017912      1.346255     -0.623695
      2.74157      0.08728      2.73213         0.026119     -0.106963      0.276841
     13.67137     13.68686      5.50599        -0.301732     -0.315125     -0.364715
      2.76900      5.49545      8.05701        -0.934605     -1.408816      0.735868
      2.73311      8.27485     10.90909         0.252617     -1.542386      0.525011
      5.40174      0.10627      5.37171         0.719200     -0.519112      1.308012
     16.42732     13.52043      8.16787        -0.676171      2.612273      0.960255
      5.53117      5.54406     10.84251        -0.241561     -0.646427      1.718911
      5.49143      8.15312     13.64414        -0.501166      0.718818      0.009328
      8.21342     10.93376     18.99042         0.573014     -0.063096      2.022804
     19.16293     13.62093     11.02545        -0.369608      0.810381     -1.581649
      8.30248      5.60763     13.65874         0.024449     -0.886432     -0.239700
      8.26927      8.39143     16.25845        -0.754260     -0.763525      1.439753
      2.89923     13.62504     10.96601        -2.751544      0.245332      0.147565
      2.85145      5.24255      2.80991        -1.351354      1.385952     -0.948448
     13.71516      8.24557     16.32175        -2.105415     -0.520456     -0.098976
      2.92506     10.90399      8.18524        -1.582716      0.707331     -0.467828
      5.45482      2.71767      2.79248        -0.538271     -0.404050     -2.390089
      5.45586      5.51512      5.51788        -1.149743     -1.321089     -0.979908
      5.40788      8.26110      8.16705        -0.111224     -0.821564      0.464997
      5.48873     11.00247     10.89794         1.030232     -0.692793      1.752448
      8.15262      2.73222      5.44339        -0.527931      1.059350      1.093718
      8.17941      5.54217      8.25843         2.243980      0.284869     -0.559514
      8.10874      8.17562     10.85739         2.238496      0.935240      0.014997
      8.22685     10.94397     13.68955         1.192428     -0.406397      0.268059
     11.09717     13.61105     18.93024        -0.213406      0.185803      2.699901
     10.96691      5.44191     10.88729         0.046478     -1.118535      0.942165
     10.92829      8.24169     13.75372        -0.766636     -1.183537     -2.707261
     10.96092     10.90071     16.33731        -0.217402      1.468784      1.131615
     16.42405     16.41839     21.78995        -1.893761      0.387553     -0.065302
      5.63666      8.21147      2.63770        -1.680158     -0.338912     -0.243652
     16.32185     11.12741     16.41636         0.115085     -2.697449     -0.111511
     16.24268     13.68623     19.23193         0.517698      0.076126     -0.234144
      8.07424      5.60651      2.73380         0.475570     -1.437114     -0.626502
      8.12121      8.17309      5.53917         0.552937     -0.106373     -0.778795
      8.17639     10.92235      8.04789        -0.190742      0.268316      1.412866
      8.27507     13.69523     10.91459        -0.838540     -0.422069      0.734564
     10.83477      5.47355      5.48277         0.851235     -0.588301     -0.321890
     11.01902      8.31595      8.06845         0.073749     -1.861353      1.067640
     10.94168     10.89518     10.89086         0.445186      0.087685      0.891671
     10.91707     13.78528     13.98192        -0.504165     -0.911402     -3.620981
     13.62527     16.43495     19.00041         1.234518     -0.066394      1.585748
     13.55153      8.31079     11.06412         1.541310      0.213640     -1.442078
     13.48505     11.03774     13.64590         2.422967     -1.745167      1.287923
     13.67414     13.70531     16.45471         0.228980     -0.432346     -1.889145
      8.25700      8.24402      0.01695        -0.701443      0.093114     -0.190330
     19.07863     10.97488     13.66992         0.184390     -0.551374      0.942066
      8.18410     13.69680      5.55673         0.874117     -0.192706     -1.559774
     19.10978     16.51951     19.04318        -0.410628     -1.597141      0.398866
     10.90577      8.15442      2.82916         0.465983      0.613585     -0.818140
     11.05141     10.92606      5.51589        -1.516178      0.772107     -0.336218
     11.01678     13.68941      8.19992        -1.469265     -0.636974      1.033531
     10.94847     16.45660     11.01914        -1.553675     -2.075457     -1.783081
     13.50884      8.25855      5.30511         0.999026     -0.775360      0.879064
     13.73130     10.94391      8.21392         0.272738      0.430699     -1.007443
     13.59551     13.66863     10.89244         1.222378      0.456391      0.681434
     13.54855     16.60983     13.66689         1.952594     -2.914884      0.442913
     16.33847      8.20751      8.14792         0.071292      1.263726      0.664073
     16.49690     11.00360     10.88582        -0.809930      0.475602     -0.225339
     16.44934     13.86044     13.65089         0.379252     -2.102897      0.524057
     16.48628     16.46035     16.35653        -1.007463     -0.304781      0.068891
      1.21149      1.34678      1.49325         1.478446      0.021103     -1.735284
      1.36579      4.00248      4.15284         0.363862      0.125289     -0.891287
      1.36166      6.81827      6.77181         0.293407      0.704019      0.133801
      1.57429      9.66620      9.51230        -2.381261     -1.097507      0.543632
      4.10331      1.50266      4.12345        -1.080993     -0.834958     -0.222236
      4.06068      3.98079      6.85455         1.284373      0.967515     -0.001326
      4.05001      6.64107      9.51451         0.217559      2.740233      0.339446
      4.10769      9.66954     12.27077         0.246728     -0.893480      0.274461
      6.83638      1.37443      6.95071         0.241909     -0.675530     -2.819234
      6.79488      4.28002      9.41167        -0.259665     -2.748721      1.453651
      7.01312      6.94174     12.26530        -2.326633     -1.418561      0.785672
      6.77894      9.68027     14.99649        -0.006272     -0.553244     -0.260789
      9.62481      1.46675      9.48954        -0.080332     -1.019065      0.232196
      9.57253      4.08423     12.31431        -0.283746      1.109691     -0.554749
      9.61588      6.91044     15.03508         0.072476     -0.676123      0.815781
      9.64905      9.63245     17.74755         0.208594     -1.361062      0.388476
      4.17975      4.13077      1.25414         0.472935     -0.609509      1.169068
      3.98653      6.83228      4.09034         2.117100     -0.098834     -0.730990
      3.95945      9.54964      6.74778         2.532673      0.531730      0.077823
      4.03765     12.14625      9.68926         0.846101      1.648333     -1.306248
      6.67782      4.06564      3.97208         1.930409      1.909319      2.113180
      6.77700      6.76050      6.85219         0.502993      1.262699      0.575726
      6.82830      9.58290      9.65710        -0.425965      0.492722     -2.216670
      6.87965     12.22476     12.46272        -0.534639      1.509683     -1.834746
      9.68982      4.02446      6.94481        -2.212650      1.245025     -1.370638
      9.69356      6.85079      9.75722        -1.201210      1.156427     -2.783447
      9.54224      9.53498     12.23613        -0.029058      0.135523      0.525866
      9.54974     12.40700     15.12743        -0.085756     -1.677603     -0.204292
     12.32304      4.15596      9.50754         0.737231     -1.162995     -0.332046
     12.23420      6.82751     12.20781         0.751480     -0.359922      2.151408
     12.13604      9.50837     15.04268         2.624683      1.073044      0.001146
     12.44099     12.27740     17.75490         0.121755     -1.344432     -0.714063
      6.83279      6.72590      1.10567         0.838063      2.040395      2.128205
      6.77183      9.56605      4.16230         0.400434      0.654408      0.222409
      6.72463     12.36715      6.78133         0.481980      0.561743      1.504345
      6.76245     15.09960      9.67911         1.595363     -1.496860     -2.313646
      9.56577      6.83588      4.06836        -1.354318      0.031659      1.253787
      9.57284      9.52592      6.81626        -0.351941      0.576040     -0.774244
      9.58605     12.21043      9.61999        -0.489858      0.895971     -1.535690
      9.55239     15.06782     12.33657         0.141780      0.084008      1.013517
     12.37602      6.76666      6.72270        -1.603375      1.469118     -0.328677
     12.29698      9.64183      9.46658         0.346454     -0.442765      0.746919
     12.38341     12.30919     12.28132        -2.727284      1.130797     -0.358907
     12.34812     15.08305     14.96967         0.584009      1.132521      2.138015
     15.07062      6.89387      9.55075        -1.681651     -0.083368      0.124108
     15.13622      9.77302     12.25783        -1.166974     -1.336887      1.148233
     15.10664     12.29331     14.98494        -1.629131      1.689656     -0.761251
     14.96352     15.06642     17.67875         1.450053      0.394717      0.831342
      9.50124      9.53943      1.53138         0.530470     -0.143337     -0.998002
      9.72902     12.28954      3.87041        -1.380816     -0.367330      2.534001
      9.65359     14.99710      6.88242        -0.680637      0.988385     -0.405617
      9.40713     17.66580      9.64309         1.560298      0.810166     -0.004246
     12.25952      9.66210      4.07701         0.244536     -0.172530     -0.939909
     12.28314     12.42749      6.83134         1.040856     -1.624833      0.259770
     12.27564     14.99818      9.56506         0.427338      1.772040     -0.118310
     12.17818     17.61500     12.36142         0.396484      4.094489     -0.773409
     15.01010      9.47766      6.61968        -0.192839      1.051235      1.000309
     15.06606     12.39154      9.59310        -0.270803     -1.037726      0.091511
     15.01748     15.01179     12.39136        -0.919535      1.783775     -1.704177
     14.91175     17.77420     15.04533         1.513597      0.668982      0.035396
     17.77933      9.62724      9.58834         0.556486     -0.676851     -1.223337
     17.76640     12.26274     12.31830        -0.224580      1.246365      0.118596
     17.87627     15.11636     14.97166         0.193351      0.290404      0.749819
     17.68509     17.88158     17.80357         1.444148      0.113214     -1.547869
 -----------------------------------------------------------------------------------
    total drift:                               -0.000008      0.000021     -0.000023


--------------------------------------------------------------------------------------------------------



  FREE ENERGIE OF THE ION-ELECTRON SYSTEM (eV)
  ---------------------------------------------------
  free  energy   TOTEN  =      -679.36350325 eV

  energy  without entropy=     -679.36350325  energy(sigma->0) =     -679.36350325
 


--------------------------------------------------------------------------------------------------------


    POTLOK:  cpu time    0.9937: real time    0.9940


--------------------------------------------------------------------------------------------------------


     LOOP+:  cpu time 1629.9098: real time 1630.4541
    4ORBIT:  cpu time    0.0000: real time    0.0000

 total amount of memory used by VASP MPI-rank0   221701. kBytes
=======================================================================

   base      :      30000. kBytes
   nonl-proj :      10690. kBytes
   fftplans  :      66746. kBytes
   grid      :      26864. kBytes
   one-center:         24. kBytes
   wavefun   :      87377. kBytes
 
  
  
 General timing and accounting informations for this job:
 ========================================================
  
                  Total CPU time used (sec):     1653.997
                            User time (sec):     1652.929
                          System time (sec):        1.068
                         Elapsed time (sec):     1655.537
  
                   Maximum memory used (kb):      338168.
                   Average memory used (kb):           0.
  
                          Minor page faults:       169828
                          Major page faults:            0
                 Voluntary context switches:         1332
