<?xml version="1.0" encoding="ISO-8859-1"?>
<modeling>
 <generator>
  <i name="program" type="string">vasp </i>
  <i name="version" type="string">5.4.4.18Apr17-6-g9f103f2a35  </i>
  <i name="subversion" type="string">(build Nov 08 2017 09:05:29) complex            parallel </i>
  <i name="platform" type="string">Intel_17.33 </i>
  <i name="date" type="string">2020 07 19 </i>
  <i name="time" type="string">00:13:34 </i>
 </generator>
 <incar>
  <i type="string" name="SYSTEM">potpaw_PBE@./ARUN.APL1ZEROSTATE</i>
  <i type="string" name="PREC">accurate</i>
  <i type="string" name="ALGO">Normal</i>
  <i type="int" name="NSIM">     4</i>
  <i type="logical" name="ADDGRID"> T  </i>
  <i type="int" name="NELM">   120</i>
  <i type="int" name="NELMIN">     4</i>
  <i name="EDIFF">      0.00000001</i>
  <i type="int" name="NSW">     0</i>
  <i type="int" name="ISYM">     2</i>
  <i name="ENMAX">    500.00000000</i>
  <i type="logical" name="LREAL"> F  </i>
  <i type="logical" name="LPLANE"> T  </i>
  <i type="int" name="ISMEAR">     0</i>
  <i name="SIGMA">      0.01000000</i>
  <i type="logical" name="LWAVE"> F  </i>
  <i type="logical" name="LCHARG"> F  </i>
  <i type="logical" name="LELF"> F  </i>
  <i type="logical" name="LAECHG"> F  </i>
  <v type="int" name="KPOINT_BSE">    -1     0     0     0</v>
  <i type="int" name="NELM">   120</i>
 </incar>
 <structure name="primitive_cell" >
  <crystal>
   <varray name="basis" >
    <v>       0.00000000      10.93733369      10.93733369 </v>
    <v>      10.93733369       0.00000000      10.93733369 </v>
    <v>      10.93733369      10.93733369       0.00000000 </v>
   </varray>
   <i name="volume">   2616.76295363 </i>
   <varray name="rec_basis" >
    <v>      -0.04571498       0.04571498       0.04571498 </v>
    <v>       0.04571498      -0.04571498       0.04571498 </v>
    <v>       0.04571498       0.04571498      -0.04571498 </v>
   </varray>
  </crystal>
  <varray name="positions" >
   <v>      -0.00117156       0.00440442      -0.00745297 </v>
   <v>       0.07444882       0.06207933       0.04868692 </v>
   <v>       0.07175288       0.06826074      -0.19956307 </v>
   <v>      -0.19522418       0.06493306       0.07900427 </v>
   <v>       0.06086855      -0.19324013       0.07323646 </v>
   <v>       0.00018138       0.00136818      -0.24643073 </v>
   <v>      -0.24795061       0.24536792       0.00452023 </v>
   <v>      -0.25240712       0.01469616      -0.01275455 </v>
   <v>       0.25067570      -0.24261916      -0.00531504 </v>
   <v>       0.25445741      -0.00461682      -0.25102448 </v>
   <v>       0.00355808       0.24624018       0.00442162 </v>
   <v>       0.00355746       0.25511291      -0.25799903 </v>
   <v>       0.25177659      -0.00789117       0.00663379 </v>
   <v>      -0.00749296      -0.25621342       0.00716645 </v>
   <v>      -0.00835930       0.01098085       0.25409575 </v>
   <v>      -0.26105554       0.00943150       0.25800677 </v>
   <v>      -0.01968209      -0.24952658       0.26413998 </v>
   <v>       0.29399009       0.05988147      -0.17035795 </v>
   <v>       0.06763968       0.30512124      -0.18423413 </v>
   <v>       0.06565805      -0.18899641      -0.18543974 </v>
   <v>      -0.18637135       0.07225961       0.29690265 </v>
   <v>      -0.18478187       0.30669822       0.06886759 </v>
   <v>      -0.18943029      -0.18791206       0.07012474 </v>
   <v>       0.31153132      -0.18526928      -0.19034947 </v>
   <v>      -0.18635347       0.31655789      -0.20310742 </v>
   <v>      -0.18162179       0.06328884      -0.20319491 </v>
   <v>       0.31205083      -0.18615390       0.06137004 </v>
   <v>      -0.19581336      -0.18085651       0.31833540 </v>
   <v>       0.06127910      -0.19200531       0.31869992 </v>
   <v>      -0.24445612       0.25193598      -0.25091749 </v>
   <v>       0.24651884      -0.25122918      -0.24045980 </v>
   <v>       0.24642852       0.25788934      -0.24745916 </v>
   <v>      -0.24974032       0.24613869       0.25569610 </v>
   <v>       0.24513681      -0.24971249       0.25241647 </v>
   <v>      -0.25589253      -0.25038758       0.25254421 </v>
   <v>       0.06118819       0.31078208      -0.43618398 </v>
   <v>       0.05849021      -0.42352677       0.30946625 </v>
   <v>       0.04565955       0.05543212      -0.43071059 </v>
   <v>       0.06805874      -0.43255534       0.05760492 </v>
   <v>      -0.43596997       0.05291936       0.30909322 </v>
   <v>       0.31038349       0.06931063       0.05556348 </v>
   <v>       0.31801714       0.06254138      -0.44339326 </v>
   <v>      -0.44097793       0.06012430       0.06437207 </v>
   <v>       0.06961480       0.30739244       0.06777293 </v>
   <v>      -0.44659399       0.31650535       0.05378692 </v>
   <v>       0.05509405       0.05957195       0.32258224 </v>
   <v>       0.31528768      -0.45477872       0.07603436 </v>
   <v>      -0.23527209       0.48483516      -0.24609193 </v>
   <v>       0.00250603       0.48254040      -0.24742747 </v>
   <v>       0.23828988       0.00287488      -0.48751552 </v>
   <v>       0.01216303       0.23778781      -0.49956016 </v>
   <v>      -0.24785567      -0.01102743      -0.24176585 </v>
   <v>      -0.23768054      -0.00394463       0.48901179 </v>
   <v>      -0.49620912       0.24292181       0.25152074 </v>
   <v>       0.24050545      -0.49371739      -0.00433337 </v>
   <v>       0.23776398       0.01914589       0.24156178 </v>
   <v>      -0.25116112      -0.26232972       0.01838914 </v>
   <v>      -0.25457948      -0.49793713       0.00001870 </v>
   <v>       0.49296553       0.24368636       0.00948336 </v>
   <v>       0.25559469       0.25085138       0.49167057 </v>
   <v>       0.00077540      -0.25581112      -0.25036275 </v>
   <v>      -0.49430104      -0.25759828      -0.23843927 </v>
   <v>      -0.24634851      -0.24919799       0.49942407 </v>
   <v>       0.00252884       0.25278709       0.24594722 </v>
   <v>       0.25241468       0.25099816      -0.00102569 </v>
   <v>       0.49610619      -0.00380957       0.25778619 </v>
   <v>      -0.49396139       0.00201255      -0.25374066 </v>
   <v>       0.00105111       0.49663798       0.24875592 </v>
   <v>      -0.49878585      -0.25239617       0.01149150 </v>
   <v>       0.25697233       0.49809543       0.24974790 </v>
   <v>      -0.00295240      -0.25984113      -0.49440078 </v>
   <v>       0.31518760      -0.19445474      -0.42164113 </v>
   <v>      -0.18134574      -0.44305997      -0.19355975 </v>
   <v>      -0.18389633       0.31182845      -0.43845388 </v>
   <v>      -0.17712771      -0.19509275      -0.18796005 </v>
   <v>       0.30946013       0.31375028      -0.43850594 </v>
   <v>      -0.43827260       0.31280580      -0.19044432 </v>
   <v>      -0.44173976      -0.18940153      -0.17617192 </v>
   <v>       0.31628280      -0.43918593      -0.18332489 </v>
   <v>      -0.17783054      -0.43906910       0.31220177 </v>
   <v>      -0.43259938       0.31554785       0.30876351 </v>
   <v>      -0.43244760      -0.19220038       0.30179763 </v>
   <v>       0.31889390       0.30569535      -0.18264870 </v>
   <v>       0.31609385      -0.42399150       0.31027321 </v>
   <v>       0.31091297      -0.19475355       0.31332583 </v>
   <v>      -0.18591496       0.32538105       0.30362473 </v>
   <v>      -0.18711230      -0.19652032      -0.43536531 </v>
   <v>       0.00348513       0.48764967       0.00623127 </v>
   <v>      -0.00413163      -0.00361372      -0.49473589 </v>
   <v>       0.00555668       0.49573272       0.49488980 </v>
   <v>       0.49625435       0.49507582       0.01063849 </v>
   <v>       0.49025427       0.00581060       0.00466224 </v>
   <v>      -0.48699013      -0.01206297      -0.49563124 </v>
   <v>       0.04970355      -0.44446629      -0.18316129 </v>
   <v>      -0.19063452      -0.44068922      -0.43032261 </v>
   <v>      -0.17638705       0.06134761      -0.44305678 </v>
   <v>       0.06281279      -0.18958788      -0.43250635 </v>
   <v>       0.05089633      -0.43624037      -0.43222045 </v>
   <v>      -0.44357487      -0.18635245      -0.43244815 </v>
   <v>      -0.18180136      -0.44706971       0.06686814 </v>
   <v>      -0.44109239       0.07035147      -0.18772370 </v>
   <v>      -0.43635115      -0.18899250       0.06817226 </v>
   <v>      -0.43378897      -0.43326906      -0.19368322 </v>
   <v>      -0.43204420       0.05206067      -0.43722820 </v>
   <v>      -0.44255521      -0.43602925       0.07723856 </v>
   <v>       0.24527833       0.49241945      -0.48495104 </v>
   <v>      -0.22969676      -0.49193723       0.49008474 </v>
   <v>       0.49344042       0.24237753      -0.49481022 </v>
   <v>      -0.25325746       0.25117780      -0.49458856 </v>
   <v>      -0.49870960       0.49460495      -0.25156799 </v>
   <v>       0.49703822       0.25267988      -0.24541596 </v>
   <v>      -0.49406676      -0.24843152       0.24760433 </v>
   <v>       0.24807385      -0.49707569      -0.24747238 </v>
   <v>       0.49940271       0.49328806       0.24809363 </v>
   <v>      -0.24996975      -0.49839561       0.25057621 </v>
   <v>      -0.48805633      -0.26429950       0.49723668 </v>
   <v>       0.26621580      -0.25462359       0.49363937 </v>
   <v>       0.06216761       0.30099908       0.30955386 </v>
   <v>       0.31708318       0.05689669       0.30759161 </v>
   <v>       0.30970377       0.31700786       0.05425979 </v>
   <v>       0.31249351       0.31400218       0.30561830 </v>
   <v>      -0.25344692      -0.25107586      -0.24158380 </v>
   <v>       0.25495934       0.24954047       0.24928819 </v>
   <v>       0.31138471      -0.44585557      -0.42983216 </v>
   <v>      -0.44195247      -0.43516697      -0.43261842 </v>
   <v>      -0.44095751      -0.44029372       0.31274009 </v>
   <v>      -0.44024876       0.31980409      -0.44335216 </v>
   <v>       0.49574984      -0.49999891      -0.49960383 </v>
  </varray>
 </structure>
 <varray name="primitive_index" >
  <v type="int" >        1 </v>
  <v type="int" >       65 </v>
  <v type="int" >      113 </v>
  <v type="int" >       68 </v>
  <v type="int" >       77 </v>
  <v type="int" >       49 </v>
  <v type="int" >        8 </v>
  <v type="int" >        4 </v>
  <v type="int" >       14 </v>
  <v type="int" >       50 </v>
  <v type="int" >        5 </v>
  <v type="int" >       53 </v>
  <v type="int" >        2 </v>
  <v type="int" >       13 </v>
  <v type="int" >       17 </v>
  <v type="int" >       20 </v>
  <v type="int" >       29 </v>
  <v type="int" >      114 </v>
  <v type="int" >      117 </v>
  <v type="int" >      125 </v>
  <v type="int" >       84 </v>
  <v type="int" >       72 </v>
  <v type="int" >       80 </v>
  <v type="int" >      126 </v>
  <v type="int" >      120 </v>
  <v type="int" >      116 </v>
  <v type="int" >       78 </v>
  <v type="int" >       96 </v>
  <v type="int" >       93 </v>
  <v type="int" >       56 </v>
  <v type="int" >       62 </v>
  <v type="int" >       54 </v>
  <v type="int" >       24 </v>
  <v type="int" >       30 </v>
  <v type="int" >       32 </v>
  <v type="int" >      101 </v>
  <v type="int" >       89 </v>
  <v type="int" >       97 </v>
  <v type="int" >       73 </v>
  <v type="int" >       83 </v>
  <v type="int" >       66 </v>
  <v type="int" >       98 </v>
  <v type="int" >       67 </v>
  <v type="int" >       69 </v>
  <v type="int" >       71 </v>
  <v type="int" >       81 </v>
  <v type="int" >       74 </v>
  <v type="int" >       60 </v>
  <v type="int" >       57 </v>
  <v type="int" >       34 </v>
  <v type="int" >       37 </v>
  <v type="int" >       52 </v>
  <v type="int" >       36 </v>
  <v type="int" >       23 </v>
  <v type="int" >       10 </v>
  <v type="int" >       18 </v>
  <v type="int" >       16 </v>
  <v type="int" >       12 </v>
  <v type="int" >        7 </v>
  <v type="int" >       38 </v>
  <v type="int" >       61 </v>
  <v type="int" >       63 </v>
  <v type="int" >       48 </v>
  <v type="int" >       21 </v>
  <v type="int" >        6 </v>
  <v type="int" >       19 </v>
  <v type="int" >       51 </v>
  <v type="int" >       25 </v>
  <v type="int" >       15 </v>
  <v type="int" >       26 </v>
  <v type="int" >       45 </v>
  <v type="int" >      110 </v>
  <v type="int" >      124 </v>
  <v type="int" >      104 </v>
  <v type="int" >      128 </v>
  <v type="int" >      102 </v>
  <v type="int" >      119 </v>
  <v type="int" >      127 </v>
  <v type="int" >      122 </v>
  <v type="int" >       92 </v>
  <v type="int" >       87 </v>
  <v type="int" >       95 </v>
  <v type="int" >      118 </v>
  <v type="int" >       90 </v>
  <v type="int" >       94 </v>
  <v type="int" >       88 </v>
  <v type="int" >      112 </v>
  <v type="int" >        9 </v>
  <v type="int" >       33 </v>
  <v type="int" >       41 </v>
  <v type="int" >       11 </v>
  <v type="int" >        3 </v>
  <v type="int" >       35 </v>
  <v type="int" >      121 </v>
  <v type="int" >      108 </v>
  <v type="int" >      100 </v>
  <v type="int" >      109 </v>
  <v type="int" >      105 </v>
  <v type="int" >      111 </v>
  <v type="int" >       76 </v>
  <v type="int" >      115 </v>
  <v type="int" >       79 </v>
  <v type="int" >      123 </v>
  <v type="int" >       99 </v>
  <v type="int" >       75 </v>
  <v type="int" >       42 </v>
  <v type="int" >       44 </v>
  <v type="int" >       39 </v>
  <v type="int" >       40 </v>
  <v type="int" >       59 </v>
  <v type="int" >       55 </v>
  <v type="int" >       31 </v>
  <v type="int" >       58 </v>
  <v type="int" >       27 </v>
  <v type="int" >       28 </v>
  <v type="int" >       47 </v>
  <v type="int" >       46 </v>
  <v type="int" >       85 </v>
  <v type="int" >       82 </v>
  <v type="int" >       70 </v>
  <v type="int" >       86 </v>
  <v type="int" >       64 </v>
  <v type="int" >       22 </v>
  <v type="int" >      106 </v>
  <v type="int" >      107 </v>
  <v type="int" >       91 </v>
  <v type="int" >      103 </v>
  <v type="int" >       43 </v>
 </varray>
 <kpoints>
  <generation param="Gamma">
   <v type="int" name="divisions">       2        2        2 </v>
   <v name="usershift">      0.00000000       0.00000000       0.00000000 </v>
   <v name="genvec1">      0.50000000       0.00000000       0.00000000 </v>
   <v name="genvec2">      0.00000000       0.50000000       0.00000000 </v>
   <v name="genvec3">      0.00000000       0.00000000       0.50000000 </v>
   <v name="shift">      0.00000000       0.00000000       0.00000000 </v>
  </generation>
  <varray name="kpointlist" >
   <v>       0.00000000       0.00000000       0.00000000 </v>
   <v>       0.50000000       0.00000000       0.00000000 </v>
   <v>       0.00000000       0.50000000       0.00000000 </v>
   <v>       0.50000000       0.50000000       0.00000000 </v>
   <v>       0.00000000       0.00000000       0.50000000 </v>
   <v>       0.50000000       0.00000000       0.50000000 </v>
   <v>       0.00000000       0.50000000       0.50000000 </v>
   <v>       0.50000000       0.50000000       0.50000000 </v>
  </varray>
  <varray name="weights" >
   <v>       0.12500000 </v>
   <v>       0.12500000 </v>
   <v>       0.12500000 </v>
   <v>       0.12500000 </v>
   <v>       0.12500000 </v>
   <v>       0.12500000 </v>
   <v>       0.12500000 </v>
   <v>       0.12500000 </v>
  </varray>
 </kpoints>
 <parameters>
  <separator name="general" >
   <i type="string" name="SYSTEM">potpaw_PBE@./ARUN.APL1ZEROSTATE</i>
   <i type="logical" name="LCOMPAT"> F  </i>
  </separator>
  <separator name="electronic" >
   <i type="string" name="PREC">accura</i>
   <i name="ENMAX">    500.00000000</i>
   <i name="ENAUG">    322.06900000</i>
   <i name="EDIFF">      0.00000001</i>
   <i type="int" name="IALGO">    38</i>
   <i type="int" name="IWAVPR">    10</i>
   <i type="int" name="NBANDS">   322</i>
   <i name="NELECT">    512.00000000</i>
   <i type="int" name="TURBO">     0</i>
   <i type="int" name="IRESTART">     0</i>
   <i type="int" name="NREBOOT">     0</i>
   <i type="int" name="NMIN">     0</i>
   <i name="EREF">      0.00000000</i>
   <separator name="electronic smearing" >
    <i type="int" name="ISMEAR">     0</i>
    <i name="SIGMA">      0.01000000</i>
    <i name="KSPACING">      0.50000000</i>
    <i type="logical" name="KGAMMA"> T  </i>
   </separator>
   <separator name="electronic projectors" >
    <i type="logical" name="LREAL"> F  </i>
    <v name="ROPT">      0.00000000</v>
    <i type="int" name="LMAXPAW">  -100</i>
    <i type="int" name="LMAXMIX">     2</i>
    <i type="logical" name="NLSPLINE"> F  </i>
   </separator>
   <separator name="electronic startup" >
    <i type="int" name="ISTART">     0</i>
    <i type="int" name="ICHARG">     2</i>
    <i type="int" name="INIWAV">     1</i>
   </separator>
   <separator name="electronic spin" >
    <i type="int" name="ISPIN">     1</i>
    <i type="logical" name="LNONCOLLINEAR"> F  </i>
    <v name="MAGMOM">      1.00000000      1.00000000      1.00000000      1.00000000      1.00000000      1.00000000      1.00000000      1.00000000      1.00000000      1.00000000      1.00000000      1.00000000      1.00000000      1.00000000      1.00000000      1.00000000      1.00000000      1.00000000      1.00000000      1.00000000
      1.00000000      1.00000000      1.00000000      1.00000000      1.00000000      1.00000000      1.00000000      1.00000000      1.00000000      1.00000000      1.00000000      1.00000000      1.00000000      1.00000000      1.00000000      1.00000000      1.00000000      1.00000000      1.00000000      1.00000000
      1.00000000      1.00000000      1.00000000      1.00000000      1.00000000      1.00000000      1.00000000      1.00000000      1.00000000      1.00000000      1.00000000      1.00000000      1.00000000      1.00000000      1.00000000      1.00000000      1.00000000      1.00000000      1.00000000      1.00000000
      1.00000000      1.00000000      1.00000000      1.00000000      1.00000000      1.00000000      1.00000000      1.00000000      1.00000000      1.00000000      1.00000000      1.00000000      1.00000000      1.00000000      1.00000000      1.00000000      1.00000000      1.00000000      1.00000000      1.00000000
      1.00000000      1.00000000      1.00000000      1.00000000      1.00000000      1.00000000      1.00000000      1.00000000      1.00000000      1.00000000      1.00000000      1.00000000      1.00000000      1.00000000      1.00000000      1.00000000      1.00000000      1.00000000      1.00000000      1.00000000
      1.00000000      1.00000000      1.00000000      1.00000000      1.00000000      1.00000000      1.00000000      1.00000000      1.00000000      1.00000000      1.00000000      1.00000000      1.00000000      1.00000000      1.00000000      1.00000000      1.00000000      1.00000000      1.00000000      1.00000000
      1.00000000      1.00000000      1.00000000      1.00000000      1.00000000      1.00000000      1.00000000      1.00000000</v>
    <i name="NUPDOWN">     -1.00000000</i>
    <i type="logical" name="LSORBIT"> F  </i>
    <v name="SAXIS">      0.00000000      0.00000000      1.00000000</v>
    <i type="logical" name="LSPIRAL"> F  </i>
    <v name="QSPIRAL">      0.00000000      0.00000000      0.00000000</v>
    <i type="logical" name="LZEROZ"> F  </i>
   </separator>
   <separator name="electronic exchange-correlation" >
    <i type="logical" name="LASPH"> F  </i>
    <i type="logical" name="LMETAGGA"> F  </i>
   </separator>
   <separator name="electronic convergence" >
    <i type="int" name="NELM">   120</i>
    <i type="int" name="NELMDL">    -5</i>
    <i type="int" name="NELMIN">     4</i>
    <i name="ENINI">    500.00000000</i>
    <separator name="electronic convergence detail" >
     <i type="logical" name="LDIAG"> T  </i>
     <i type="logical" name="LSUBROT"> F  </i>
     <i name="WEIMIN">      0.00000000</i>
     <i name="EBREAK">      0.00000000</i>
     <i name="DEPER">      0.30000000</i>
     <i type="int" name="NRMM">     4</i>
     <i name="TIME">      0.40000000</i>
    </separator>
   </separator>
   <separator name="electronic mixer" >
    <i name="AMIX">      0.40000000</i>
    <i name="BMIX">      1.00000000</i>
    <i name="AMIN">      0.10000000</i>
    <i name="AMIX_MAG">      1.60000000</i>
    <i name="BMIX_MAG">      1.00000000</i>
    <separator name="electronic mixer details" >
     <i type="int" name="IMIX">     4</i>
     <i type="logical" name="MIXFIRST"> F  </i>
     <i type="int" name="MAXMIX">   -45</i>
     <i name="WC">    100.00000000</i>
     <i type="int" name="INIMIX">     1</i>
     <i type="int" name="MIXPRE">     1</i>
     <i type="int" name="MREMOVE">     5</i>
    </separator>
   </separator>
   <separator name="electronic dipolcorrection" >
    <i type="logical" name="LDIPOL"> F  </i>
    <i type="logical" name="LMONO"> F  </i>
    <i type="int" name="IDIPOL">     0</i>
    <i name="EPSILON">      1.00000000</i>
    <v name="DIPOL">   -100.00000000   -100.00000000   -100.00000000</v>
    <i name="EFIELD">      0.00000000</i>
   </separator>
  </separator>
  <separator name="grids" >
   <i type="int" name="NGX">   120</i>
   <i type="int" name="NGY">   120</i>
   <i type="int" name="NGZ">   120</i>
   <i type="int" name="NGXF">   240</i>
   <i type="int" name="NGYF">   240</i>
   <i type="int" name="NGZF">   240</i>
   <i type="logical" name="ADDGRID"> T  </i>
  </separator>
  <separator name="ionic" >
   <i type="int" name="NSW">     0</i>
   <i type="int" name="IBRION">    -1</i>
   <i type="int" name="MDALGO">     0</i>
   <i type="int" name="ISIF">     2</i>
   <i name="PSTRESS">      0.00000000</i>
   <i name="EDIFFG">      0.00000010</i>
   <i type="int" name="NFREE">     0</i>
   <i name="POTIM">      0.50000000</i>
   <i name="SMASS">     -3.00000000</i>
   <i name="SCALEE">      1.00000000</i>
  </separator>
  <separator name="ionic md" >
   <i name="TEBEG">      0.00010000</i>
   <i name="TEEND">      0.00010000</i>
   <i type="int" name="NBLOCK">     1</i>
   <i type="int" name="KBLOCK">     1</i>
   <i type="int" name="NPACO">   256</i>
   <i name="APACO">     16.00000000</i>
  </separator>
  <separator name="symmetry" >
   <i type="int" name="ISYM">     2</i>
   <i name="SYMPREC">      0.00001000</i>
  </separator>
  <separator name="dos" >
   <i type="int" name="LORBIT">     0</i>
   <v name="RWIGS">     -1.00000000</v>
   <i type="int" name="NEDOS">   301</i>
   <i name="EMIN">     10.00000000</i>
   <i name="EMAX">    -10.00000000</i>
   <i name="EFERMI">      0.00000000</i>
  </separator>
  <separator name="writing" >
   <i type="int" name="NWRITE">     2</i>
   <i type="logical" name="LWAVE"> F  </i>
   <i type="logical" name="LDOWNSAMPLE"> F  </i>
   <i type="logical" name="LCHARG"> F  </i>
   <i type="logical" name="LPARD"> F  </i>
   <i type="logical" name="LVTOT"> F  </i>
   <i type="logical" name="LVHAR"> F  </i>
   <i type="logical" name="LELF"> F  </i>
   <i type="logical" name="LOPTICS"> F  </i>
   <v name="STM">      0.00000000      0.00000000      0.00000000      0.00000000      0.00000000      0.00000000      0.00000000</v>
  </separator>
  <separator name="performance" >
   <i type="int" name="NPAR">     2</i>
   <i type="int" name="NSIM">     4</i>
   <i type="int" name="NBLK">    -1</i>
   <i type="logical" name="LPLANE"> T  </i>
   <i type="logical" name="LSCALAPACK"> T  </i>
   <i type="logical" name="LSCAAWARE"> F  </i>
   <i type="logical" name="LSCALU"> F  </i>
   <i type="logical" name="LASYNC"> F  </i>
   <i type="logical" name="LORBITALREAL"> F  </i>
  </separator>
  <separator name="miscellaneous" >
   <i type="int" name="IDIOT">     3</i>
   <i type="int" name="ISPECIAL">     0</i>
   <i type="logical" name="LMUSIC"> F  </i>
   <v name="POMASS">     28.08500000</v>
   <v name="DARWINR">      0.00000000</v>
   <v name="DARWINV">      1.00000000</v>
   <i type="logical" name="LCORR"> T  </i>
  </separator>
  <i type="logical" name="GGA_COMPAT"> T  </i>
  <i type="logical" name="LBERRY"> F  </i>
  <i type="int" name="ICORELEVEL">     0</i>
  <i type="logical" name="LDAU"> F  </i>
  <i type="int" name="I_CONSTRAINED_M">     0</i>
  <separator name="electronic exchange-correlation" >
   <i type="string" name="GGA">--</i>
   <i type="int" name="VOSKOWN">     0</i>
   <i type="logical" name="LHFCALC"> F  </i>
   <i type="string" name="PRECFOCK"></i>
   <i type="logical" name="LSYMGRAD"> F  </i>
   <i type="logical" name="LHFONE"> F  </i>
   <i type="logical" name="LRHFCALC"> F  </i>
   <i type="logical" name="LTHOMAS"> F  </i>
   <i type="logical" name="LMODELHF"> F  </i>
   <i name="ENCUT4O">     -1.00000000</i>
   <i type="int" name="EXXOEP">     0</i>
   <i type="int" name="FOURORBIT">     0</i>
   <i name="AEXX">      0.00000000</i>
   <i name="HFALPHA">      0.00000000</i>
   <i name="MCALPHA">      0.00000000</i>
   <i name="ALDAX">      1.00000000</i>
   <i name="AGGAX">      1.00000000</i>
   <i name="ALDAC">      1.00000000</i>
   <i name="AGGAC">      1.00000000</i>
   <i type="int" name="NKREDX">     1</i>
   <i type="int" name="NKREDY">     1</i>
   <i type="int" name="NKREDZ">     1</i>
   <i type="logical" name="SHIFTRED"> F  </i>
   <i type="logical" name="ODDONLY"> F  </i>
   <i type="logical" name="EVENONLY"> F  </i>
   <i type="int" name="LMAXFOCK">     0</i>
   <i type="int" name="NMAXFOCKAE">     0</i>
   <i type="logical" name="LFOCKAEDFT"> F  </i>
   <i name="HFSCREEN">      0.00000000</i>
   <i name="HFSCREENC">      0.00000000</i>
   <i type="int" name="NBANDSGWLOW">     0</i>
  </separator>
  <separator name="vdW DFT" >
   <i type="logical" name="LUSE_VDW"> F  </i>
   <i name="Zab_VDW">     -0.84910000</i>
   <i name="PARAM1">      0.12340000</i>
   <i name="PARAM2">      1.00000000</i>
   <i name="PARAM3">      0.00000000</i>
  </separator>
  <separator name="model GW" >
   <i type="int" name="MODEL_GW">     0</i>
   <i name="MODEL_EPS0">     12.26607635</i>
   <i name="MODEL_ALPHA">      1.00000000</i>
  </separator>
  <separator name="linear response parameters" >
   <i type="logical" name="LEPSILON"> F  </i>
   <i type="logical" name="LRPA"> F  </i>
   <i type="logical" name="LNABLA"> F  </i>
   <i type="logical" name="LVEL"> F  </i>
   <i type="int" name="KINTER">     0</i>
   <i name="CSHIFT">      0.10000000</i>
   <i name="OMEGAMAX">     -1.00000000</i>
   <i name="DEG_THRESHOLD">      0.00200000</i>
   <i name="RTIME">     -0.10000000</i>
   <i name="WPLASMAI">      0.00000000</i>
   <v name="DFIELD">      0.00000000      0.00000000      0.00000000</v>
   <v name="WPLASMA">      0.00000000      0.00000000      0.00000000      0.00000000      0.00000000      0.00000000      0.00000000      0.00000000      0.00000000</v>
  </separator>
  <separator name="orbital magnetization" >
   <i type="logical" name="NUCIND"> F  </i>
   <v name="MAGPOS">      0.00000000      0.00000000      0.00000000</v>
   <i type="logical" name="LNICSALL"> T  </i>
   <i type="logical" name="ORBITALMAG"> F  </i>
   <i type="logical" name="LMAGBLOCH"> F  </i>
   <i type="logical" name="LCHIMAG"> F  </i>
   <i type="logical" name="LGAUGE"> T  </i>
   <i type="int" name="MAGATOM">     0</i>
   <v name="MAGDIPOL">      0.00000000      0.00000000      0.00000000</v>
   <v name="AVECCONST">      0.00000000      0.00000000      0.00000000</v>
  </separator>
  <separator name="response functions" >
   <i type="logical" name="LADDER"> F  </i>
   <i type="logical" name="LRPAFORCE"> F  </i>
   <i type="logical" name="LFXC"> F  </i>
   <i type="logical" name="LHARTREE"> T  </i>
   <i type="int" name="IBSE">     0</i>
   <v type="int" name="KPOINT">    -1     0     0     0</v>
   <i type="logical" name="LTCTE"> F  </i>
   <i type="logical" name="LTETE"> F  </i>
   <i type="logical" name="LTRIPLET"> F  </i>
   <i type="logical" name="LFXCEPS"> F  </i>
   <i type="logical" name="LFXHEG"> F  </i>
   <i type="int" name="NATURALO">     2</i>
   <i type="logical" name="L2ORDER"> F  </i>
   <i type="logical" name="LMP2LT"> F  </i>
   <i type="logical" name="LUSEW"> F  </i>
   <i name="ENCUTGW">     -2.00000000</i>
   <i name="ENCUTGWSOFT">     -2.00000000</i>
   <i name="ENCUTLF">     -1.00000000</i>
   <i type="int" name="LMAXMP2">    -1</i>
   <i name="SCISSOR">      0.00000000</i>
   <i type="int" name="NOMEGA">     0</i>
   <i type="int" name="NOMEGAR">     0</i>
   <i type="int" name="NBANDSGW">    -1</i>
   <i type="int" name="NBANDSO">    -1</i>
   <i type="int" name="NBANDSV">    -1</i>
   <i type="int" name="NELM">   120</i>
   <i type="int" name="NELMHF">     1</i>
   <i type="int" name="DIM">     3</i>
   <i type="int" name="ANTIRES">     0</i>
   <i name="OMEGAMAX">    -30.00000000</i>
   <i name="OMEGAMIN">    -30.00000000</i>
   <i name="OMEGATL">   -200.00000000</i>
   <i type="int" name="OMEGAGRID">   140</i>
   <i name="CSHIFT">     -0.10000000</i>
   <i type="logical" name="SELFENERGY"> F  </i>
   <i type="logical" name="LSPECTRAL"> F  </i>
   <i type="logical" name="LSPECTRALGW"> F  </i>
   <i type="logical" name="LSINGLES"> F  </i>
   <i type="logical" name="LFERMIGW"> F  </i>
   <i type="logical" name="ODDONLYGW"> F  </i>
   <i type="logical" name="EVENONLYGW"> F  </i>
   <i type="int" name="NKREDLFX">     1</i>
   <i type="int" name="NKREDLFY">     1</i>
   <i type="int" name="NKREDLFZ">     1</i>
   <i type="int" name="MAXMEM">  2800</i>
   <i type="int" name="TELESCOPE">     0</i>
   <i type="int" name="TAUPAR">     1</i>
   <i type="int" name="OMEGAPAR">    -1</i>
   <i name="LAMBDA">      1.00000000</i>
  </separator>
  <separator name="External order field" >
   <i name="OFIELD_KAPPA">      0.00000000</i>
   <v name="OFIELD_K">      0.00000000      0.00000000      0.00000000</v>
   <i name="OFIELD_Q6_NEAR">      0.00000000</i>
   <i name="OFIELD_Q6_FAR">      0.00000000</i>
   <i name="OFIELD_A">      0.00000000</i>
  </separator>
 </parameters>
 <atominfo>
  <atoms>     128 </atoms>
  <types>       1 </types>
  <array name="atoms" >
   <dimension dim="1">ion</dimension>
   <field type="string">element</field>
   <field type="int">atomtype</field>
   <set>
    <rc><c>Si</c><c>   1</c></rc>
    <rc><c>Si</c><c>   1</c></rc>
    <rc><c>Si</c><c>   1</c></rc>
    <rc><c>Si</c><c>   1</c></rc>
    <rc><c>Si</c><c>   1</c></rc>
    <rc><c>Si</c><c>   1</c></rc>
    <rc><c>Si</c><c>   1</c></rc>
    <rc><c>Si</c><c>   1</c></rc>
    <rc><c>Si</c><c>   1</c></rc>
    <rc><c>Si</c><c>   1</c></rc>
    <rc><c>Si</c><c>   1</c></rc>
    <rc><c>Si</c><c>   1</c></rc>
    <rc><c>Si</c><c>   1</c></rc>
    <rc><c>Si</c><c>   1</c></rc>
    <rc><c>Si</c><c>   1</c></rc>
    <rc><c>Si</c><c>   1</c></rc>
    <rc><c>Si</c><c>   1</c></rc>
    <rc><c>Si</c><c>   1</c></rc>
    <rc><c>Si</c><c>   1</c></rc>
    <rc><c>Si</c><c>   1</c></rc>
    <rc><c>Si</c><c>   1</c></rc>
    <rc><c>Si</c><c>   1</c></rc>
    <rc><c>Si</c><c>   1</c></rc>
    <rc><c>Si</c><c>   1</c></rc>
    <rc><c>Si</c><c>   1</c></rc>
    <rc><c>Si</c><c>   1</c></rc>
    <rc><c>Si</c><c>   1</c></rc>
    <rc><c>Si</c><c>   1</c></rc>
    <rc><c>Si</c><c>   1</c></rc>
    <rc><c>Si</c><c>   1</c></rc>
    <rc><c>Si</c><c>   1</c></rc>
    <rc><c>Si</c><c>   1</c></rc>
    <rc><c>Si</c><c>   1</c></rc>
    <rc><c>Si</c><c>   1</c></rc>
    <rc><c>Si</c><c>   1</c></rc>
    <rc><c>Si</c><c>   1</c></rc>
    <rc><c>Si</c><c>   1</c></rc>
    <rc><c>Si</c><c>   1</c></rc>
    <rc><c>Si</c><c>   1</c></rc>
    <rc><c>Si</c><c>   1</c></rc>
    <rc><c>Si</c><c>   1</c></rc>
    <rc><c>Si</c><c>   1</c></rc>
    <rc><c>Si</c><c>   1</c></rc>
    <rc><c>Si</c><c>   1</c></rc>
    <rc><c>Si</c><c>   1</c></rc>
    <rc><c>Si</c><c>   1</c></rc>
    <rc><c>Si</c><c>   1</c></rc>
    <rc><c>Si</c><c>   1</c></rc>
    <rc><c>Si</c><c>   1</c></rc>
    <rc><c>Si</c><c>   1</c></rc>
    <rc><c>Si</c><c>   1</c></rc>
    <rc><c>Si</c><c>   1</c></rc>
    <rc><c>Si</c><c>   1</c></rc>
    <rc><c>Si</c><c>   1</c></rc>
    <rc><c>Si</c><c>   1</c></rc>
    <rc><c>Si</c><c>   1</c></rc>
    <rc><c>Si</c><c>   1</c></rc>
    <rc><c>Si</c><c>   1</c></rc>
    <rc><c>Si</c><c>   1</c></rc>
    <rc><c>Si</c><c>   1</c></rc>
    <rc><c>Si</c><c>   1</c></rc>
    <rc><c>Si</c><c>   1</c></rc>
    <rc><c>Si</c><c>   1</c></rc>
    <rc><c>Si</c><c>   1</c></rc>
    <rc><c>Si</c><c>   1</c></rc>
    <rc><c>Si</c><c>   1</c></rc>
    <rc><c>Si</c><c>   1</c></rc>
    <rc><c>Si</c><c>   1</c></rc>
    <rc><c>Si</c><c>   1</c></rc>
    <rc><c>Si</c><c>   1</c></rc>
    <rc><c>Si</c><c>   1</c></rc>
    <rc><c>Si</c><c>   1</c></rc>
    <rc><c>Si</c><c>   1</c></rc>
    <rc><c>Si</c><c>   1</c></rc>
    <rc><c>Si</c><c>   1</c></rc>
    <rc><c>Si</c><c>   1</c></rc>
    <rc><c>Si</c><c>   1</c></rc>
    <rc><c>Si</c><c>   1</c></rc>
    <rc><c>Si</c><c>   1</c></rc>
    <rc><c>Si</c><c>   1</c></rc>
    <rc><c>Si</c><c>   1</c></rc>
    <rc><c>Si</c><c>   1</c></rc>
    <rc><c>Si</c><c>   1</c></rc>
    <rc><c>Si</c><c>   1</c></rc>
    <rc><c>Si</c><c>   1</c></rc>
    <rc><c>Si</c><c>   1</c></rc>
    <rc><c>Si</c><c>   1</c></rc>
    <rc><c>Si</c><c>   1</c></rc>
    <rc><c>Si</c><c>   1</c></rc>
    <rc><c>Si</c><c>   1</c></rc>
    <rc><c>Si</c><c>   1</c></rc>
    <rc><c>Si</c><c>   1</c></rc>
    <rc><c>Si</c><c>   1</c></rc>
    <rc><c>Si</c><c>   1</c></rc>
    <rc><c>Si</c><c>   1</c></rc>
    <rc><c>Si</c><c>   1</c></rc>
    <rc><c>Si</c><c>   1</c></rc>
    <rc><c>Si</c><c>   1</c></rc>
    <rc><c>Si</c><c>   1</c></rc>
    <rc><c>Si</c><c>   1</c></rc>
    <rc><c>Si</c><c>   1</c></rc>
    <rc><c>Si</c><c>   1</c></rc>
    <rc><c>Si</c><c>   1</c></rc>
    <rc><c>Si</c><c>   1</c></rc>
    <rc><c>Si</c><c>   1</c></rc>
    <rc><c>Si</c><c>   1</c></rc>
    <rc><c>Si</c><c>   1</c></rc>
    <rc><c>Si</c><c>   1</c></rc>
    <rc><c>Si</c><c>   1</c></rc>
    <rc><c>Si</c><c>   1</c></rc>
    <rc><c>Si</c><c>   1</c></rc>
    <rc><c>Si</c><c>   1</c></rc>
    <rc><c>Si</c><c>   1</c></rc>
    <rc><c>Si</c><c>   1</c></rc>
    <rc><c>Si</c><c>   1</c></rc>
    <rc><c>Si</c><c>   1</c></rc>
    <rc><c>Si</c><c>   1</c></rc>
    <rc><c>Si</c><c>   1</c></rc>
    <rc><c>Si</c><c>   1</c></rc>
    <rc><c>Si</c><c>   1</c></rc>
    <rc><c>Si</c><c>   1</c></rc>
    <rc><c>Si</c><c>   1</c></rc>
    <rc><c>Si</c><c>   1</c></rc>
    <rc><c>Si</c><c>   1</c></rc>
    <rc><c>Si</c><c>   1</c></rc>
    <rc><c>Si</c><c>   1</c></rc>
    <rc><c>Si</c><c>   1</c></rc>
    <rc><c>Si</c><c>   1</c></rc>
   </set>
  </array>
  <array name="atomtypes" >
   <dimension dim="1">type</dimension>
   <field type="int">atomspertype</field>
   <field type="string">element</field>
   <field>mass</field>
   <field>valence</field>
   <field type="string">pseudopotential</field>
   <set>
    <rc><c> 128</c><c>Si</c><c>     28.08500000</c><c>      4.00000000</c><c> PAW_PBE Si 05Jan2001                   </c></rc>
   </set>
  </array>
 </atominfo>
 <structure name="initialpos" >
  <crystal>
   <varray name="basis" >
    <v>       0.00000000      10.93733369      10.93733369 </v>
    <v>      10.93733369       0.00000000      10.93733369 </v>
    <v>      10.93733369      10.93733369       0.00000000 </v>
   </varray>
   <i name="volume">   2616.76295363 </i>
   <varray name="rec_basis" >
    <v>      -0.04571498       0.04571498       0.04571498 </v>
    <v>       0.04571498      -0.04571498       0.04571498 </v>
    <v>       0.04571498       0.04571498      -0.04571498 </v>
   </varray>
  </crystal>
  <varray name="positions" >
   <v>       0.99882844       0.00440442       0.99254703 </v>
   <v>       0.25177659       0.99210883       0.00663379 </v>
   <v>       0.49025427       0.00581060       0.00466224 </v>
   <v>       0.74759288       0.01469616       0.98724545 </v>
   <v>       0.00355808       0.24624018       0.00442162 </v>
   <v>       0.25241468       0.25099816       0.99897431 </v>
   <v>       0.49296553       0.24368636       0.00948336 </v>
   <v>       0.75204939       0.24536792       0.00452023 </v>
   <v>       0.00348513       0.48764967       0.00623127 </v>
   <v>       0.24050545       0.50628261       0.99566663 </v>
   <v>       0.49625435       0.49507582       0.01063849 </v>
   <v>       0.74542052       0.50206287       0.00001870 </v>
   <v>       0.99250704       0.74378658       0.00716645 </v>
   <v>       0.25067570       0.75738084       0.99468496 </v>
   <v>       0.50121415       0.74760383       0.01149150 </v>
   <v>       0.74883888       0.73767028       0.01838914 </v>
   <v>       0.99164070       0.01098085       0.25409575 </v>
   <v>       0.23776398       0.01914589       0.24156178 </v>
   <v>       0.49610619       0.99619043       0.25778619 </v>
   <v>       0.73894446       0.00943150       0.25800677 </v>
   <v>       0.00252884       0.25278709       0.24594722 </v>
   <v>       0.25495934       0.24954047       0.24928819 </v>
   <v>       0.50379088       0.24292181       0.25152074 </v>
   <v>       0.75025968       0.24613869       0.25569610 </v>
   <v>       0.00105111       0.49663798       0.24875592 </v>
   <v>       0.25697233       0.49809543       0.24974790 </v>
   <v>       0.49940271       0.49328806       0.24809363 </v>
   <v>       0.75003025       0.50160439       0.25057621 </v>
   <v>       0.98031791       0.75047342       0.26413998 </v>
   <v>       0.24513681       0.75028751       0.25241647 </v>
   <v>       0.50593324       0.75156848       0.24760433 </v>
   <v>       0.74410747       0.74961242       0.25254421 </v>
   <v>       0.99586837       0.99638628       0.50526411 </v>
   <v>       0.23828988       0.00287488       0.51248448 </v>
   <v>       0.51300987       0.98793703       0.50436876 </v>
   <v>       0.76231946       0.99605537       0.48901179 </v>
   <v>       0.01216303       0.23778781       0.50043984 </v>
   <v>       0.25559469       0.25085138       0.49167057 </v>
   <v>       0.49344042       0.24237753       0.50518978 </v>
   <v>       0.74674254       0.25117780       0.50541144 </v>
   <v>       0.00555668       0.49573272       0.49488980 </v>
   <v>       0.24527833       0.49241945       0.51504896 </v>
   <v>       0.49574984       0.50000109       0.50039617 </v>
   <v>       0.77030324       0.50806277       0.49008474 </v>
   <v>       0.99704760       0.74015887       0.50559922 </v>
   <v>       0.26621580       0.74537641       0.49363937 </v>
   <v>       0.51194367       0.73570050       0.49723668 </v>
   <v>       0.75365149       0.75080201       0.49942407 </v>
   <v>       0.00018138       0.00136818       0.75356927 </v>
   <v>       0.25445741       0.99538318       0.74897552 </v>
   <v>       0.50603861       0.00201255       0.74625934 </v>
   <v>       0.75214433       0.98897257       0.75823415 </v>
   <v>       0.00355746       0.25511291       0.74200097 </v>
   <v>       0.24642852       0.25788934       0.75254084 </v>
   <v>       0.49703822       0.25267988       0.75458404 </v>
   <v>       0.75554388       0.25193598       0.74908251 </v>
   <v>       0.00250603       0.48254040       0.75257253 </v>
   <v>       0.24807385       0.50292431       0.75252762 </v>
   <v>       0.50129040       0.49460495       0.74843201 </v>
   <v>       0.76472791       0.48483516       0.75390807 </v>
   <v>       0.00077540       0.74418888       0.74963725 </v>
   <v>       0.24651884       0.74877082       0.75954020 </v>
   <v>       0.50569896       0.74240172       0.76156073 </v>
   <v>       0.74655308       0.74892414       0.75841620 </v>
   <v>       0.07444882       0.06207933       0.04868692 </v>
   <v>       0.31038349       0.06931063       0.05556348 </v>
   <v>       0.55902207       0.06012430       0.06437207 </v>
   <v>       0.80477582       0.06493306       0.07900427 </v>
   <v>       0.06961480       0.30739244       0.06777293 </v>
   <v>       0.30970377       0.31700786       0.05425979 </v>
   <v>       0.55340601       0.31650535       0.05378692 </v>
   <v>       0.81521813       0.30669822       0.06886759 </v>
   <v>       0.06805874       0.56744466       0.05760492 </v>
   <v>       0.31528768       0.54522128       0.07603436 </v>
   <v>       0.55744479       0.56397075       0.07723856 </v>
   <v>       0.81819864       0.55293029       0.06686814 </v>
   <v>       0.06086855       0.80675987       0.07323646 </v>
   <v>       0.31205083       0.81384610       0.06137004 </v>
   <v>       0.56364885       0.81100750       0.06817226 </v>
   <v>       0.81056971       0.81208794       0.07012474 </v>
   <v>       0.05509405       0.05957195       0.32258224 </v>
   <v>       0.31708318       0.05689669       0.30759161 </v>
   <v>       0.56403003       0.05291936       0.30909322 </v>
   <v>       0.81362865       0.07225961       0.29690265 </v>
   <v>       0.06216761       0.30099908       0.30955386 </v>
   <v>       0.31249351       0.31400218       0.30561830 </v>
   <v>       0.56740062       0.31554785       0.30876351 </v>
   <v>       0.81408504       0.32538105       0.30362473 </v>
   <v>       0.05849021       0.57647323       0.30946625 </v>
   <v>       0.31609385       0.57600850       0.31027321 </v>
   <v>       0.55904249       0.55970628       0.31274009 </v>
   <v>       0.82216946       0.56093090       0.31220177 </v>
   <v>       0.06127910       0.80799469       0.31869992 </v>
   <v>       0.31091297       0.80524645       0.31332583 </v>
   <v>       0.56755240       0.80779962       0.30179763 </v>
   <v>       0.80418664       0.81914349       0.31833540 </v>
   <v>       0.04565955       0.05543212       0.56928941 </v>
   <v>       0.31801714       0.06254138       0.55660674 </v>
   <v>       0.56795580       0.05206067       0.56277180 </v>
   <v>       0.82361295       0.06134761       0.55694322 </v>
   <v>       0.06118819       0.31078208       0.56381602 </v>
   <v>       0.30946013       0.31375028       0.56149406 </v>
   <v>       0.55975124       0.31980409       0.55664784 </v>
   <v>       0.81610367       0.31182845       0.56154612 </v>
   <v>       0.05089633       0.56375963       0.56777955 </v>
   <v>       0.31138471       0.55414443       0.57016784 </v>
   <v>       0.55804753       0.56483303       0.56738158 </v>
   <v>       0.80936548       0.55931078       0.56967739 </v>
   <v>       0.06281279       0.81041212       0.56749365 </v>
   <v>       0.31518760       0.80554526       0.57835887 </v>
   <v>       0.55642513       0.81364755       0.56755185 </v>
   <v>       0.81288770       0.80347968       0.56463469 </v>
   <v>       0.07175288       0.06826074       0.80043693 </v>
   <v>       0.29399009       0.05988147       0.82964205 </v>
   <v>       0.55890761       0.07035147       0.81227630 </v>
   <v>       0.81837821       0.06328884       0.79680509 </v>
   <v>       0.06763968       0.30512124       0.81576587 </v>
   <v>       0.31889390       0.30569535       0.81735130 </v>
   <v>       0.56172740       0.31280580       0.80955568 </v>
   <v>       0.81364653       0.31655789       0.79689258 </v>
   <v>       0.04970355       0.55553371       0.81683871 </v>
   <v>       0.31628280       0.56081407       0.81667511 </v>
   <v>       0.56621103       0.56673094       0.80631678 </v>
   <v>       0.81865426       0.55694003       0.80644025 </v>
   <v>       0.06565805       0.81100359       0.81456026 </v>
   <v>       0.31153132       0.81473072       0.80965053 </v>
   <v>       0.55826024       0.81059847       0.82382808 </v>
   <v>       0.82287229       0.80490725       0.81203995 </v>
  </varray>
 </structure>
 <calculation>
  <scstep>
   <time name="dav">   69.50   69.52</time>
   <time name="total">   70.51   70.53</time>
   <energy>
    <i name="alphaZ">    210.77028614 </i>
    <i name="ewald"> -14470.42590537 </i>
    <i name="hartreedc">   -758.14713910 </i>
    <i name="XCdc">  -1195.34697998 </i>
    <i name="pawpsdc">   4221.13331941 </i>
    <i name="pawaedc">  -1969.18571412 </i>
    <i name="eentropy">     -0.00103628 </i>
    <i name="bandstr">   2151.97290472 </i>
    <i name="atom">  13192.48085998 </i>
    <i name="e_fr_energy">   1383.25059542 </i>
    <i name="e_wo_entrp">   1383.25163170 </i>
    <i name="e_0_energy">   1383.25111356 </i>
   </energy>
  </scstep>
  <scstep>
   <time name="dav">   78.66   78.67</time>
   <time name="total">   78.67   78.68</time>
   <energy>
    <i name="e_fr_energy">   -535.84344862 </i>
    <i name="e_wo_entrp">   -535.84344861 </i>
    <i name="e_0_energy">   -535.84344862 </i>
   </energy>
  </scstep>
  <scstep>
   <time name="dav">   80.99   81.01</time>
   <time name="total">   81.00   81.01</time>
   <energy>
    <i name="e_fr_energy">   -686.89666347 </i>
    <i name="e_wo_entrp">   -686.89666347 </i>
    <i name="e_0_energy">   -686.89666347 </i>
   </energy>
  </scstep>
  <scstep>
   <time name="dav">   79.76   79.77</time>
   <time name="total">   79.76   79.78</time>
   <energy>
    <i name="e_fr_energy">   -691.12445376 </i>
    <i name="e_wo_entrp">   -691.12445376 </i>
    <i name="e_0_energy">   -691.12445376 </i>
   </energy>
  </scstep>
  <scstep>
   <time name="dav">   80.95   80.97</time>
   <time name="total">   84.22   84.24</time>
   <energy>
    <i name="e_fr_energy">   -691.26596577 </i>
    <i name="e_wo_entrp">   -691.26596577 </i>
    <i name="e_0_energy">   -691.26596577 </i>
   </energy>
  </scstep>
  <scstep>
   <time name="dav">   76.72   76.74</time>
   <time name="total">   80.97   80.99</time>
   <energy>
    <i name="e_fr_energy">   -682.80383733 </i>
    <i name="e_wo_entrp">   -682.80383733 </i>
    <i name="e_0_energy">   -682.80383733 </i>
   </energy>
  </scstep>
  <scstep>
   <time name="dav">   76.19   76.21</time>
   <time name="total">   80.44   80.45</time>
   <energy>
    <i name="e_fr_energy">   -679.28269663 </i>
    <i name="e_wo_entrp">   -679.28269663 </i>
    <i name="e_0_energy">   -679.28269663 </i>
   </energy>
  </scstep>
  <scstep>
   <time name="dav">   75.86   75.88</time>
   <time name="total">   80.04   80.06</time>
   <energy>
    <i name="e_fr_energy">   -679.33544693 </i>
    <i name="e_wo_entrp">   -679.33544693 </i>
    <i name="e_0_energy">   -679.33544693 </i>
   </energy>
  </scstep>
  <scstep>
   <time name="dav">   78.32   78.34</time>
   <time name="total">   82.50   82.53</time>
   <energy>
    <i name="e_fr_energy">   -679.35936289 </i>
    <i name="e_wo_entrp">   -679.35936289 </i>
    <i name="e_0_energy">   -679.35936289 </i>
   </energy>
  </scstep>
  <scstep>
   <time name="dav">   77.97   77.99</time>
   <time name="total">   82.14   82.16</time>
   <energy>
    <i name="e_fr_energy">   -679.36175867 </i>
    <i name="e_wo_entrp">   -679.36175867 </i>
    <i name="e_0_energy">   -679.36175867 </i>
   </energy>
  </scstep>
  <scstep>
   <time name="dav">   75.31   75.32</time>
   <time name="total">   79.52   79.53</time>
   <energy>
    <i name="e_fr_energy">   -679.36337613 </i>
    <i name="e_wo_entrp">   -679.36337613 </i>
    <i name="e_0_energy">   -679.36337613 </i>
   </energy>
  </scstep>
  <scstep>
   <time name="dav">   79.18   79.21</time>
   <time name="total">   83.39   83.42</time>
   <energy>
    <i name="e_fr_energy">   -679.36346554 </i>
    <i name="e_wo_entrp">   -679.36346554 </i>
    <i name="e_0_energy">   -679.36346554 </i>
   </energy>
  </scstep>
  <scstep>
   <time name="dav">   75.51   75.53</time>
   <time name="total">   79.68   79.84</time>
   <energy>
    <i name="e_fr_energy">   -679.36349487 </i>
    <i name="e_wo_entrp">   -679.36349487 </i>
    <i name="e_0_energy">   -679.36349487 </i>
   </energy>
  </scstep>
  <scstep>
   <time name="dav">   78.89   78.91</time>
   <time name="total">   83.04   83.07</time>
   <energy>
    <i name="e_fr_energy">   -679.36350048 </i>
    <i name="e_wo_entrp">   -679.36350048 </i>
    <i name="e_0_energy">   -679.36350048 </i>
   </energy>
  </scstep>
  <scstep>
   <time name="dav">   80.02   80.04</time>
   <time name="total">   84.19   84.21</time>
   <energy>
    <i name="e_fr_energy">   -679.36350367 </i>
    <i name="e_wo_entrp">   -679.36350367 </i>
    <i name="e_0_energy">   -679.36350367 </i>
   </energy>
  </scstep>
  <scstep>
   <time name="dav">   77.47   77.49</time>
   <time name="total">   81.53   81.55</time>
   <energy>
    <i name="e_fr_energy">   -679.36350314 </i>
    <i name="e_wo_entrp">   -679.36350314 </i>
    <i name="e_0_energy">   -679.36350314 </i>
   </energy>
  </scstep>
  <scstep>
   <time name="dav">   57.11   57.12</time>
   <time name="total">   61.16   61.17</time>
   <energy>
    <i name="e_fr_energy">   -679.36350320 </i>
    <i name="e_wo_entrp">   -679.36350320 </i>
    <i name="e_0_energy">   -679.36350320 </i>
   </energy>
  </scstep>
  <scstep>
   <time name="dav">   51.34   51.34</time>
   <time name="total">   55.40   55.41</time>
   <energy>
    <i name="e_fr_energy">   -679.36350330 </i>
    <i name="e_wo_entrp">   -679.36350330 </i>
    <i name="e_0_energy">   -679.36350330 </i>
   </energy>
  </scstep>
  <scstep>
   <time name="dav">   50.75   50.77</time>
   <time name="total">   54.81   54.83</time>
   <energy>
    <i name="e_fr_energy">   -679.36350325 </i>
    <i name="e_wo_entrp">   -679.36350325 </i>
    <i name="e_0_energy">   -679.36350325 </i>
   </energy>
  </scstep>
  <scstep>
   <time name="dav">   49.81   49.82</time>
   <time name="total">   50.81   50.81</time>
   <energy>
    <i name="alphaZ">    210.77028614 </i>
    <i name="ewald"> -14470.42590537 </i>
    <i name="hartreedc">  -1003.51916633 </i>
    <i name="XCdc">  -1155.85593409 </i>
    <i name="pawpsdc">   4729.88929213 </i>
    <i name="pawaedc">  -2491.58730219 </i>
    <i name="eentropy">     -0.00000000 </i>
    <i name="bandstr">    308.88436648 </i>
    <i name="atom">  13192.48085998 </i>
    <i name="e_fr_energy">   -679.36350325 </i>
    <i name="e_wo_entrp">   -679.36350325 </i>
    <i name="e_0_energy">   -679.36350325 </i>
   </energy>
  </scstep>
  <structure>
   <crystal>
    <varray name="basis" >
     <v>       0.00000000      10.93733369      10.93733369 </v>
     <v>      10.93733369       0.00000000      10.93733369 </v>
     <v>      10.93733369      10.93733369       0.00000000 </v>
    </varray>
    <i name="volume">   2616.76295363 </i>
    <varray name="rec_basis" >
     <v>      -0.04571498       0.04571498       0.04571498 </v>
     <v>       0.04571498      -0.04571498       0.04571498 </v>
     <v>       0.04571498       0.04571498      -0.04571498 </v>
    </varray>
   </crystal>
   <varray name="positions" >
    <v>       0.99882844       0.00440442       0.99254703 </v>
    <v>       0.25177659       0.99210883       0.00663379 </v>
    <v>       0.49025427       0.00581060       0.00466224 </v>
    <v>       0.74759288       0.01469616       0.98724545 </v>
    <v>       0.00355808       0.24624018       0.00442162 </v>
    <v>       0.25241468       0.25099816       0.99897431 </v>
    <v>       0.49296553       0.24368636       0.00948336 </v>
    <v>       0.75204939       0.24536792       0.00452023 </v>
    <v>       0.00348513       0.48764967       0.00623127 </v>
    <v>       0.24050545       0.50628261       0.99566663 </v>
    <v>       0.49625435       0.49507582       0.01063849 </v>
    <v>       0.74542052       0.50206287       0.00001870 </v>
    <v>       0.99250704       0.74378658       0.00716645 </v>
    <v>       0.25067570       0.75738084       0.99468496 </v>
    <v>       0.50121415       0.74760383       0.01149150 </v>
    <v>       0.74883888       0.73767028       0.01838914 </v>
    <v>       0.99164070       0.01098085       0.25409575 </v>
    <v>       0.23776398       0.01914589       0.24156178 </v>
    <v>       0.49610619       0.99619043       0.25778619 </v>
    <v>       0.73894446       0.00943150       0.25800677 </v>
    <v>       0.00252884       0.25278709       0.24594722 </v>
    <v>       0.25495934       0.24954047       0.24928819 </v>
    <v>       0.50379088       0.24292181       0.25152074 </v>
    <v>       0.75025968       0.24613869       0.25569610 </v>
    <v>       0.00105111       0.49663798       0.24875592 </v>
    <v>       0.25697233       0.49809543       0.24974790 </v>
    <v>       0.49940271       0.49328806       0.24809363 </v>
    <v>       0.75003025       0.50160439       0.25057621 </v>
    <v>       0.98031791       0.75047342       0.26413998 </v>
    <v>       0.24513681       0.75028751       0.25241647 </v>
    <v>       0.50593324       0.75156848       0.24760433 </v>
    <v>       0.74410747       0.74961242       0.25254421 </v>
    <v>       0.99586837       0.99638628       0.50526411 </v>
    <v>       0.23828988       0.00287488       0.51248448 </v>
    <v>       0.51300987       0.98793703       0.50436876 </v>
    <v>       0.76231946       0.99605537       0.48901179 </v>
    <v>       0.01216303       0.23778781       0.50043984 </v>
    <v>       0.25559469       0.25085138       0.49167057 </v>
    <v>       0.49344042       0.24237753       0.50518978 </v>
    <v>       0.74674254       0.25117780       0.50541144 </v>
    <v>       0.00555668       0.49573272       0.49488980 </v>
    <v>       0.24527833       0.49241945       0.51504896 </v>
    <v>       0.49574984       0.50000109       0.50039617 </v>
    <v>       0.77030324       0.50806277       0.49008474 </v>
    <v>       0.99704760       0.74015887       0.50559922 </v>
    <v>       0.26621580       0.74537641       0.49363937 </v>
    <v>       0.51194367       0.73570050       0.49723668 </v>
    <v>       0.75365149       0.75080201       0.49942407 </v>
    <v>       0.00018138       0.00136818       0.75356927 </v>
    <v>       0.25445741       0.99538318       0.74897552 </v>
    <v>       0.50603861       0.00201255       0.74625934 </v>
    <v>       0.75214433       0.98897257       0.75823415 </v>
    <v>       0.00355746       0.25511291       0.74200097 </v>
    <v>       0.24642852       0.25788934       0.75254084 </v>
    <v>       0.49703822       0.25267988       0.75458404 </v>
    <v>       0.75554388       0.25193598       0.74908251 </v>
    <v>       0.00250603       0.48254040       0.75257253 </v>
    <v>       0.24807385       0.50292431       0.75252762 </v>
    <v>       0.50129040       0.49460495       0.74843201 </v>
    <v>       0.76472791       0.48483516       0.75390807 </v>
    <v>       0.00077540       0.74418888       0.74963725 </v>
    <v>       0.24651884       0.74877082       0.75954020 </v>
    <v>       0.50569896       0.74240172       0.76156073 </v>
    <v>       0.74655308       0.74892414       0.75841620 </v>
    <v>       0.07444882       0.06207933       0.04868692 </v>
    <v>       0.31038349       0.06931063       0.05556348 </v>
    <v>       0.55902207       0.06012430       0.06437207 </v>
    <v>       0.80477582       0.06493306       0.07900427 </v>
    <v>       0.06961480       0.30739244       0.06777293 </v>
    <v>       0.30970377       0.31700786       0.05425979 </v>
    <v>       0.55340601       0.31650535       0.05378692 </v>
    <v>       0.81521813       0.30669822       0.06886759 </v>
    <v>       0.06805874       0.56744466       0.05760492 </v>
    <v>       0.31528768       0.54522128       0.07603436 </v>
    <v>       0.55744479       0.56397075       0.07723856 </v>
    <v>       0.81819864       0.55293029       0.06686814 </v>
    <v>       0.06086855       0.80675987       0.07323646 </v>
    <v>       0.31205083       0.81384610       0.06137004 </v>
    <v>       0.56364885       0.81100750       0.06817226 </v>
    <v>       0.81056971       0.81208794       0.07012474 </v>
    <v>       0.05509405       0.05957195       0.32258224 </v>
    <v>       0.31708318       0.05689669       0.30759161 </v>
    <v>       0.56403003       0.05291936       0.30909322 </v>
    <v>       0.81362865       0.07225961       0.29690265 </v>
    <v>       0.06216761       0.30099908       0.30955386 </v>
    <v>       0.31249351       0.31400218       0.30561830 </v>
    <v>       0.56740062       0.31554785       0.30876351 </v>
    <v>       0.81408504       0.32538105       0.30362473 </v>
    <v>       0.05849021       0.57647323       0.30946625 </v>
    <v>       0.31609385       0.57600850       0.31027321 </v>
    <v>       0.55904249       0.55970628       0.31274009 </v>
    <v>       0.82216946       0.56093090       0.31220177 </v>
    <v>       0.06127910       0.80799469       0.31869992 </v>
    <v>       0.31091297       0.80524645       0.31332583 </v>
    <v>       0.56755240       0.80779962       0.30179763 </v>
    <v>       0.80418664       0.81914349       0.31833540 </v>
    <v>       0.04565955       0.05543212       0.56928941 </v>
    <v>       0.31801714       0.06254138       0.55660674 </v>
    <v>       0.56795580       0.05206067       0.56277180 </v>
    <v>       0.82361295       0.06134761       0.55694322 </v>
    <v>       0.06118819       0.31078208       0.56381602 </v>
    <v>       0.30946013       0.31375028       0.56149406 </v>
    <v>       0.55975124       0.31980409       0.55664784 </v>
    <v>       0.81610367       0.31182845       0.56154612 </v>
    <v>       0.05089633       0.56375963       0.56777955 </v>
    <v>       0.31138471       0.55414443       0.57016784 </v>
    <v>       0.55804753       0.56483303       0.56738158 </v>
    <v>       0.80936548       0.55931078       0.56967739 </v>
    <v>       0.06281279       0.81041212       0.56749365 </v>
    <v>       0.31518760       0.80554526       0.57835887 </v>
    <v>       0.55642513       0.81364755       0.56755185 </v>
    <v>       0.81288770       0.80347968       0.56463469 </v>
    <v>       0.07175288       0.06826074       0.80043693 </v>
    <v>       0.29399009       0.05988147       0.82964205 </v>
    <v>       0.55890761       0.07035147       0.81227630 </v>
    <v>       0.81837821       0.06328884       0.79680509 </v>
    <v>       0.06763968       0.30512124       0.81576587 </v>
    <v>       0.31889390       0.30569535       0.81735130 </v>
    <v>       0.56172740       0.31280580       0.80955568 </v>
    <v>       0.81364653       0.31655789       0.79689258 </v>
    <v>       0.04970355       0.55553371       0.81683871 </v>
    <v>       0.31628280       0.56081407       0.81667511 </v>
    <v>       0.56621103       0.56673094       0.80631678 </v>
    <v>       0.81865426       0.55694003       0.80644025 </v>
    <v>       0.06565805       0.81100359       0.81456026 </v>
    <v>       0.31153132       0.81473072       0.80965053 </v>
    <v>       0.55826024       0.81059847       0.82382808 </v>
    <v>       0.82287229       0.80490725       0.81203995 </v>
   </varray>
  </structure>
  <varray name="forces" >
   <v>       0.09780930       0.59210863      -0.58766128 </v>
   <v>       0.55974524       0.27384524       0.68104100 </v>
   <v>      -1.44128506       0.51545671       0.27889642 </v>
   <v>       0.01791218       1.34625462      -0.62369519 </v>
   <v>       0.02611906      -0.10696342       0.27684107 </v>
   <v>      -0.30173190      -0.31512516      -0.36471513 </v>
   <v>      -0.93460450      -1.40881611       0.73586770 </v>
   <v>       0.25261715      -1.54238560       0.52501073 </v>
   <v>       0.71920026      -0.51911212       1.30801182 </v>
   <v>      -0.67617083       2.61227313       0.96025458 </v>
   <v>      -0.24156102      -0.64642678       1.71891107 </v>
   <v>      -0.50116558       0.71881826       0.00932814 </v>
   <v>       0.57301407      -0.06309564       2.02280448 </v>
   <v>      -0.36960761       0.81038130      -1.58164944 </v>
   <v>       0.02444929      -0.88643195      -0.23970021 </v>
   <v>      -0.75425968      -0.76352469       1.43975294 </v>
   <v>      -2.75154363       0.24533246       0.14756532 </v>
   <v>      -1.35135387       1.38595203      -0.94844800 </v>
   <v>      -2.10541483      -0.52045601      -0.09897554 </v>
   <v>      -1.58271553       0.70733107      -0.46782845 </v>
   <v>      -0.53827058      -0.40404967      -2.39008884 </v>
   <v>      -1.14974267      -1.32108855      -0.97990769 </v>
   <v>      -0.11122417      -0.82156441       0.46499699 </v>
   <v>       1.03023162      -0.69279339       1.75244828 </v>
   <v>      -0.52793094       1.05934973       1.09371754 </v>
   <v>       2.24398028       0.28486910      -0.55951438 </v>
   <v>       2.23849575       0.93523990       0.01499734 </v>
   <v>       1.19242841      -0.40639724       0.26805883 </v>
   <v>      -0.21340580       0.18580333       2.69990055 </v>
   <v>       0.04647816      -1.11853507       0.94216470 </v>
   <v>      -0.76663586      -1.18353699      -2.70726068 </v>
   <v>      -0.21740225       1.46878435       1.13161501 </v>
   <v>      -1.89376121       0.38755320      -0.06530225 </v>
   <v>      -1.68015847      -0.33891203      -0.24365167 </v>
   <v>       0.11508460      -2.69744873      -0.11151071 </v>
   <v>       0.51769812       0.07612637      -0.23414361 </v>
   <v>       0.47556968      -1.43711386      -0.62650219 </v>
   <v>       0.55293686      -0.10637253      -0.77879533 </v>
   <v>      -0.19074229       0.26831582       1.41286604 </v>
   <v>      -0.83853973      -0.42206914       0.73456423 </v>
   <v>       0.85123480      -0.58830059      -0.32189012 </v>
   <v>       0.07374928      -1.86135301       1.06763964 </v>
   <v>       0.44518558       0.08768511       0.89167064 </v>
   <v>      -0.50416500      -0.91140238      -3.62098136 </v>
   <v>       1.23451771      -0.06639400       1.58574788 </v>
   <v>       1.54130999       0.21363980      -1.44207836 </v>
   <v>       2.42296725      -1.74516742       1.28792345 </v>
   <v>       0.22897959      -0.43234553      -1.88914493 </v>
   <v>      -0.70144261       0.09311438      -0.19033026 </v>
   <v>       0.18439002      -0.55137397       0.94206570 </v>
   <v>       0.87411694      -0.19270621      -1.55977399 </v>
   <v>      -0.41062847      -1.59714085       0.39886599 </v>
   <v>       0.46598310       0.61358513      -0.81814048 </v>
   <v>      -1.51617763       0.77210665      -0.33621841 </v>
   <v>      -1.46926486      -0.63697391       1.03353070 </v>
   <v>      -1.55367528      -2.07545664      -1.78308056 </v>
   <v>       0.99902553      -0.77535996       0.87906443 </v>
   <v>       0.27273760       0.43069862      -1.00744288 </v>
   <v>       1.22237813       0.45639076       0.68143388 </v>
   <v>       1.95259415      -2.91488412       0.44291289 </v>
   <v>       0.07129152       1.26372643       0.66407341 </v>
   <v>      -0.80992959       0.47560218      -0.22533893 </v>
   <v>       0.37925164      -2.10289661       0.52405694 </v>
   <v>      -1.00746323      -0.30478141       0.06889128 </v>
   <v>       1.47844642       0.02110285      -1.73528427 </v>
   <v>       0.36386158       0.12528865      -0.89128692 </v>
   <v>       0.29340721       0.70401874       0.13380135 </v>
   <v>      -2.38126139      -1.09750747       0.54363161 </v>
   <v>      -1.08099285      -0.83495802      -0.22223563 </v>
   <v>       1.28437339       0.96751482      -0.00132647 </v>
   <v>       0.21755910       2.74023280       0.33944606 </v>
   <v>       0.24672799      -0.89347997       0.27446117 </v>
   <v>       0.24190916      -0.67552991      -2.81923411 </v>
   <v>      -0.25966473      -2.74872103       1.45365130 </v>
   <v>      -2.32663310      -1.41856121       0.78567161 </v>
   <v>      -0.00627234      -0.55324369      -0.26078934 </v>
   <v>      -0.08033240      -1.01906504       0.23219633 </v>
   <v>      -0.28374592       1.10969109      -0.55474917 </v>
   <v>       0.07247559      -0.67612269       0.81578053 </v>
   <v>       0.20859380      -1.36106216       0.38847577 </v>
   <v>       0.47293467      -0.60950897       1.16906804 </v>
   <v>       2.11709987      -0.09883359      -0.73098977 </v>
   <v>       2.53267325       0.53172993       0.07782291 </v>
   <v>       0.84610061       1.64833322      -1.30624812 </v>
   <v>       1.93040926       1.90931932       2.11318038 </v>
   <v>       0.50299302       1.26269941       0.57572645 </v>
   <v>      -0.42596466       0.49272185      -2.21667003 </v>
   <v>      -0.53463852       1.50968258      -1.83474579 </v>
   <v>      -2.21265036       1.24502488      -1.37063750 </v>
   <v>      -1.20121032       1.15642721      -2.78344661 </v>
   <v>      -0.02905776       0.13552340       0.52586556 </v>
   <v>      -0.08575573      -1.67760317      -0.20429168 </v>
   <v>       0.73723063      -1.16299488      -0.33204623 </v>
   <v>       0.75148050      -0.35992244       2.15140788 </v>
   <v>       2.62468349       1.07304429       0.00114557 </v>
   <v>       0.12175509      -1.34443202      -0.71406293 </v>
   <v>       0.83806254       2.04039485       2.12820487 </v>
   <v>       0.40043433       0.65440754       0.22240932 </v>
   <v>       0.48198037       0.56174292       1.50434484 </v>
   <v>       1.59536263      -1.49685991      -2.31364641 </v>
   <v>      -1.35431813       0.03165853       1.25378724 </v>
   <v>      -0.35194140       0.57603994      -0.77424402 </v>
   <v>      -0.48985775       0.89597090      -1.53568974 </v>
   <v>       0.14178040       0.08400811       1.01351679 </v>
   <v>      -1.60337475       1.46911832      -0.32867666 </v>
   <v>       0.34645438      -0.44276517       0.74691933 </v>
   <v>      -2.72728382       1.13079742      -0.35890659 </v>
   <v>       0.58400887       1.13252148       2.13801518 </v>
   <v>      -1.68165051      -0.08336787       0.12410774 </v>
   <v>      -1.16697362      -1.33688659       1.14823288 </v>
   <v>      -1.62913116       1.68965645      -0.76125084 </v>
   <v>       1.45005346       0.39471680       0.83134179 </v>
   <v>       0.53046991      -0.14333653      -0.99800196 </v>
   <v>      -1.38081645      -0.36732966       2.53400113 </v>
   <v>      -0.68063688       0.98838491      -0.40561725 </v>
   <v>       1.56029804       0.81016611      -0.00424644 </v>
   <v>       0.24453608      -0.17252972      -0.93990948 </v>
   <v>       1.04085598      -1.62483329       0.25977048 </v>
   <v>       0.42733756       1.77204044      -0.11831006 </v>
   <v>       0.39648380       4.09448894      -0.77340911 </v>
   <v>      -0.19283950       1.05123547       1.00030915 </v>
   <v>      -0.27080308      -1.03772635       0.09151079 </v>
   <v>      -0.91953470       1.78377472      -1.70417715 </v>
   <v>       1.51359699       0.66898190       0.03539640 </v>
   <v>       0.55648561      -0.67685050      -1.22333653 </v>
   <v>      -0.22458011       1.24636455       0.11859605 </v>
   <v>       0.19335068       0.29040400       0.74981862 </v>
   <v>       1.44414756       0.11321390      -1.54786902 </v>
  </varray>
  <varray name="stress" >
   <v>      12.98305101      -2.91346942       8.03349152 </v>
   <v>      -2.91346942      12.43584297       2.79677912 </v>
   <v>       8.03349153       2.79677914      11.42680804 </v>
  </varray>
  <energy>
   <i name="e_fr_energy">   -679.36350325 </i>
   <i name="e_wo_entrp">   -679.36350325 </i>
   <i name="e_0_energy">     -0.00000000 </i>
  </energy>
  <time name="totalsc"> 1629.91 1630.45</time>
  <eigenvalues>
   <array>
    <dimension dim="1">band</dimension>
    <dimension dim="2">kpoint</dimension>
    <dimension dim="3">spin</dimension>
    <field>eigene</field>
    <field>occ</field>
    <set>
     <set comment="spin 1">
      <set comment="kpoint 1">
       <r>   -6.2988    1.0000 </r>
       <r>   -5.7098    1.0000 </r>
       <r>   -5.6778    1.0000 </r>
       <r>   -5.6144    1.0000 </r>
       <r>   -5.5430    1.0000 </r>
       <r>   -5.5161    1.0000 </r>
       <r>   -5.4939    1.0000 </r>
       <r>   -5.4110    1.0000 </r>
       <r>   -5.3792    1.0000 </r>
       <r>   -5.3176    1.0000 </r>
       <r>   -5.3070    1.0000 </r>
       <r>   -5.2278    1.0000 </r>
       <r>   -5.1743    1.0000 </r>
       <r>   -5.1358    1.0000 </r>
       <r>   -5.0581    1.0000 </r>
       <r>   -4.5046    1.0000 </r>
       <r>   -4.4821    1.0000 </r>
       <r>   -4.4519    1.0000 </r>
       <r>   -4.4379    1.0000 </r>
       <r>   -4.3915    1.0000 </r>
       <r>   -4.3365    1.0000 </r>
       <r>   -4.2851    1.0000 </r>
       <r>   -4.2527    1.0000 </r>
       <r>   -4.1885    1.0000 </r>
       <r>   -4.1774    1.0000 </r>
       <r>   -4.1365    1.0000 </r>
       <r>   -4.1074    1.0000 </r>
       <r>   -4.0517    1.0000 </r>
       <r>   -4.0126    1.0000 </r>
       <r>   -3.9509    1.0000 </r>
       <r>   -3.9448    1.0000 </r>
       <r>   -3.8576    1.0000 </r>
       <r>   -3.8288    1.0000 </r>
       <r>   -3.7983    1.0000 </r>
       <r>   -3.7788    1.0000 </r>
       <r>   -3.7451    1.0000 </r>
       <r>   -3.7246    1.0000 </r>
       <r>   -3.7049    1.0000 </r>
       <r>   -3.6820    1.0000 </r>
       <r>   -3.6599    1.0000 </r>
       <r>   -3.6107    1.0000 </r>
       <r>   -3.5830    1.0000 </r>
       <r>   -3.5793    1.0000 </r>
       <r>   -3.5474    1.0000 </r>
       <r>   -3.5165    1.0000 </r>
       <r>   -3.4911    1.0000 </r>
       <r>   -3.4681    1.0000 </r>
       <r>   -3.4003    1.0000 </r>
       <r>   -3.3823    1.0000 </r>
       <r>   -3.3745    1.0000 </r>
       <r>   -3.3441    1.0000 </r>
       <r>   -3.3435    1.0000 </r>
       <r>   -3.2831    1.0000 </r>
       <r>   -3.2327    1.0000 </r>
       <r>   -3.2184    1.0000 </r>
       <r>   -2.3571    1.0000 </r>
       <r>   -2.2915    1.0000 </r>
       <r>   -2.2649    1.0000 </r>
       <r>   -2.2254    1.0000 </r>
       <r>   -2.1921    1.0000 </r>
       <r>   -2.1477    1.0000 </r>
       <r>   -2.1429    1.0000 </r>
       <r>   -2.0920    1.0000 </r>
       <r>   -2.0716    1.0000 </r>
       <r>   -2.0355    1.0000 </r>
       <r>   -2.0140    1.0000 </r>
       <r>   -2.0024    1.0000 </r>
       <r>   -1.9753    1.0000 </r>
       <r>   -1.9316    1.0000 </r>
       <r>   -1.9162    1.0000 </r>
       <r>   -1.8696    1.0000 </r>
       <r>   -1.7910    1.0000 </r>
       <r>   -1.7515    1.0000 </r>
       <r>   -1.3634    1.0000 </r>
       <r>   -1.3309    1.0000 </r>
       <r>   -1.2982    1.0000 </r>
       <r>   -1.2360    1.0000 </r>
       <r>   -1.0188    1.0000 </r>
       <r>   -0.9566    1.0000 </r>
       <r>   -0.9326    1.0000 </r>
       <r>   -0.9307    1.0000 </r>
       <r>   -0.8975    1.0000 </r>
       <r>   -0.8812    1.0000 </r>
       <r>   -0.8690    1.0000 </r>
       <r>   -0.7971    1.0000 </r>
       <r>   -0.7933    1.0000 </r>
       <r>   -0.7736    1.0000 </r>
       <r>   -0.7465    1.0000 </r>
       <r>   -0.7171    1.0000 </r>
       <r>   -0.6959    1.0000 </r>
       <r>   -0.6747    1.0000 </r>
       <r>   -0.6440    1.0000 </r>
       <r>   -0.6305    1.0000 </r>
       <r>   -0.6101    1.0000 </r>
       <r>   -0.5830    1.0000 </r>
       <r>   -0.5528    1.0000 </r>
       <r>   -0.5240    1.0000 </r>
       <r>   -0.5029    1.0000 </r>
       <r>   -0.4750    1.0000 </r>
       <r>   -0.4678    1.0000 </r>
       <r>   -0.4489    1.0000 </r>
       <r>    0.0077    1.0000 </r>
       <r>    0.0241    1.0000 </r>
       <r>    0.0822    1.0000 </r>
       <r>    0.1004    1.0000 </r>
       <r>    0.1290    1.0000 </r>
       <r>    0.1947    1.0000 </r>
       <r>    0.2065    1.0000 </r>
       <r>    0.2532    1.0000 </r>
       <r>    0.2668    1.0000 </r>
       <r>    0.2961    1.0000 </r>
       <r>    0.3162    1.0000 </r>
       <r>    0.3365    1.0000 </r>
       <r>    1.3991    1.0000 </r>
       <r>    1.4193    1.0000 </r>
       <r>    1.4655    1.0000 </r>
       <r>    1.5205    1.0000 </r>
       <r>    1.5319    1.0000 </r>
       <r>    1.5575    1.0000 </r>
       <r>    1.6003    1.0000 </r>
       <r>    1.6142    1.0000 </r>
       <r>    1.6615    1.0000 </r>
       <r>    1.6671    1.0000 </r>
       <r>    1.6858    1.0000 </r>
       <r>    1.7005    1.0000 </r>
       <r>    1.7122    1.0000 </r>
       <r>    1.7276    1.0000 </r>
       <r>    1.7412    1.0000 </r>
       <r>    1.7541    1.0000 </r>
       <r>    1.7907    1.0000 </r>
       <r>    1.7968    1.0000 </r>
       <r>    1.8007    1.0000 </r>
       <r>    1.8162    1.0000 </r>
       <r>    1.8377    1.0000 </r>
       <r>    1.8535    1.0000 </r>
       <r>    1.8667    1.0000 </r>
       <r>    1.8848    1.0000 </r>
       <r>    1.9009    1.0000 </r>
       <r>    1.9058    1.0000 </r>
       <r>    1.9163    1.0000 </r>
       <r>    1.9263    1.0000 </r>
       <r>    1.9490    1.0000 </r>
       <r>    1.9509    1.0000 </r>
       <r>    1.9753    1.0000 </r>
       <r>    1.9888    1.0000 </r>
       <r>    1.9962    1.0000 </r>
       <r>    2.0037    1.0000 </r>
       <r>    2.0172    1.0000 </r>
       <r>    2.0394    1.0000 </r>
       <r>    2.0527    1.0000 </r>
       <r>    2.0686    1.0000 </r>
       <r>    2.0829    1.0000 </r>
       <r>    2.1020    1.0000 </r>
       <r>    2.1262    1.0000 </r>
       <r>    2.1358    1.0000 </r>
       <r>    2.1415    1.0000 </r>
       <r>    2.1492    1.0000 </r>
       <r>    2.1591    1.0000 </r>
       <r>    2.1853    1.0000 </r>
       <r>    2.1988    1.0000 </r>
       <r>    2.2071    1.0000 </r>
       <r>    2.2129    1.0000 </r>
       <r>    2.2388    1.0000 </r>
       <r>    2.2582    1.0000 </r>
       <r>    2.2626    1.0000 </r>
       <r>    2.2832    1.0000 </r>
       <r>    2.2904    1.0000 </r>
       <r>    2.3161    1.0000 </r>
       <r>    2.3365    1.0000 </r>
       <r>    2.3448    1.0000 </r>
       <r>    2.3577    1.0000 </r>
       <r>    2.4001    1.0000 </r>
       <r>    2.4254    1.0000 </r>
       <r>    2.4466    1.0000 </r>
       <r>    2.4760    1.0000 </r>
       <r>    2.7750    1.0000 </r>
       <r>    2.7964    1.0000 </r>
       <r>    2.8067    1.0000 </r>
       <r>    2.8381    1.0000 </r>
       <r>    2.8738    1.0000 </r>
       <r>    2.8954    1.0000 </r>
       <r>    3.1551    1.0000 </r>
       <r>    3.2053    1.0000 </r>
       <r>    3.2157    1.0000 </r>
       <r>    3.2719    1.0000 </r>
       <r>    3.2839    1.0000 </r>
       <r>    3.3162    1.0000 </r>
       <r>    3.3454    1.0000 </r>
       <r>    3.3603    1.0000 </r>
       <r>    3.3637    1.0000 </r>
       <r>    3.3810    1.0000 </r>
       <r>    3.4193    1.0000 </r>
       <r>    3.4264    1.0000 </r>
       <r>    3.4343    1.0000 </r>
       <r>    3.4628    1.0000 </r>
       <r>    3.4837    1.0000 </r>
       <r>    3.4978    1.0000 </r>
       <r>    3.5169    1.0000 </r>
       <r>    3.5258    1.0000 </r>
       <r>    3.5410    1.0000 </r>
       <r>    3.5757    1.0000 </r>
       <r>    3.5911    1.0000 </r>
       <r>    3.6179    1.0000 </r>
       <r>    3.6371    1.0000 </r>
       <r>    3.6499    1.0000 </r>
       <r>    3.6862    1.0000 </r>
       <r>    3.7046    1.0000 </r>
       <r>    3.7401    1.0000 </r>
       <r>    3.7602    1.0000 </r>
       <r>    3.7801    1.0000 </r>
       <r>    3.8058    1.0000 </r>
       <r>    3.8238    1.0000 </r>
       <r>    3.8411    1.0000 </r>
       <r>    3.8637    1.0000 </r>
       <r>    3.8837    1.0000 </r>
       <r>    3.9287    1.0000 </r>
       <r>    3.9762    1.0000 </r>
       <r>    4.1432    1.0000 </r>
       <r>    4.1859    1.0000 </r>
       <r>    4.2005    1.0000 </r>
       <r>    4.2270    1.0000 </r>
       <r>    4.2639    1.0000 </r>
       <r>    4.2810    1.0000 </r>
       <r>    4.2980    1.0000 </r>
       <r>    4.3159    1.0000 </r>
       <r>    4.3597    1.0000 </r>
       <r>    4.3694    1.0000 </r>
       <r>    4.3779    1.0000 </r>
       <r>    4.4479    1.0000 </r>
       <r>    4.4676    1.0000 </r>
       <r>    4.4947    1.0000 </r>
       <r>    4.5170    1.0000 </r>
       <r>    4.5390    1.0000 </r>
       <r>    4.5539    1.0000 </r>
       <r>    4.5680    1.0000 </r>
       <r>    4.5798    1.0000 </r>
       <r>    4.6501    1.0000 </r>
       <r>    4.7512    1.0000 </r>
       <r>    4.7630    1.0000 </r>
       <r>    4.8104    1.0000 </r>
       <r>    4.8395    1.0000 </r>
       <r>    4.8979    1.0000 </r>
       <r>    4.9459    1.0000 </r>
       <r>    4.9704    1.0000 </r>
       <r>    4.9847    1.0000 </r>
       <r>    4.9903    1.0000 </r>
       <r>    5.0286    1.0000 </r>
       <r>    5.0528    1.0000 </r>
       <r>    5.1043    1.0000 </r>
       <r>    5.1269    1.0000 </r>
       <r>    5.1633    1.0000 </r>
       <r>    5.2144    1.0000 </r>
       <r>    5.2492    1.0000 </r>
       <r>    5.6569    1.0000 </r>
       <r>    5.7551    1.0000 </r>
       <r>    5.8642    1.0000 </r>
       <r>    6.1713    0.0000 </r>
       <r>    6.1856    0.0000 </r>
       <r>    6.2060    0.0000 </r>
       <r>    6.2770    0.0000 </r>
       <r>    6.2790    0.0000 </r>
       <r>    6.3330    0.0000 </r>
       <r>    6.4936    0.0000 </r>
       <r>    6.5660    0.0000 </r>
       <r>    6.5952    0.0000 </r>
       <r>    6.6362    0.0000 </r>
       <r>    6.6986    0.0000 </r>
       <r>    6.7498    0.0000 </r>
       <r>    6.7895    0.0000 </r>
       <r>    6.8217    0.0000 </r>
       <r>    6.8562    0.0000 </r>
       <r>    6.8735    0.0000 </r>
       <r>    6.8898    0.0000 </r>
       <r>    6.9157    0.0000 </r>
       <r>    6.9537    0.0000 </r>
       <r>    6.9660    0.0000 </r>
       <r>    6.9880    0.0000 </r>
       <r>    6.9921    0.0000 </r>
       <r>    7.0126    0.0000 </r>
       <r>    7.0306    0.0000 </r>
       <r>    7.0342    0.0000 </r>
       <r>    7.0608    0.0000 </r>
       <r>    7.0836    0.0000 </r>
       <r>    7.0892    0.0000 </r>
       <r>    7.1235    0.0000 </r>
       <r>    7.1393    0.0000 </r>
       <r>    7.1504    0.0000 </r>
       <r>    7.1542    0.0000 </r>
       <r>    7.1826    0.0000 </r>
       <r>    7.2014    0.0000 </r>
       <r>    7.2383    0.0000 </r>
       <r>    7.2506    0.0000 </r>
       <r>    7.2765    0.0000 </r>
       <r>    7.2992    0.0000 </r>
       <r>    7.3355    0.0000 </r>
       <r>    7.3469    0.0000 </r>
       <r>    7.4100    0.0000 </r>
       <r>    7.4583    0.0000 </r>
       <r>    7.5068    0.0000 </r>
       <r>    7.5224    0.0000 </r>
       <r>    7.5341    0.0000 </r>
       <r>    7.5498    0.0000 </r>
       <r>    7.5804    0.0000 </r>
       <r>    7.6428    0.0000 </r>
       <r>    7.8424    0.0000 </r>
       <r>    7.8548    0.0000 </r>
       <r>    7.8718    0.0000 </r>
       <r>    7.9040    0.0000 </r>
       <r>    7.9411    0.0000 </r>
       <r>    7.9650    0.0000 </r>
       <r>    7.9912    0.0000 </r>
       <r>    8.0168    0.0000 </r>
       <r>    8.0456    0.0000 </r>
       <r>    8.0553    0.0000 </r>
       <r>    8.1013    0.0000 </r>
       <r>    8.1117    0.0000 </r>
       <r>    8.1651    0.0000 </r>
       <r>    8.1836    0.0000 </r>
       <r>    8.2101    0.0000 </r>
       <r>    8.5187    0.0000 </r>
       <r>    8.5695    0.0000 </r>
       <r>    8.5985    0.0000 </r>
      </set>
      <set comment="kpoint 2">
       <r>   -6.1264    1.0000 </r>
       <r>   -6.0948    1.0000 </r>
       <r>   -5.7038    1.0000 </r>
       <r>   -5.6559    1.0000 </r>
       <r>   -5.6094    1.0000 </r>
       <r>   -5.5817    1.0000 </r>
       <r>   -5.5163    1.0000 </r>
       <r>   -5.4648    1.0000 </r>
       <r>   -5.1811    1.0000 </r>
       <r>   -5.1476    1.0000 </r>
       <r>   -5.1309    1.0000 </r>
       <r>   -5.1158    1.0000 </r>
       <r>   -4.9863    1.0000 </r>
       <r>   -4.9079    1.0000 </r>
       <r>   -4.7077    1.0000 </r>
[...]
       <r>    -3.1108    39.2285   100.3166 </r>
       <r>    -3.0562    49.4377   103.0171 </r>
       <r>    -3.0015    46.6131   105.5632 </r>
       <r>    -2.9469    37.1690   107.5935 </r>
       <r>    -2.8923    31.6225   109.3209 </r>
       <r>    -2.8377    37.7625   111.3836 </r>
       <r>    -2.7830    35.6069   113.3286 </r>
       <r>    -2.7284    34.7567   115.2271 </r>
       <r>    -2.6738    34.7083   117.1230 </r>
       <r>    -2.6192    31.2805   118.8317 </r>
       <r>    -2.5645    24.7526   120.1838 </r>
       <r>    -2.5099    30.8052   121.8665 </r>
       <r>    -2.4553    12.2127   122.5336 </r>
       <r>    -2.4007     3.9622   122.7500 </r>
       <r>    -2.3461     4.3085   122.9853 </r>
       <r>    -2.2914     2.5753   123.1260 </r>
       <r>    -2.2368    11.6085   123.7601 </r>
       <r>    -2.1822    25.5540   125.1560 </r>
       <r>    -2.1276    23.9294   126.4631 </r>
       <r>    -2.0729    29.1021   128.0527 </r>
       <r>    -2.0183    32.3319   129.8188 </r>
       <r>    -1.9637    27.7694   131.3357 </r>
       <r>    -1.9091    20.5954   132.4607 </r>
       <r>    -1.8544     5.2226   132.7460 </r>
       <r>    -1.7998     0.5632   132.7767 </r>
       <r>    -1.7452     7.8177   133.2038 </r>
       <r>    -1.6906     5.2881   133.4926 </r>
       <r>    -1.6359    15.2960   134.3282 </r>
       <r>    -1.5813    31.6605   136.0576 </r>
       <r>    -1.5267    28.6820   137.6243 </r>
       <r>    -1.4721    21.2677   138.7860 </r>
       <r>    -1.4175    31.9667   140.5321 </r>
       <r>    -1.3628    47.2074   143.1108 </r>
       <r>    -1.3082    56.6650   146.2060 </r>
       <r>    -1.2536    64.3389   149.7204 </r>
       <r>    -1.1990    64.0064   153.2167 </r>
       <r>    -1.1443    73.5255   157.2329 </r>
       <r>    -1.0897    59.1125   160.4619 </r>
       <r>    -1.0351    52.8797   163.3503 </r>
       <r>    -0.9805    66.5858   166.9875 </r>
       <r>    -0.9258    81.9999   171.4666 </r>
       <r>    -0.8712    69.0159   175.2365 </r>
       <r>    -0.8166    51.7496   178.0633 </r>
       <r>    -0.7620    53.3504   180.9775 </r>
       <r>    -0.7073    49.0566   183.6571 </r>
       <r>    -0.6527    47.0273   186.2260 </r>
       <r>    -0.5981    33.3598   188.0482 </r>
       <r>    -0.5435    26.1754   189.4780 </r>
       <r>    -0.4889    18.7235   190.5007 </r>
       <r>    -0.4342    18.9901   191.5381 </r>
       <r>    -0.3796    28.4630   193.0928 </r>
       <r>    -0.3250    50.7591   195.8654 </r>
       <r>    -0.2704    51.7850   198.6941 </r>
       <r>    -0.2157    47.1756   201.2711 </r>
       <r>    -0.1611    63.7751   204.7547 </r>
       <r>    -0.1065    34.2904   206.6277 </r>
       <r>    -0.0519    44.2792   209.0464 </r>
       <r>     0.0028    34.9880   210.9576 </r>
       <r>     0.0574    33.2182   212.7721 </r>
       <r>     0.1120    17.7129   213.7396 </r>
       <r>     0.1666     4.7666   214.0000 </r>
       <r>     0.2213    11.5867   214.6329 </r>
       <r>     0.2759    20.4601   215.7505 </r>
       <r>     0.3305    31.8948   217.4928 </r>
       <r>     0.3851    17.2732   218.4363 </r>
       <r>     0.4397    28.8611   220.0128 </r>
       <r>     0.4944    17.7488   220.9823 </r>
       <r>     0.5490    20.6326   222.1093 </r>
       <r>     0.6036    28.1623   223.6477 </r>
       <r>     0.6582    17.8165   224.6209 </r>
       <r>     0.7129    19.4083   225.6810 </r>
       <r>     0.7675    21.3624   226.8479 </r>
       <r>     0.8221    12.3795   227.5241 </r>
       <r>     0.8767     9.4393   228.0397 </r>
       <r>     0.9314    13.1950   228.7605 </r>
       <r>     0.9860    32.4282   230.5318 </r>
       <r>     1.0406    12.3938   231.2088 </r>
       <r>     1.0952    34.7236   233.1055 </r>
       <r>     1.1499    21.6193   234.2865 </r>
       <r>     1.2045    27.6800   235.7984 </r>
       <r>     1.2591    29.7712   237.4247 </r>
       <r>     1.3137    25.4224   238.8133 </r>
       <r>     1.3683    27.4199   240.3111 </r>
       <r>     1.4230    41.1409   242.5584 </r>
       <r>     1.4776    80.3906   246.9497 </r>
       <r>     1.5322    75.7038   251.0849 </r>
       <r>     1.5868    83.5476   255.6486 </r>
       <r>     1.6415    79.0537   259.9668 </r>
       <r>     1.6961    77.5175   264.2011 </r>
       <r>     1.7507    64.7778   267.7395 </r>
       <r>     1.8053    54.0456   270.6917 </r>
       <r>     1.8600    23.0319   271.9498 </r>
       <r>     1.9146    25.2673   273.3300 </r>
       <r>     1.9692    17.8541   274.3052 </r>
       <r>     2.0238    40.0049   276.4904 </r>
       <r>     2.0785    60.6451   279.8031 </r>
       <r>     2.1331    81.6914   284.2654 </r>
       <r>     2.1877   112.9869   290.4372 </r>
       <r>     2.2423   123.2414   297.1690 </r>
       <r>     2.2969   122.7859   303.8761 </r>
       <r>     2.3516   108.6145   309.8090 </r>
       <r>     2.4062   110.1817   315.8275 </r>
       <r>     2.4608    78.2794   320.1034 </r>
       <r>     2.5154    49.5476   322.8099 </r>
       <r>     2.5701    38.5296   324.9145 </r>
       <r>     2.6247    33.9909   326.7712 </r>
       <r>     2.6793    58.7810   329.9820 </r>
       <r>     2.7339    70.5652   333.8366 </r>
       <r>     2.7886    93.3704   338.9368 </r>
       <r>     2.8432   102.1900   344.5188 </r>
       <r>     2.8978    80.0870   348.8935 </r>
       <r>     2.9524   104.4871   354.6009 </r>
       <r>     3.0071    97.1870   359.9096 </r>
       <r>     3.0617    98.4846   365.2892 </r>
       <r>     3.1163    83.4298   369.8465 </r>
       <r>     3.1709    74.2443   373.9020 </r>
       <r>     3.2255    82.7620   378.4228 </r>
       <r>     3.2802    94.2699   383.5722 </r>
       <r>     3.3348    91.3253   388.5607 </r>
       <r>     3.3894    93.5492   393.6707 </r>
       <r>     3.4440    74.2151   397.7247 </r>
       <r>     3.4987    87.8085   402.5211 </r>
       <r>     3.5533    86.4444   407.2430 </r>
       <r>     3.6079    75.2685   411.3544 </r>
       <r>     3.6625    82.6044   415.8666 </r>
       <r>     3.7172    82.2892   420.3616 </r>
       <r>     3.7718    83.1313   424.9025 </r>
       <r>     3.8264    87.5330   429.6839 </r>
       <r>     3.8810    84.2186   434.2843 </r>
       <r>     3.9357    84.1692   438.8819 </r>
       <r>     3.9903    45.3220   441.3575 </r>
       <r>     4.0449    62.6781   444.7812 </r>
       <r>     4.0995    63.5492   448.2525 </r>
       <r>     4.1541    71.2329   452.1435 </r>
       <r>     4.2088    75.9745   456.2935 </r>
       <r>     4.2634    76.5657   460.4758 </r>
       <r>     4.3180    74.5786   464.5496 </r>
       <r>     4.3726    72.0248   468.4838 </r>
       <r>     4.4273    77.7943   472.7332 </r>
       <r>     4.4819    74.0008   476.7755 </r>
       <r>     4.5365    55.7033   479.8182 </r>
       <r>     4.5911    78.2202   484.0909 </r>
       <r>     4.6458    51.5162   486.9049 </r>
       <r>     4.7004    44.7868   489.3513 </r>
       <r>     4.7550    20.2743   490.4588 </r>
       <r>     4.8096    15.8953   491.3270 </r>
       <r>     4.8643    44.4626   493.7557 </r>
       <r>     4.9189    23.5403   495.0416 </r>
       <r>     4.9735    46.9837   497.6080 </r>
       <r>     5.0281    48.4443   500.2542 </r>
       <r>     5.0827    25.0198   501.6209 </r>
       <r>     5.1374    24.8871   502.9803 </r>
       <r>     5.1920    13.7080   503.7291 </r>
       <r>     5.2466     6.6012   504.0897 </r>
       <r>     5.3012    12.4614   504.7704 </r>
       <r>     5.3559    15.2201   505.6018 </r>
       <r>     5.4105    18.0298   506.5866 </r>
       <r>     5.4651    16.5215   507.4891 </r>
       <r>     5.5197    32.0905   509.2420 </r>
       <r>     5.5744    17.4651   510.1960 </r>
       <r>     5.6290     8.9274   510.6836 </r>
       <r>     5.6836    14.9450   511.5000 </r>
       <r>     5.7382     0.0386   511.5021 </r>
       <r>     5.7928     4.5382   511.7500 </r>
       <r>     5.8475     0.0414   511.7523 </r>
       <r>     5.9021     4.5354   512.0000 </r>
       <r>     5.9567     0.0000   512.0000 </r>
       <r>     6.0113     0.0000   512.0000 </r>
       <r>     6.0660     0.0000   512.0000 </r>
       <r>     6.1206     0.1103   512.0060 </r>
       <r>     6.1752    17.2382   512.9476 </r>
       <r>     6.2298    23.5611   514.2347 </r>
       <r>     6.2845     9.6016   514.7591 </r>
       <r>     6.3391    23.1344   516.0228 </r>
       <r>     6.3937    20.5012   517.1427 </r>
       <r>     6.4483    17.1426   518.0791 </r>
       <r>     6.5030    35.6970   520.0290 </r>
       <r>     6.5576    22.8765   521.2786 </r>
       <r>     6.6122    14.9397   522.0946 </r>
       <r>     6.6668    14.1559   522.8679 </r>
       <r>     6.7214    17.1485   523.8046 </r>
       <r>     6.7761    34.6093   525.6951 </r>
       <r>     6.8307    33.8193   527.5424 </r>
       <r>     6.8853    40.6595   529.7634 </r>
       <r>     6.9399    28.5201   531.3213 </r>
       <r>     6.9946    54.9810   534.3246 </r>
       <r>     7.0492    34.4784   536.2079 </r>
       <r>     7.1038    42.3270   538.5199 </r>
       <r>     7.1584    25.2299   539.8981 </r>
       <r>     7.2131    17.0549   540.8297 </r>
       <r>     7.2677    55.4189   543.8569 </r>
       <r>     7.3223    71.3044   547.7518 </r>
       <r>     7.3769    66.9955   551.4113 </r>
       <r>     7.4316    97.4182   556.7327 </r>
       <r>     7.4862    83.0581   561.2696 </r>
       <r>     7.5408    90.6518   566.2214 </r>
       <r>     7.5954    74.6521   570.2992 </r>
       <r>     7.6500    80.5098   574.6969 </r>
       <r>     7.7047    80.6454   579.1021 </r>
       <r>     7.7593    99.9187   584.5600 </r>
       <r>     7.8139    98.1905   589.9235 </r>
       <r>     7.8685    95.4492   595.1374 </r>
       <r>     7.9232    96.8530   600.4279 </r>
       <r>     7.9778    90.6787   605.3811 </r>
       <r>     8.0324    95.7179   610.6095 </r>
       <r>     8.0870    80.1928   614.9900 </r>
       <r>     8.1417    73.5335   619.0066 </r>
       <r>     8.1963    93.9314   624.1375 </r>
       <r>     8.2509    93.3979   629.2392 </r>
       <r>     8.3055    86.9913   633.9910 </r>
       <r>     8.3602    64.0631   637.4904 </r>
       <r>     8.4148    82.2237   641.9818 </r>
       <r>     8.4694    23.2142   643.2498 </r>
       <r>     8.5240     3.5481   643.4437 </r>
       <r>     8.5786     5.1730   643.7262 </r>
       <r>     8.6333     5.0121   644.0000 </r>
       <r>     8.6879     0.0000   644.0000 </r>
       <r>     8.7425     0.0000   644.0000 </r>
       <r>     8.7971     0.0000   644.0000 </r>
       <r>     8.8518     0.0000   644.0000 </r>
       <r>     8.9064     0.0000   644.0000 </r>
       <r>     8.9610     0.0000   644.0000 </r>
       <r>     9.0156     0.0000   644.0000 </r>
       <r>     9.0703     0.0000   644.0000 </r>
       <r>     9.1249     0.0000   644.0000 </r>
       <r>     9.1795     0.0000   644.0000 </r>
       <r>     9.2341     0.0000   644.0000 </r>
       <r>     9.2888     0.0000   644.0000 </r>
       <r>     9.3434     0.0000   644.0000 </r>
      </set>
     </set>
    </array>
   </total>
  </dos>
 </calculation>
 <structure name="finalpos" >
  <crystal>
   <varray name="basis" >
    <v>       0.00000000      10.93733369      10.93733369 </v>
    <v>      10.93733369       0.00000000      10.93733369 </v>
    <v>      10.93733369      10.93733369       0.00000000 </v>
   </varray>
   <i name="volume">   2616.76295363 </i>
   <varray name="rec_basis" >
    <v>      -0.04571498       0.04571498       0.04571498 </v>
    <v>       0.04571498      -0.04571498       0.04571498 </v>
    <v>       0.04571498       0.04571498      -0.04571498 </v>
   </varray>
  </crystal>
  <varray name="positions" >
   <v>       0.99882844       0.00440442       0.99254703 </v>
   <v>       0.25177659       0.99210883       0.00663379 </v>
   <v>       0.49025427       0.00581060       0.00466224 </v>
   <v>       0.74759288       0.01469616       0.98724545 </v>
   <v>       0.00355808       0.24624018       0.00442162 </v>
   <v>       0.25241468       0.25099816       0.99897431 </v>
   <v>       0.49296553       0.24368636       0.00948336 </v>
   <v>       0.75204939       0.24536792       0.00452023 </v>
   <v>       0.00348513       0.48764967       0.00623127 </v>
   <v>       0.24050545       0.50628261       0.99566663 </v>
   <v>       0.49625435       0.49507582       0.01063849 </v>
   <v>       0.74542052       0.50206287       0.00001870 </v>
   <v>       0.99250704       0.74378658       0.00716645 </v>
   <v>       0.25067570       0.75738084       0.99468496 </v>
   <v>       0.50121415       0.74760383       0.01149150 </v>
   <v>       0.74883888       0.73767028       0.01838914 </v>
   <v>       0.99164070       0.01098085       0.25409575 </v>
   <v>       0.23776398       0.01914589       0.24156178 </v>
   <v>       0.49610619       0.99619043       0.25778619 </v>
   <v>       0.73894446       0.00943150       0.25800677 </v>
   <v>       0.00252884       0.25278709       0.24594722 </v>
   <v>       0.25495934       0.24954047       0.24928819 </v>
   <v>       0.50379088       0.24292181       0.25152074 </v>
   <v>       0.75025968       0.24613869       0.25569610 </v>
   <v>       0.00105111       0.49663798       0.24875592 </v>
   <v>       0.25697233       0.49809543       0.24974790 </v>
   <v>       0.49940271       0.49328806       0.24809363 </v>
   <v>       0.75003025       0.50160439       0.25057621 </v>
   <v>       0.98031791       0.75047342       0.26413998 </v>
   <v>       0.24513681       0.75028751       0.25241647 </v>
   <v>       0.50593324       0.75156848       0.24760433 </v>
   <v>       0.74410747       0.74961242       0.25254421 </v>
   <v>       0.99586837       0.99638628       0.50526411 </v>
   <v>       0.23828988       0.00287488       0.51248448 </v>
   <v>       0.51300987       0.98793703       0.50436876 </v>
   <v>       0.76231946       0.99605537       0.48901179 </v>
   <v>       0.01216303       0.23778781       0.50043984 </v>
   <v>       0.25559469       0.25085138       0.49167057 </v>
   <v>       0.49344042       0.24237753       0.50518978 </v>
   <v>       0.74674254       0.25117780       0.50541144 </v>
   <v>       0.00555668       0.49573272       0.49488980 </v>
   <v>       0.24527833       0.49241945       0.51504896 </v>
   <v>       0.49574984       0.50000109       0.50039617 </v>
   <v>       0.77030324       0.50806277       0.49008474 </v>
   <v>       0.99704760       0.74015887       0.50559922 </v>
   <v>       0.26621580       0.74537641       0.49363937 </v>
   <v>       0.51194367       0.73570050       0.49723668 </v>
   <v>       0.75365149       0.75080201       0.49942407 </v>
   <v>       0.00018138       0.00136818       0.75356927 </v>
   <v>       0.25445741       0.99538318       0.74897552 </v>
   <v>       0.50603861       0.00201255       0.74625934 </v>
   <v>       0.75214433       0.98897257       0.75823415 </v>
   <v>       0.00355746       0.25511291       0.74200097 </v>
   <v>       0.24642852       0.25788934       0.75254084 </v>
   <v>       0.49703822       0.25267988       0.75458404 </v>
   <v>       0.75554388       0.25193598       0.74908251 </v>
   <v>       0.00250603       0.48254040       0.75257253 </v>
   <v>       0.24807385       0.50292431       0.75252762 </v>
   <v>       0.50129040       0.49460495       0.74843201 </v>
   <v>       0.76472791       0.48483516       0.75390807 </v>
   <v>       0.00077540       0.74418888       0.74963725 </v>
   <v>       0.24651884       0.74877082       0.75954020 </v>
   <v>       0.50569896       0.74240172       0.76156073 </v>
   <v>       0.74655308       0.74892414       0.75841620 </v>
   <v>       0.07444882       0.06207933       0.04868692 </v>
   <v>       0.31038349       0.06931063       0.05556348 </v>
   <v>       0.55902207       0.06012430       0.06437207 </v>
   <v>       0.80477582       0.06493306       0.07900427 </v>
   <v>       0.06961480       0.30739244       0.06777293 </v>
   <v>       0.30970377       0.31700786       0.05425979 </v>
   <v>       0.55340601       0.31650535       0.05378692 </v>
   <v>       0.81521813       0.30669822       0.06886759 </v>
   <v>       0.06805874       0.56744466       0.05760492 </v>
   <v>       0.31528768       0.54522128       0.07603436 </v>
   <v>       0.55744479       0.56397075       0.07723856 </v>
   <v>       0.81819864       0.55293029       0.06686814 </v>
   <v>       0.06086855       0.80675987       0.07323646 </v>
   <v>       0.31205083       0.81384610       0.06137004 </v>
   <v>       0.56364885       0.81100750       0.06817226 </v>
   <v>       0.81056971       0.81208794       0.07012474 </v>
   <v>       0.05509405       0.05957195       0.32258224 </v>
   <v>       0.31708318       0.05689669       0.30759161 </v>
   <v>       0.56403003       0.05291936       0.30909322 </v>
   <v>       0.81362865       0.07225961       0.29690265 </v>
   <v>       0.06216761       0.30099908       0.30955386 </v>
   <v>       0.31249351       0.31400218       0.30561830 </v>
   <v>       0.56740062       0.31554785       0.30876351 </v>
   <v>       0.81408504       0.32538105       0.30362473 </v>
   <v>       0.05849021       0.57647323       0.30946625 </v>
   <v>       0.31609385       0.57600850       0.31027321 </v>
   <v>       0.55904249       0.55970628       0.31274009 </v>
   <v>       0.82216946       0.56093090       0.31220177 </v>
   <v>       0.06127910       0.80799469       0.31869992 </v>
   <v>       0.31091297       0.80524645       0.31332583 </v>
   <v>       0.56755240       0.80779962       0.30179763 </v>
   <v>       0.80418664       0.81914349       0.31833540 </v>
   <v>       0.04565955       0.05543212       0.56928941 </v>
   <v>       0.31801714       0.06254138       0.55660674 </v>
   <v>       0.56795580       0.05206067       0.56277180 </v>
   <v>       0.82361295       0.06134761       0.55694322 </v>
   <v>       0.06118819       0.31078208       0.56381602 </v>
   <v>       0.30946013       0.31375028       0.56149406 </v>
   <v>       0.55975124       0.31980409       0.55664784 </v>
   <v>       0.81610367       0.31182845       0.56154612 </v>
   <v>       0.05089633       0.56375963       0.56777955 </v>
   <v>       0.31138471       0.55414443       0.57016784 </v>
   <v>       0.55804753       0.56483303       0.56738158 </v>
   <v>       0.80936548       0.55931078       0.56967739 </v>
   <v>       0.06281279       0.81041212       0.56749365 </v>
   <v>       0.31518760       0.80554526       0.57835887 </v>
   <v>       0.55642513       0.81364755       0.56755185 </v>
   <v>       0.81288770       0.80347968       0.56463469 </v>
   <v>       0.07175288       0.06826074       0.80043693 </v>
   <v>       0.29399009       0.05988147       0.82964205 </v>
   <v>       0.55890761       0.07035147       0.81227630 </v>
   <v>       0.81837821       0.06328884       0.79680509 </v>
   <v>       0.06763968       0.30512124       0.81576587 </v>
   <v>       0.31889390       0.30569535       0.81735130 </v>
   <v>       0.56172740       0.31280580       0.80955568 </v>
   <v>       0.81364653       0.31655789       0.79689258 </v>
   <v>       0.04970355       0.55553371       0.81683871 </v>
   <v>       0.31628280       0.56081407       0.81667511 </v>
   <v>       0.56621103       0.56673094       0.80631678 </v>
   <v>       0.81865426       0.55694003       0.80644025 </v>
   <v>       0.06565805       0.81100359       0.81456026 </v>
   <v>       0.31153132       0.81473072       0.80965053 </v>
   <v>       0.55826024       0.81059847       0.82382808 </v>
   <v>       0.82287229       0.80490725       0.81203995 </v>
  </varray>
 </structure>
</modeling>
