potpaw_PBE@./ARUN.APL1ZEROSTATE         
           1
     0.000000   10.937334   10.937334
    10.937334    0.000000   10.937334
    10.937334   10.937334    0.000000
   Si
 128
Direct configuration=     1
   0.99882844  0.00440442  0.99254703
   0.25177659  0.99210883  0.00663379
   0.49025427  0.00581060  0.00466224
   0.74759288  0.01469616  0.98724545
   0.00355808  0.24624018  0.00442162
   0.25241468  0.25099816  0.99897431
   0.49296553  0.24368636  0.00948336
   0.75204939  0.24536792  0.00452023
   0.00348513  0.48764967  0.00623127
   0.24050545  0.50628261  0.99566663
   0.49625435  0.49507582  0.01063849
   0.74542052  0.50206287  0.00001870
   0.99250704  0.74378658  0.00716645
   0.25067570  0.75738084  0.99468496
   0.50121415  0.74760383  0.01149150
   0.74883888  0.73767028  0.01838914
   0.99164070  0.01098085  0.25409575
   0.23776398  0.01914589  0.24156178
   0.49610619  0.99619043  0.25778619
   0.73894446  0.00943150  0.25800677
   0.00252884  0.25278709  0.24594722
   0.25495934  0.24954047  0.24928819
   0.50379088  0.24292181  0.25152074
   0.75025968  0.24613869  0.25569610
   0.00105111  0.49663798  0.24875592
   0.25697233  0.49809543  0.24974790
   0.49940271  0.49328806  0.24809363
   0.75003025  0.50160439  0.25057621
   0.98031791  0.75047342  0.26413998
   0.24513681  0.75028751  0.25241647
   0.50593324  0.75156848  0.24760433
   0.74410747  0.74961242  0.25254421
   0.99586837  0.99638628  0.50526411
   0.23828988  0.00287488  0.51248448
   0.51300987  0.98793703  0.50436876
   0.76231946  0.99605537  0.48901179
   0.01216303  0.23778781  0.50043984
   0.25559469  0.25085138  0.49167057
   0.49344042  0.24237753  0.50518978
   0.74674254  0.25117780  0.50541144
   0.00555668  0.49573272  0.49488980
   0.24527833  0.49241945  0.51504896
   0.49574984  0.50000109  0.50039617
   0.77030324  0.50806277  0.49008474
   0.99704760  0.74015887  0.50559922
   0.26621580  0.74537641  0.49363937
   0.51194367  0.73570050  0.49723668
   0.75365149  0.75080201  0.49942407
   0.00018138  0.00136818  0.75356927
   0.25445741  0.99538318  0.74897552
   0.50603861  0.00201255  0.74625934
   0.75214433  0.98897257  0.75823415
   0.00355746  0.25511291  0.74200097
   0.24642852  0.25788934  0.75254084
   0.49703822  0.25267988  0.75458404
   0.75554388  0.25193598  0.74908251
   0.00250603  0.48254040  0.75257253
   0.24807385  0.50292431  0.75252762
   0.50129040  0.49460495  0.74843201
   0.76472791  0.48483516  0.75390807
   0.00077540  0.74418888  0.74963725
   0.24651884  0.74877082  0.75954020
   0.50569896  0.74240172  0.76156073
   0.74655308  0.74892414  0.75841620
   0.07444882  0.06207933  0.04868692
   0.31038349  0.06931063  0.05556348
   0.55902207  0.06012430  0.06437207
   0.80477582  0.06493306  0.07900427
   0.06961480  0.30739244  0.06777293
   0.30970377  0.31700786  0.05425979
   0.55340601  0.31650535  0.05378692
   0.81521813  0.30669822  0.06886759
   0.06805874  0.56744466  0.05760492
   0.31528768  0.54522128  0.07603436
   0.55744479  0.56397075  0.07723856
   0.81819864  0.55293029  0.06686814
   0.06086855  0.80675987  0.07323646
   0.31205083  0.81384610  0.06137004
   0.56364885  0.81100750  0.06817226
   0.81056971  0.81208794  0.07012474
   0.05509405  0.05957195  0.32258224
   0.31708318  0.05689669  0.30759161
   0.56403003  0.05291936  0.30909322
   0.81362865  0.07225961  0.29690265
   0.06216761  0.30099908  0.30955386
   0.31249351  0.31400218  0.30561830
   0.56740062  0.31554785  0.30876351
   0.81408504  0.32538105  0.30362473
   0.05849021  0.57647323  0.30946625
   0.31609385  0.57600850  0.31027321
   0.55904249  0.55970628  0.31274009
   0.82216946  0.56093090  0.31220177
   0.06127910  0.80799469  0.31869992
   0.31091297  0.80524645  0.31332583
   0.56755240  0.80779962  0.30179763
   0.80418664  0.81914349  0.31833540
   0.04565955  0.05543212  0.56928941
   0.31801714  0.06254138  0.55660674
   0.56795580  0.05206067  0.56277180
   0.82361295  0.06134761  0.55694322
   0.06118819  0.31078208  0.56381602
   0.30946013  0.31375028  0.56149406
   0.55975124  0.31980409  0.55664784
   0.81610367  0.31182845  0.56154612
   0.05089633  0.56375963  0.56777955
   0.31138471  0.55414443  0.57016784
   0.55804753  0.56483303  0.56738158
   0.80936548  0.55931078  0.56967739
   0.06281279  0.81041212  0.56749365
   0.31518760  0.80554526  0.57835887
   0.55642513  0.81364755  0.56755185
   0.81288770  0.80347968  0.56463469
   0.07175288  0.06826074  0.80043693
   0.29399009  0.05988147  0.82964205
   0.55890761  0.07035147  0.81227630
   0.81837821  0.06328884  0.79680509
   0.06763968  0.30512124  0.81576587
   0.31889390  0.30569535  0.81735130
   0.56172740  0.31280580  0.80955568
   0.81364653  0.31655789  0.79689258
   0.04970355  0.55553371  0.81683871
   0.31628280  0.56081407  0.81667511
   0.56621103  0.56673094  0.80631678
   0.81865426  0.55694003  0.80644025
   0.06565805  0.81100359  0.81456026
   0.31153132  0.81473072  0.80965053
   0.55826024  0.81059847  0.82382808
   0.82287229  0.80490725  0.81203995
