 128 128   0   0
  0.2044346E+02  0.1546773E-08  0.1546773E-08  0.1546773E-08  0.5000000E-15
  1.000000000000000E-004
  CAR 
 potpaw_PBE@./ARUN.APL1ZEROSTATE         
      9.33578833     -7.04307408  301      6.01906869      1.00000000
     -7.043  0.0000E+00  0.0000E+00
     -6.988  0.0000E+00  0.0000E+00
     -6.934  0.0000E+00  0.0000E+00
     -6.879  0.0000E+00  0.0000E+00
     -6.825  0.0000E+00  0.0000E+00
     -6.770  0.0000E+00  0.0000E+00
     -6.715  0.0000E+00  0.0000E+00
     -6.661  0.0000E+00  0.0000E+00
     -6.606  0.0000E+00  0.0000E+00
     -6.552  0.0000E+00  0.0000E+00
     -6.497  0.0000E+00  0.0000E+00
     -6.443  0.0000E+00  0.0000E+00
     -6.388  0.0000E+00  0.0000E+00
     -6.333  0.2049E-05  0.1119E-06
     -6.279  0.4568E+01  0.2494E+00
     -6.224  0.1143E-01  0.2500E+00
     -6.170  0.7421E-03  0.2500E+00
     -6.115  0.1757E+02  0.1210E+01
     -6.060  0.3121E+02  0.2913E+01
     -6.006  0.1419E+02  0.3688E+01
     -5.951  0.1132E+01  0.3750E+01
     -5.897  0.1009E-08  0.3750E+01
     -5.842  0.1044E+02  0.4320E+01
     -5.787  0.1594E+02  0.5190E+01
     -5.733  0.2086E+02  0.6329E+01
     -5.678  0.3583E+02  0.8285E+01
     -5.624  0.1860E+02  0.9301E+01
     -5.569  0.3735E+02  0.1134E+02
     -5.514  0.2393E+02  0.1265E+02
     -5.460  0.1975E+02  0.1372E+02
     -5.405  0.1447E+02  0.1451E+02
     -5.351  0.4382E+01  0.1475E+02
     -5.296  0.8910E+01  0.1524E+02
     -5.241  0.1618E+02  0.1612E+02
     -5.187  0.2443E+02  0.1746E+02
     -5.132  0.2175E+02  0.1864E+02
     -5.078  0.5616E+02  0.2171E+02
     -5.023  0.3853E+02  0.2381E+02
     -4.968  0.3348E+02  0.2564E+02
     -4.914  0.3959E+02  0.2780E+02
     -4.859  0.1435E+02  0.2859E+02
     -4.805  0.2212E+02  0.2980E+02
     -4.750  0.2455E+02  0.3114E+02
     -4.695  0.4472E+02  0.3358E+02
     -4.641  0.3342E+02  0.3540E+02
     -4.586  0.3130E+02  0.3711E+02
     -4.532  0.4500E+02  0.3957E+02
     -4.477  0.2917E+02  0.4116E+02
     -4.422  0.1971E+02  0.4224E+02
     -4.368  0.1895E+02  0.4327E+02
     -4.313  0.2762E+02  0.4478E+02
     -4.259  0.4035E+02  0.4698E+02
     -4.204  0.5606E+02  0.5004E+02
     -4.149  0.5230E+02  0.5290E+02
     -4.095  0.5120E+02  0.5569E+02
     -4.040  0.6598E+02  0.5930E+02
     -3.986  0.4648E+02  0.6183E+02
     -3.931  0.4801E+02  0.6445E+02
     -3.876  0.4807E+02  0.6708E+02
     -3.822  0.6478E+02  0.7062E+02
     -3.767  0.5006E+02  0.7335E+02
     -3.713  0.4804E+02  0.7597E+02
     -3.658  0.3229E+02  0.7773E+02
     -3.604  0.2933E+02  0.7934E+02
     -3.549  0.4095E+02  0.8157E+02
     -3.494  0.4441E+02  0.8400E+02
     -3.440  0.4770E+02  0.8660E+02
     -3.385  0.5263E+02  0.8947E+02
     -3.331  0.5934E+02  0.9271E+02
     -3.276  0.3550E+02  0.9465E+02
     -3.221  0.2922E+02  0.9625E+02
     -3.167  0.3948E+02  0.9840E+02
     -3.112  0.3618E+02  0.1004E+03
     -3.058  0.3818E+02  0.1025E+03
     -3.003  0.4973E+02  0.1052E+03
     -2.948  0.3942E+02  0.1073E+03
     -2.894  0.4349E+02  0.1097E+03
     -2.839  0.2455E+02  0.1110E+03
     -2.785  0.3994E+02  0.1132E+03
     -2.730  0.2069E+02  0.1144E+03
     -2.675  0.3167E+02  0.1161E+03
     -2.621  0.4698E+02  0.1186E+03
     -2.566  0.2824E+02  0.1202E+03
     -2.512  0.2764E+02  0.1217E+03
     -2.457  0.1889E+02  0.1227E+03
     -2.402  0.3631E+00  0.1228E+03
     -2.348  0.4569E+01  0.1230E+03
     -2.293  0.4561E+01  0.1232E+03
     -2.239  0.1049E+02  0.1238E+03
     -2.184  0.2163E+02  0.1250E+03
     -2.129  0.1858E+02  0.1260E+03
     -2.075  0.3360E+02  0.1279E+03
     -2.020  0.3213E+02  0.1296E+03
     -1.966  0.3176E+02  0.1313E+03
     -1.911  0.1420E+02  0.1321E+03
     -1.856  0.1115E+02  0.1327E+03
     -1.802  0.5059E+01  0.1330E+03
     -1.747  0.4018E+01  0.1332E+03
     -1.693  0.8366E+01  0.1337E+03
     -1.638  0.1491E+02  0.1345E+03
     -1.583  0.1275E+02  0.1352E+03
     -1.529  0.3676E+02  0.1372E+03
     -1.474  0.3950E+02  0.1393E+03
     -1.420  0.4075E+02  0.1416E+03
     -1.365  0.4385E+02  0.1440E+03
     -1.310  0.6369E+02  0.1474E+03
     -1.256  0.6781E+02  0.1511E+03
     -1.201  0.5565E+02  0.1542E+03
     -1.147  0.6301E+02  0.1576E+03
     -1.092  0.5693E+02  0.1607E+03
     -1.037  0.6061E+02  0.1640E+03
     -0.983  0.6424E+02  0.1676E+03
     -0.928  0.8014E+02  0.1719E+03
     -0.874  0.5355E+02  0.1748E+03
     -0.819  0.4341E+02  0.1772E+03
     -0.765  0.4364E+02  0.1796E+03
     -0.710  0.7011E+02  0.1834E+03
     -0.655  0.5218E+02  0.1863E+03
     -0.601  0.2686E+02  0.1877E+03
     -0.546  0.2267E+02  0.1890E+03
     -0.492  0.1993E+02  0.1901E+03
     -0.437  0.2972E+02  0.1917E+03
     -0.382  0.4116E+02  0.1939E+03
     -0.328  0.5489E+02  0.1969E+03
     -0.273  0.3112E+02  0.1986E+03
     -0.219  0.5037E+02  0.2014E+03
     -0.164  0.6541E+02  0.2050E+03
     -0.109  0.3905E+02  0.2071E+03
     -0.055  0.3131E+02  0.2088E+03
     -0.000  0.3512E+02  0.2107E+03
      0.054  0.2888E+02  0.2123E+03
      0.109  0.2248E+02  0.2135E+03
      0.164  0.8768E+01  0.2140E+03
      0.218  0.1734E+02  0.2149E+03
      0.273  0.1635E+02  0.2158E+03
      0.327  0.2649E+02  0.2173E+03
      0.382  0.3559E+02  0.2192E+03
      0.437  0.1827E+02  0.2202E+03
      0.491  0.1816E+02  0.2212E+03
      0.546  0.1210E+02  0.2219E+03
      0.600  0.2129E+02  0.2230E+03
      0.655  0.3312E+02  0.2248E+03
      0.710  0.2734E+02  0.2263E+03
      0.764  0.1662E+02  0.2272E+03
      0.819  0.4426E+01  0.2275E+03
      0.873  0.5325E+01  0.2278E+03
      0.928  0.1855E+02  0.2288E+03
      0.983  0.2499E+02  0.2302E+03
      1.037  0.2463E+02  0.2315E+03
      1.092  0.2351E+02  0.2328E+03
      1.146  0.2366E+02  0.2341E+03
      1.201  0.3630E+02  0.2361E+03
      1.256  0.2340E+02  0.2373E+03
      1.310  0.2932E+02  0.2389E+03
      1.365  0.3420E+02  0.2408E+03
      1.419  0.4055E+02  0.2430E+03
      1.474  0.5765E+02  0.2462E+03
      1.529  0.7586E+02  0.2503E+03
      1.583  0.9160E+02  0.2553E+03
      1.638  0.8051E+02  0.2597E+03
      1.692  0.6802E+02  0.2634E+03
      1.747  0.6523E+02  0.2670E+03
      1.802  0.4884E+02  0.2696E+03
      1.856  0.3832E+02  0.2717E+03
      1.911  0.3161E+02  0.2735E+03
      1.965  0.1931E+02  0.2745E+03
      2.020  0.2656E+02  0.2760E+03
      2.074  0.6958E+02  0.2798E+03
      2.129  0.9485E+02  0.2849E+03
      2.184  0.1113E+03  0.2910E+03
      2.238  0.1027E+03  0.2966E+03
      2.293  0.1161E+03  0.3030E+03
      2.347  0.1175E+03  0.3094E+03
      2.402  0.1097E+03  0.3154E+03
      2.457  0.7347E+02  0.3194E+03
      2.511  0.4438E+02  0.3218E+03
      2.566  0.4178E+02  0.3241E+03
      2.620  0.4814E+02  0.3267E+03
      2.675  0.6083E+02  0.3300E+03
      2.730  0.8066E+02  0.3344E+03
      2.784  0.8607E+02  0.3391E+03
      2.839  0.9761E+02  0.3445E+03
      2.893  0.8878E+02  0.3493E+03
      2.948  0.9494E+02  0.3545E+03
      3.003  0.9177E+02  0.3595E+03
      3.057  0.1059E+03  0.3653E+03
      3.112  0.7638E+02  0.3695E+03
      3.166  0.9396E+02  0.3746E+03
      3.221  0.7441E+02  0.3787E+03
      3.276  0.8242E+02  0.3832E+03
      3.330  0.9640E+02  0.3884E+03
      3.385  0.9528E+02  0.3936E+03
      3.439  0.9318E+02  0.3987E+03
      3.494  0.8757E+02  0.4035E+03
      3.549  0.8930E+02  0.4084E+03
      3.603  0.6024E+02  0.4117E+03
      3.658  0.7903E+02  0.4160E+03
      3.712  0.7372E+02  0.4200E+03
      3.767  0.9530E+02  0.4252E+03
      3.822  0.7634E+02  0.4294E+03
      3.876  0.7960E+02  0.4337E+03
      3.931  0.7819E+02  0.4380E+03
      3.985  0.6683E+02  0.4416E+03
      4.040  0.7955E+02  0.4460E+03
      4.095  0.5677E+02  0.4491E+03
      4.149  0.6931E+02  0.4529E+03
      4.204  0.7778E+02  0.4571E+03
      4.258  0.6469E+02  0.4606E+03
      4.313  0.7968E+02  0.4650E+03
      4.368  0.6233E+02  0.4684E+03
      4.422  0.7384E+02  0.4724E+03
      4.477  0.6237E+02  0.4758E+03
      4.531  0.5436E+02  0.4788E+03
      4.586  0.5909E+02  0.4820E+03
      4.641  0.6234E+02  0.4854E+03
      4.695  0.4406E+02  0.4878E+03
      4.750  0.4361E+02  0.4902E+03
      4.804  0.2717E+02  0.4917E+03
      4.859  0.4068E+02  0.4939E+03
      4.913  0.3481E+02  0.4958E+03
      4.968  0.2197E+02  0.4970E+03
      5.023  0.3976E+02  0.4992E+03
      5.077  0.2089E+02  0.5003E+03
      5.132  0.3387E+02  0.5022E+03
      5.186  0.1913E+02  0.5032E+03
      5.241  0.8115E+01  0.5037E+03
      5.296  0.2118E+02  0.5048E+03
      5.350  0.1549E+02  0.5057E+03
      5.405  0.8360E+01  0.5061E+03
      5.459  0.2328E+02  0.5074E+03
      5.514  0.6486E+01  0.5077E+03
      5.569  0.1558E+02  0.5086E+03
      5.623  0.2691E+02  0.5101E+03
      5.678  0.1324E+02  0.5108E+03
      5.732  0.1281E+02  0.5115E+03
      5.787  0.4249E+01  0.5117E+03
      5.842  0.5039E+00  0.5118E+03
      5.896  0.3965E-12  0.5118E+03
      5.951  0.2921E+01  0.5119E+03
      6.005  0.1658E+01  0.5120E+03
      6.060  0.3421E-12  0.5120E+03
      6.115  0.3223E+01  0.5122E+03
      6.169  0.1661E+02  0.5131E+03
      6.224  0.1681E+02  0.5140E+03
      6.278  0.1563E+02  0.5149E+03
      6.333  0.1925E+02  0.5159E+03
      6.388  0.2423E+02  0.5172E+03
      6.442  0.1648E+02  0.5181E+03
      6.497  0.3231E+02  0.5199E+03
      6.551  0.1768E+02  0.5209E+03
      6.606  0.2120E+02  0.5220E+03
      6.661  0.1368E+02  0.5228E+03
      6.715  0.2425E+02  0.5241E+03
      6.770  0.3285E+02  0.5259E+03
      6.824  0.3070E+02  0.5276E+03
      6.879  0.3515E+02  0.5295E+03
      6.934  0.3998E+02  0.5317E+03
      6.988  0.3480E+02  0.5336E+03
      7.043  0.4205E+02  0.5359E+03
      7.097  0.3641E+02  0.5378E+03
      7.152  0.2792E+02  0.5394E+03
      7.207  0.3162E+02  0.5411E+03
      7.261  0.4743E+02  0.5437E+03
      7.316  0.6228E+02  0.5471E+03
      7.370  0.8730E+02  0.5518E+03
      7.425  0.7431E+02  0.5559E+03
      7.480  0.8049E+02  0.5603E+03
      7.534  0.9169E+02  0.5653E+03
      7.589  0.9354E+02  0.5704E+03
      7.643  0.7766E+02  0.5747E+03
      7.698  0.8370E+02  0.5792E+03
      7.752  0.9231E+02  0.5843E+03
      7.807  0.9264E+02  0.5893E+03
      7.862  0.7779E+02  0.5936E+03
      7.916  0.1005E+03  0.5991E+03
      7.971  0.9963E+02  0.6045E+03
      8.025  0.8806E+02  0.6093E+03
      8.080  0.1000E+03  0.6148E+03
      8.135  0.7228E+02  0.6187E+03
      8.189  0.7873E+02  0.6230E+03
      8.244  0.8546E+02  0.6277E+03
      8.298  0.9825E+02  0.6330E+03
      8.353  0.8366E+02  0.6376E+03
      8.408  0.5893E+02  0.6408E+03
      8.462  0.4138E+02  0.6431E+03
      8.517  0.3483E+01  0.6433E+03
      8.571  0.8516E+01  0.6437E+03
      8.626  0.4905E+01  0.6440E+03
      8.681  0.0000E+00  0.6440E+03
      8.735  0.0000E+00  0.6440E+03
      8.790  0.0000E+00  0.6440E+03
      8.844  0.0000E+00  0.6440E+03
      8.899  0.0000E+00  0.6440E+03
      8.954  0.0000E+00  0.6440E+03
      9.008  0.0000E+00  0.6440E+03
      9.063  0.0000E+00  0.6440E+03
      9.117  0.0000E+00  0.6440E+03
      9.172  0.0000E+00  0.6440E+03
      9.227  0.0000E+00  0.6440E+03
      9.281  0.0000E+00  0.6440E+03
      9.336  0.0000E+00  0.6440E+03
