 vasp.5.4.4.18Apr17-6-g9f103f2a35 (build Nov 08 2017 09:05:29) complex          
  
 executed on          Intel_17.33 date 2020.07.18  20:14:22
 running on   32 total cores
 distrk:  each k-point on   32 cores,    1 groups
 distr:  one band on NCORES_PER_BAND=  16 cores,    2 groups


--------------------------------------------------------------------------------------------------------


 INCAR:
 POTCAR:   PAW_PBE Si 05Jan2001                   

 ----------------------------------------------------------------------------- 
|                                                                             |
|           W    W    AA    RRRRR   N    N  II  N    N   GGGG   !!!           |
|           W    W   A  A   R    R  NN   N  II  NN   N  G    G  !!!           |
|           W    W  A    A  R    R  N N  N  II  N N  N  G       !!!           |
|           W WW W  AAAAAA  RRRRR   N  N N  II  N  N N  G  GGG   !            |
|           WW  WW  A    A  R   R   N   NN  II  N   NN  G    G                |
|           W    W  A    A  R    R  N    N  II  N    N   GGGG   !!!           |
|                                                                             |
|      For optimal performance we recommend to set                            |
|        NCORE= 4 - approx SQRT( number of cores)                             |
|      NCORE specifies how many cores store one orbital (NPAR=cpu/NCORE).     |
|      This setting can  greatly improve the performance of VASP for DFT.     |
|      The default,   NCORE=1            might be grossly inefficient         |
|      on modern multi-core architectures or massively parallel machines.     |
|      Do your own testing !!!!                                               |
|      Unfortunately you need to use the default for GW and RPA calculations. |
|      (for HF NCORE is supported but not extensively tested yet)             |
|                                                                             |
 ----------------------------------------------------------------------------- 

 POTCAR:   PAW_PBE Si 05Jan2001                   
   VRHFIN =Si: s2p2                                                             
   LEXCH  = PE                                                                  
   EATOM  =   103.0669 eV,    7.5752 Ry                                         
                                                                                
   TITEL  = PAW_PBE Si 05Jan2001                                                
   LULTRA =        F    use ultrasoft PP ?                                      
   IUNSCR =        1    unscreen: 0-lin 1-nonlin 2-no                           
   RPACOR =    1.500    partial core radius                                     
   POMASS =   28.085; ZVAL   =    4.000    mass and valenz                      
   RCORE  =    1.900    outmost cutoff radius                                   
   RWIGS  =    2.480; RWIGS  =    1.312    wigner-seitz radius (au A)           
   ENMAX  =  245.345; ENMIN  =  184.009 eV                                      
   ICORE  =        2    local potential                                         
   LCOR   =        T    correct aug charges                                     
   LPAW   =        T    paw PP                                                  
   EAUG   =  322.069                                                            
   DEXC   =    -.007                                                            
   RMAX   =    2.944    core radius for proj-oper                               
   RAUG   =    1.300    factor for augmentation sphere                          
   RDEP   =    1.993    radius for radial grids                                 
   QCUT   =   -4.246; QGAM   =    8.493    optimization parameters              
                                                                                
   Description                                                                  
     l     E      TYP  RCUT    TYP  RCUT                                        
     0   .000     23  1.900                                                     
     0   .000     23  1.900                                                     
     1   .000     23  1.900                                                     
     1   .000     23  1.900                                                     
     2   .000      7  1.900                                                     
  local pseudopotential read in
  partial core-charges read in
  atomic valenz-charges read in
  non local Contribution for L=           0  read in
    real space projection operators read in
  non local Contribution for L=           0  read in
    real space projection operators read in
  non local Contribution for L=           1  read in
    real space projection operators read in
  non local Contribution for L=           1  read in
    real space projection operators read in
    PAW grid and wavefunctions read in
 
   number of l-projection  operators is LMAX  =           4
   number of lm-projection operators is LMMAX =           8
 

 ----------------------------------------------------------------------------- 
|                                                                             |
|  ADVICE TO THIS USER RUNNING 'VASP/VAMP'   (HEAR YOUR MASTER'S VOICE ...):  |
|                                                                             |
|      You have a (more or less) 'large supercell' and for larger cells       |
|      it might be more efficient to use real space projection operators      |
|      So try LREAL= Auto  in the INCAR   file.                               |
|      Mind: If you want to do a very accurate calculations keep the          |
|      reciprocal projection scheme          (i.e. LREAL=.FALSE.)             |
|                                                                             |
 ----------------------------------------------------------------------------- 

 PAW_PBE Si 05Jan2001                   :
 energy of atom  1       EATOM= -103.0669
 kinetic energy error for atom=    0.0006 (will be added to EATOM!!)
 
 
 POSCAR: kk                                      
  positions in direct lattice
  No initial velocities read in
 exchange correlation table for  LEXCH =        8
   RHO(1)=    0.500       N(1)  =     2000
   RHO(2)=  100.500       N(2)  =     4000
 


--------------------------------------------------------------------------------------------------------


 ion  position               nearest neighbor table
   1  0.007  0.997  0.998- 113 2.23  77 2.33  65 2.38  68 2.57
   2  0.260  0.995  0.985- 114 2.26  78 2.34  65 2.39  66 2.46
   3  0.500  0.005  0.994- 115 2.27  66 2.34  67 2.42  79 2.46
   4  0.747  0.996  0.007-  67 2.24  80 2.29  68 2.39 116 2.54
   5  0.996  0.243  0.992-  72 2.23  65 2.39 117 2.41  69 2.55
   6  0.242  0.260  0.006-  69 2.28  70 2.31 118 2.45  66 2.61
   7  0.494  0.257  0.993- 119 2.30  70 2.32  71 2.36  67 2.54
   8  0.752  0.256  0.993-  68 2.28 120 2.28  71 2.38  72 2.49
   9  0.003  0.494  0.002- 121 2.21  73 2.33  69 2.34  76 2.38
  10  0.248  0.504  0.002-  74 2.33 122 2.35  73 2.42  70 2.45
  11  0.501  0.496  0.003- 123 2.34  74 2.35  71 2.42  75 2.43
  12  0.741  0.500  1.000-  75 2.30  72 2.33 124 2.48  76 2.70
  13  0.003  0.752  0.994- 125 2.27  80 2.30  73 2.43  77 2.49
  14  0.250  0.750  0.991- 126 2.29  74 2.32  77 2.39  78 2.41
  15  0.500  0.748  0.003-  75 2.30  78 2.44  79 2.44 127 2.49
  16  0.747  0.740  0.013-  76 2.21  79 2.30  80 2.37 128 2.43
  17  0.008  0.997  0.252-  93 2.34  65 2.38  81 2.39  84 2.46
  18  0.246  0.002  0.259-  81 2.26  82 2.32  66 2.45  94 2.50
  19  0.506  0.993  0.246-  95 2.17  67 2.28  83 2.37  82 2.46
  20  0.750  0.001  0.240-  68 2.31  96 2.33  83 2.42  84 2.49
  21  0.998  0.263  0.234-  69 2.19  88 2.35  85 2.46  81 2.59
  22  0.242  0.258  0.245-  70 2.23  85 2.34  82 2.35  86 2.46
  23  0.495  0.241  0.249-  86 2.24  83 2.25  71 2.37  87 2.59
  24  0.748  0.245  0.244-  87 2.36  72 2.36  84 2.41  88 2.74
  25  0.991  0.505  0.258-  92 2.19  85 2.31  89 2.32  73 2.42
  26  0.252  0.490  0.246-  86 2.35  89 2.36  74 2.40  90 2.56
  27  0.500  0.508  0.246-  91 2.20  90 2.25  75 2.27  87 2.36
  28  0.752  0.502  0.249-  88 2.22  92 2.22  76 2.22  91 2.48
  29  0.014  0.741  0.254-  89 2.32  77 2.33  93 2.33  96 2.55
  30  0.236  0.757  0.245-  93 2.23  78 2.31  90 2.48  94 2.56
  31  0.503  0.753  0.254-  95 2.23  94 2.29  79 2.33  91 2.39
  32  0.744  0.746  0.254-  95 2.46  92 2.47  96 2.53  80 2.58
  33  0.007  0.996  0.499- 109 2.21  81 2.26  97 2.33 100 2.43
  34  0.252  0.002  0.494-  97 2.28 110 2.29  82 2.36  98 2.37
  35  0.496  0.010  0.500-  99 2.35  83 2.40 111 2.40  98 2.40
  36  0.764  0.987  0.496- 112 2.19  84 2.24 100 2.41  99 2.52
  37  0.998  0.252  0.502- 101 2.23 104 2.27  97 2.43  85 2.44
  38  0.239  0.255  0.496- 101 2.22  86 2.28  98 2.47 102 2.53
  39  0.501  0.254  0.498- 103 2.30 102 2.38  87 2.44  99 2.50
  40  0.747  0.243  0.509- 100 2.25 103 2.29 104 2.49  88 2.49
  41  0.000  0.495  0.499- 108 2.32  89 2.32 101 2.36 105 2.58
  42  0.252  0.496  0.490- 102 2.19  90 2.32 105 2.32 106 2.53
  43  0.500  0.496  0.501- 106 2.28 107 2.37 103 2.38  91 2.44
  44  0.753  0.493  0.500- 104 2.31  92 2.43 107 2.49 108 2.59
  45  0.992  0.753  0.494- 112 2.19  93 2.20 105 2.52 109 2.62
  46  0.246  0.752  0.509- 110 2.19 109 2.30 106 2.39  94 2.49
  47  0.492  0.742  0.505- 107 2.29 110 2.32  95 2.41 111 2.56
  48  0.749  0.750  0.501- 108 2.31  96 2.35 111 2.37 112 2.43
  49  0.004  0.996  0.743- 125 2.34  97 2.38 113 2.44 116 2.49
  50  0.243  0.005  0.759- 126 2.24 114 2.30 113 2.35  98 2.42
  51  0.497  0.998  0.750- 114 2.21  99 2.28 115 2.32 127 2.32
  52  0.751  0.997  0.746- 116 2.23 128 2.31 100 2.39 115 2.59
  53  0.995  0.253  0.744- 120 2.22 101 2.38 113 2.48 117 2.50
  54  0.257  0.248  0.740- 118 2.25 102 2.35 117 2.37 114 2.39
  55  0.500  0.257  0.746- 119 2.32 103 2.32 115 2.40 118 2.47
  56  0.741  0.250  0.771- 119 2.25 120 2.25 116 2.49 104 2.59
  57  0.996  0.500  0.751- 124 2.25 105 2.25 117 2.31 121 2.41
  58  0.250  0.503  0.757- 122 2.35 121 2.43 106 2.54 118 2.55
  59  0.487  0.501  0.764- 122 2.20 119 2.42 123 2.45 107 2.48
  60  0.750  0.490  0.754- 120 2.30 108 2.39 124 2.40 123 2.43
  61  0.999  0.758  0.743- 109 2.29 128 2.32 125 2.40 121 2.61
  62  0.252  0.741  0.761- 122 2.20 125 2.37 126 2.45 110 2.69
  63  0.495  0.754  0.757- 127 2.28 123 2.32 126 2.36 111 2.47
  64  0.751  0.753  0.741- 112 2.31 127 2.35 124 2.43 128 2.62
  65  0.071  0.055  0.064-   1 2.38  17 2.38   5 2.39   2 2.39
  66  0.315  0.053  0.066-   3 2.34  18 2.45   2 2.46   6 2.61
  67  0.569  0.056  0.065-   4 2.24  19 2.28   3 2.42   7 2.54
  68  0.804  0.075  0.058-   8 2.28  20 2.31   4 2.39   1 2.57
  69  0.062  0.309  0.061-  21 2.19   6 2.28   9 2.34   5 2.55
  70  0.311  0.310  0.068-  22 2.23   6 2.31   7 2.32  10 2.45
  71  0.564  0.305  0.061-   7 2.36  23 2.37   8 2.38  11 2.42
  72  0.822  0.316  0.059-   5 2.23  12 2.33  24 2.36   8 2.49
  73  0.057  0.560  0.067-   9 2.33  25 2.42  10 2.42  13 2.43
  74  0.315  0.567  0.057-  14 2.32  10 2.33  11 2.35  26 2.40
  75  0.559  0.566  0.067-  27 2.27  12 2.30  15 2.30  11 2.43
  76  0.815  0.565  0.073-  16 2.21  28 2.22   9 2.38  12 2.70
  77  0.062  0.813  0.071-   1 2.33  29 2.33  14 2.39  13 2.49
  78  0.308  0.811  0.063-  30 2.31   2 2.34  14 2.41  15 2.44
  79  0.565  0.810  0.069-  16 2.30  31 2.33  15 2.44   3 2.46
  80  0.820  0.816  0.050-   4 2.29  13 2.30  16 2.37  32 2.58
  81  0.067  0.059  0.320-  18 2.26  33 2.26  17 2.39  21 2.59
  82  0.312  0.072  0.307-  18 2.32  22 2.35  34 2.36  19 2.46
  83  0.558  0.062  0.311-  23 2.25  19 2.37  35 2.40  20 2.42
  84  0.814  0.055  0.319-  36 2.24  24 2.41  17 2.46  20 2.49
  85  0.058  0.323  0.309-  25 2.31  22 2.34  37 2.44  21 2.46
  86  0.318  0.305  0.316-  23 2.24  38 2.28  26 2.35  22 2.46
  87  0.563  0.321  0.305-  24 2.36  27 2.36  39 2.44  23 2.59
  88  0.813  0.327  0.313-  28 2.22  21 2.35  40 2.49  24 2.74
  89  0.065  0.558  0.316-  29 2.32  41 2.32  25 2.32  26 2.36
  90  0.322  0.562  0.307-  27 2.25  42 2.32  30 2.48  26 2.56
  91  0.555  0.565  0.308-  27 2.20  31 2.39  43 2.44  28 2.48
  92  0.819  0.551  0.308-  25 2.19  28 2.22  44 2.43  32 2.47
  93  0.061  0.812  0.321-  45 2.20  30 2.23  29 2.33  17 2.34
  94  0.322  0.805  0.313-  31 2.29  46 2.49  18 2.50  30 2.56
  95  0.549  0.821  0.315-  19 2.17  31 2.23  47 2.41  32 2.46
  96  0.812  0.818  0.315-  20 2.33  48 2.35  32 2.53  29 2.55
  97  0.072  0.060  0.555-  34 2.28  33 2.33  49 2.38  37 2.43
  98  0.306  0.060  0.568-  34 2.37  35 2.40  50 2.42  38 2.47
  99  0.565  0.055  0.570-  51 2.28  35 2.35  39 2.50  36 2.52
 100  0.815  0.066  0.557-  40 2.25  52 2.39  36 2.41  33 2.43
 101  0.064  0.309  0.556-  38 2.22  37 2.23  41 2.36  53 2.38
 102  0.313  0.323  0.554-  42 2.19  54 2.35  39 2.38  38 2.53
 103  0.566  0.307  0.562-  40 2.29  39 2.30  55 2.32  43 2.38
 104  0.819  0.311  0.567-  37 2.27  44 2.31  40 2.49  56 2.59
 105  0.070  0.555  0.573-  57 2.25  42 2.32  45 2.52  41 2.58
 106  0.320  0.563  0.555-  43 2.28  46 2.39  42 2.53  58 2.54
 107  0.556  0.561  0.567-  47 2.29  43 2.37  59 2.48  44 2.49
 108  0.818  0.567  0.566-  48 2.31  41 2.32  60 2.39  44 2.59
 109  0.064  0.821  0.562-  33 2.21  61 2.29  46 2.30  45 2.62
 110  0.310  0.821  0.549-  46 2.19  34 2.29  47 2.32  62 2.69
 111  0.561  0.820  0.561-  48 2.37  35 2.40  63 2.47  47 2.56
 112  0.819  0.814  0.558-  45 2.19  36 2.19  64 2.31  48 2.43
 113  0.057  0.057  0.822-   1 2.23  50 2.35  49 2.44  53 2.48
 114  0.323  0.059  0.806-  51 2.21   2 2.26  50 2.30  54 2.39
 115  0.546  0.068  0.815-   3 2.27  51 2.32  55 2.40  52 2.59
 116  0.808  0.056  0.806-  52 2.23  49 2.49  56 2.49   4 2.54
 117  0.069  0.318  0.803-  57 2.31  54 2.37   5 2.41  53 2.50
 118  0.306  0.302  0.814-  54 2.25   6 2.45  55 2.47  58 2.55
 119  0.565  0.311  0.811-  56 2.25   7 2.30  55 2.32  59 2.42
 120  0.820  0.308  0.812-  53 2.22  56 2.25   8 2.28  60 2.30
 121  0.058  0.552  0.827-   9 2.21  57 2.41  58 2.43  61 2.61
 122  0.312  0.567  0.816-  62 2.20  59 2.20  10 2.35  58 2.35
 123  0.558  0.570  0.817-  63 2.32  11 2.34  60 2.43  59 2.45
 124  0.818  0.561  0.804-  57 2.25  60 2.40  64 2.43  12 2.48
 125  0.064  0.811  0.814-  13 2.27  49 2.34  62 2.37  61 2.40
 126  0.309  0.827  0.810-  50 2.24  14 2.29  63 2.36  62 2.45
 127  0.565  0.814  0.806-  63 2.28  51 2.32  64 2.35  15 2.49
 128  0.815  0.815  0.821-  52 2.31  61 2.32  16 2.43  64 2.62
 
  LATTYP: Found a face centered cubic cell.
 ALAT       =    21.8746673814
  
  Lattice vectors:
  
 A1 = (   0.0000000000,  10.9373336907,  10.9373336907)
 A2 = (  10.9373336907,   0.0000000000,  10.9373336907)
 A3 = (  10.9373336907,  10.9373336907,   0.0000000000)


Analysis of symmetry for initial positions (statically):
=====================================================================
 Subroutine PRICEL returns:
 Original cell was already a primitive cell.
 

 Routine SETGRP: Setting up the symmetry group for a 
 face centered cubic supercell.


 Subroutine GETGRP returns: Found  1 space group operations
 (whereof  1 operations were pure point group operations)
 out of a pool of 48 trial point group operations.


The static configuration has the point symmetry C_1 .


Analysis of symmetry for dynamics (positions and initial velocities):
=====================================================================
 Subroutine PRICEL returns:
 Original cell was already a primitive cell.
 

 Routine SETGRP: Setting up the symmetry group for a 
 face centered cubic supercell.


 Subroutine GETGRP returns: Found  1 space group operations
 (whereof  1 operations were pure point group operations)
 out of a pool of 48 trial point group operations.


The dynamic configuration has the point symmetry C_1 .


 Subroutine INISYM returns: Found  1 space group operations
 (whereof  1 operations are pure point group operations),
 and found     1 'primitive' translations

 
 
 KPOINTS: KPOINTS File, automatically generated by

Automatic generation of k-mesh.
Space group operators:
 irot       det(A)        alpha          n_x          n_y          n_z        tau_x        tau_y        tau_z
    1     1.000000     0.000001     1.000000     0.000000     0.000000     0.000000     0.000000     0.000000
 
 Subroutine IBZKPT returns following result:
 ===========================================
 
 Found      8 irreducible k-points:
 
 Following reciprocal coordinates:
            Coordinates               Weight
  0.000000  0.000000  0.000000      1.000000
  0.500000  0.000000  0.000000      1.000000
  0.000000  0.500000  0.000000      1.000000
  0.500000  0.500000  0.000000      1.000000
  0.000000  0.000000  0.500000      1.000000
  0.500000  0.000000  0.500000      1.000000
  0.000000  0.500000  0.500000      1.000000
  0.500000  0.500000  0.500000      1.000000
 
 Following cartesian coordinates:
            Coordinates               Weight
  0.000000  0.000000  0.000000      1.000000
 -0.022857  0.022857  0.022857      1.000000
  0.022857 -0.022857  0.022857      1.000000
  0.000000  0.000000  0.045715      1.000000
  0.022857  0.022857 -0.022857      1.000000
  0.000000  0.045715  0.000000      1.000000
  0.045715  0.000000  0.000000      1.000000
  0.022857  0.022857  0.022857      1.000000
 


--------------------------------------------------------------------------------------------------------




 Dimension of arrays:
   k-points           NKPTS =      8   k-points in BZ     NKDIM =      8   number of bands    NBANDS=    322
   number of dos      NEDOS =    301   number of ions     NIONS =    128
   non local maximal  LDIM  =      4   non local SUM 2l+1 LMDIM =      8
   total plane-waves  NPLWV = ******
   max r-space proj   IRMAX =      1   max aug-charges    IRDMAX= 176811
   dimension x,y,z NGX =   120 NGY =  120 NGZ =  120
   dimension x,y,z NGXF=   240 NGYF=  240 NGZF=  240
   support grid    NGXF=   480 NGYF=  480 NGZF=  480
   ions per type =             128
   NGX,Y,Z   is equivalent  to a cutoff of  12.90, 12.90, 12.90 a.u.
   NGXF,Y,Z  is equivalent  to a cutoff of  25.80, 25.80, 25.80 a.u.

 SYSTEM =  potpaw_PBE@./ARUN.APL1ZEROSTATE         
 POSCAR =  kk                                      

 Startparameter for this run:
   NWRITE =      2    write-flag & timer
   PREC   = accura    normal or accurate (medium, high low for compatibility)
   ISTART =      0    job   : 0-new  1-cont  2-samecut
   ICHARG =      2    charge: 1-file 2-atom 10-const
   ISPIN  =      1    spin polarized calculation?
   LNONCOLLINEAR =      F non collinear calculations
   LSORBIT =      F    spin-orbit coupling
   INIWAV =      1    electr: 0-lowe 1-rand  2-diag
   LASPH  =      F    aspherical Exc in radial PAW
   METAGGA=      F    non-selfconsistent MetaGGA calc.

 Electronic Relaxation 1
   ENCUT  =  500.0 eV  36.75 Ry    6.06 a.u.  28.20 28.20 28.20*2*pi/ulx,y,z
   ENINI  =  500.0     initial cutoff
   ENAUG  =  322.1 eV  augmentation charge cutoff
   NELM   =    120;   NELMIN=  4; NELMDL= -5     # of ELM steps 
   EDIFF  = 0.1E-07   stopping-criterion for ELM
   LREAL  =      F    real-space projection
   NLSPLINE    = F    spline interpolate recip. space projectors
   LCOMPAT=      F    compatible to vasp.4.4
   GGA_COMPAT  = T    GGA compatible to vasp.4.4-vasp.4.6
   LMAXPAW     = -100 max onsite density
   LMAXMIX     =    2 max onsite mixed and CHGCAR
   VOSKOWN=      0    Vosko Wilk Nusair interpolation
   ROPT   =    0.00000
 Ionic relaxation
   EDIFFG = 0.1E-06   stopping-criterion for IOM
   NSW    =      0    number of steps for IOM
   NBLOCK =      1;   KBLOCK =      1    inner block; outer block 
   IBRION =     -1    ionic relax: 0-MD 1-quasi-New 2-CG
   NFREE  =      0    steps in history (QN), initial steepest desc. (CG)
   ISIF   =      2    stress and relaxation
   IWAVPR =     10    prediction:  0-non 1-charg 2-wave 3-comb
   ISYM   =      2    0-nonsym 1-usesym 2-fastsym
   LCORR  =      T    Harris-Foulkes like correction to forces

   POTIM  = 0.5000    time-step for ionic-motion
   TEIN   =    0.0    initial temperature
   TEBEG  =    0.0;   TEEND  =   0.0 temperature during run
   SMASS  =  -3.00    Nose mass-parameter (am)
   estimated Nose-frequenzy (Omega)   =  0.10E-29 period in steps =****** mass=  -0.547E-26a.u.
   SCALEE = 1.0000    scale energy and forces
   NPACO  =    256;   APACO  = 16.0  distance and # of slots for P.C.
   PSTRESS=    0.0 pullay stress

  Mass of Ions in am
   POMASS =  28.09
  Ionic Valenz
   ZVAL   =   4.00
  Atomic Wigner-Seitz radii
   RWIGS  =  -1.00
  virtual crystal weights 
   VCA    =   1.00
   NELECT =     512.0000    total number of electrons
   NUPDOWN=      -1.0000    fix difference up-down

 DOS related values:
   EMIN   =  10.00;   EMAX   =-10.00  energy-range for DOS
   EFERMI =   0.00
   ISMEAR =     0;   SIGMA  =   0.01  broadening in eV -4-tet -1-fermi 0-gaus

 Electronic relaxation 2 (details)
   IALGO  =     38    algorithm
   LDIAG  =      T    sub-space diagonalisation (order eigenvalues)
   LSUBROT=      F    optimize rotation matrix (better conditioning)
   TURBO    =      0    0=normal 1=particle mesh
   IRESTART =      0    0=no restart 2=restart with 2 vectors
   NREBOOT  =      0    no. of reboots
   NMIN     =      0    reboot dimension
   EREF     =   0.00    reference energy to select bands
   IMIX   =      4    mixing-type and parameters
     AMIX     =   0.40;   BMIX     =  1.00
     AMIX_MAG =   1.60;   BMIX_MAG =  1.00
     AMIN     =   0.10
     WC   =   100.;   INIMIX=   1;  MIXPRE=   1;  MAXMIX= -45

 Intra band minimization:
   WEIMIN = 0.0000     energy-eigenvalue tresh-hold
   EBREAK =  0.78E-11  absolut break condition
   DEPER  =   0.30     relativ break condition  

   TIME   =   0.40     timestep for ELM

  volume/ion in A,a.u.               =      20.44       137.96
  Fermi-wavevector in a.u.,A,eV,Ry     =   0.950408  1.796010 12.289804  0.903275
  Thomas-Fermi vector in A             =   2.078782
 
 Write flags
   LWAVE        =      F    write WAVECAR
   LDOWNSAMPLE  =      F    k-point downsampling of WAVECAR
   LCHARG       =      F    write CHGCAR
   LVTOT        =      F    write LOCPOT, total local potential
   LVHAR        =      F    write LOCPOT, Hartree potential only
   LELF         =      F    write electronic localiz. function (ELF)
   LORBIT       =      0    0 simple, 1 ext, 2 COOP (PROOUT), +10 PAW based schemes


 Dipole corrections
   LMONO  =      F    monopole corrections only (constant potential shift)
   LDIPOL =      F    correct potential (dipole corrections)
   IDIPOL =      0    1-x, 2-y, 3-z, 4-all directions 
   EPSILON=  1.0000000 bulk dielectric constant

 Exchange correlation treatment:
   GGA     =    --    GGA type
   LEXCH   =     8    internal setting for exchange type
   VOSKOWN=      0    Vosko Wilk Nusair interpolation
   LHFCALC =     F    Hartree Fock is set to
   LHFONE  =     F    Hartree Fock one center treatment
   AEXX    =    0.0000 exact exchange contribution

 Linear response parameters
   LEPSILON=     F    determine dielectric tensor
   LRPA    =     F    only Hartree local field effects (RPA)
   LNABLA  =     F    use nabla operator in PAW spheres
   LVEL    =     F    velocity operator in full k-point grid
   LINTERFAST=   F  fast interpolation
   KINTER  =     0    interpolate to denser k-point grid
   CSHIFT  =0.1000    complex shift for real part using Kramers Kronig
   OMEGAMAX=  -1.0    maximum frequency
   DEG_THRESHOLD= 0.2000000E-02 threshold for treating states as degnerate
   RTIME   =   -0.100 relaxation time in fs
  (WPLASMAI=    0.000 imaginary part of plasma frequency in eV, 0.658/RTIME)
   DFIELD  = 0.0000000 0.0000000 0.0000000 field for delta impulse in time
 
 Orbital magnetization related:
   ORBITALMAG=     F  switch on orbital magnetization
   LCHIMAG   =     F  perturbation theory with respect to B field
   DQ        =  0.001000  dq finite difference perturbation B field
   LLRAUG    =     F  two centre corrections for induced B field



--------------------------------------------------------------------------------------------------------


 Static calculation
 charge density and potential will be updated during run
 non-spin polarized calculation
 Variant of blocked Davidson
 Davidson routine will perform the subspace rotation
 perform sub-space diagonalisation
    after iterative eigenvector-optimisation
 modified Broyden-mixing scheme, WC =      100.0
 initial mixing is a Kerker type mixing with AMIX =  0.4000 and BMIX =      1.0000
 Hartree-type preconditioning will be used
 using additional bands           66
 reciprocal scheme for non local part
 use partial core corrections
 calculate Harris-corrections to forces 
   (improved forces if not selfconsistent)
 use gradient corrections 
 use of overlap-Matrix (Vanderbilt PP)
 Gauss-broadening in eV      SIGMA  =   0.01


--------------------------------------------------------------------------------------------------------


  energy-cutoff  :      500.00
  volume of cell :     2616.76
      direct lattice vectors                 reciprocal lattice vectors
     0.000000000 10.937333691 10.937333691    -0.045714981  0.045714981  0.045714981
    10.937333691  0.000000000 10.937333691     0.045714981 -0.045714981  0.045714981
    10.937333691 10.937333691  0.000000000     0.045714981  0.045714981 -0.045714981

  length of vectors
    15.467725642 15.467725642 15.467725642     0.079180669  0.079180669  0.079180669


 
 k-points in units of 2pi/SCALE and weight: KPOINTS File, automatically generated by
   0.00000000  0.00000000  0.00000000       0.125
  -0.02285749  0.02285749  0.02285749       0.125
   0.02285749 -0.02285749  0.02285749       0.125
   0.00000000  0.00000000  0.04571498       0.125
   0.02285749  0.02285749 -0.02285749       0.125
   0.00000000  0.04571498  0.00000000       0.125
   0.04571498  0.00000000  0.00000000       0.125
   0.02285749  0.02285749  0.02285749       0.125
 
 k-points in reciprocal lattice and weights: KPOINTS File, automatically generated by
   0.00000000  0.00000000  0.00000000       0.125
   0.50000000  0.00000000  0.00000000       0.125
   0.00000000  0.50000000  0.00000000       0.125
   0.50000000  0.50000000  0.00000000       0.125
   0.00000000  0.00000000  0.50000000       0.125
   0.50000000  0.00000000  0.50000000       0.125
   0.00000000  0.50000000  0.50000000       0.125
   0.50000000  0.50000000  0.50000000       0.125
 
 position of ions in fractional coordinates (direct lattice) 
   0.00740483  0.99652501  0.99797655
   0.25985730  0.99496237  0.98549628
   0.50015853  0.00501720  0.99384696
   0.74656310  0.99566027  0.00698001
   0.99643009  0.24250547  0.99192543
   0.24200884  0.25980744  0.00599615
   0.49411901  0.25679977  0.99279926
   0.75194383  0.25580832  0.99252865
   0.00335976  0.49425304  0.00209454
   0.24814676  0.50440959  0.00183102
   0.50102419  0.49612121  0.00255117
   0.74094192  0.49955926  0.99982248
   0.00275055  0.75210234  0.99360953
   0.24962872  0.75048318  0.99088095
   0.50049809  0.74806886  0.00304637
   0.74669854  0.73997714  0.01287091
   0.00836402  0.99661503  0.25247970
   0.24625912  0.00242743  0.25882444
   0.50599465  0.99257648  0.24583254
   0.74985022  0.00134171  0.24005347
   0.99830208  0.26296069  0.23399027
   0.24244711  0.25794943  0.24459058
   0.49503787  0.24064972  0.24872724
   0.74828570  0.24469750  0.24376880
   0.99147753  0.50530138  0.25848074
   0.25173892  0.49044073  0.24615519
   0.50040103  0.50805697  0.24640273
   0.75158132  0.50197628  0.24876739
   0.01377777  0.74074142  0.25443527
   0.23590662  0.75698335  0.24537457
   0.50251352  0.75339343  0.25351366
   0.74401965  0.74644067  0.25384932
   0.00735732  0.99551328  0.49935741
   0.25230938  0.00166519  0.49371876
   0.49601116  0.00970666  0.49991294
   0.76439974  0.98718653  0.49593888
   0.99836795  0.25157200  0.50227453
   0.23911164  0.25546690  0.49550472
   0.50146031  0.25359267  0.49838576
   0.74720825  0.24309975  0.50905097
   0.00037103  0.49521806  0.49917917
   0.25206691  0.49639304  0.48990647
   0.49992540  0.49595199  0.50124419
   0.75284954  0.49306546  0.50022611
   0.99224260  0.75344412  0.49449783
   0.24627254  0.75195449  0.50910495
   0.49247629  0.74238360  0.50531601
   0.74850528  0.74981478  0.50055028
   0.00433390  0.99604300  0.74317811
   0.24270199  0.00466564  0.75936481
   0.49726467  0.99825688  0.74991544
   0.75104979  0.99672343  0.74589844
   0.99479514  0.25305530  0.74442112
   0.25689458  0.24773436  0.73951636
   0.50021595  0.25661824  0.74617498
   0.74138360  0.25027487  0.77143407
   0.99580995  0.50030768  0.75115583
   0.24998023  0.50251797  0.75673049
   0.48660636  0.50146390  0.76394523
   0.74954160  0.48975511  0.75370669
   0.99857601  0.75750457  0.74323366
   0.25183637  0.74124852  0.76112316
   0.49504118  0.75362354  0.75670259
   0.75070519  0.75348868  0.74084037
   0.07117224  0.05477713  0.06397380
   0.31513728  0.05349795  0.06573017
   0.56927105  0.05593362  0.06508462
   0.80407890  0.07544366  0.05806160
   0.06241132  0.30890626  0.06112984
   0.31148285  0.31013484  0.06840978
   0.56424408  0.30465815  0.06131801
   0.82220351  0.31638405  0.05865366
   0.05669469  0.56004842  0.06715328
   0.31526536  0.56679961  0.05704696
   0.55941819  0.56577870  0.06700656
   0.81540507  0.56538428  0.07301001
   0.06161764  0.81273641  0.07052309
   0.30770737  0.81069542  0.06321822
   0.56507536  0.81034322  0.06927943
   0.82049862  0.81553563  0.04950270
   0.06749080  0.05880076  0.32008932
   0.31175223  0.07188399  0.30665658
   0.55844615  0.06226899  0.31067066
   0.81373465  0.05456843  0.31929342
   0.05764240  0.32266683  0.30938762
   0.31786316  0.30501833  0.31585017
   0.56260589  0.32132214  0.30536021
   0.81331578  0.32676070  0.31303545
   0.06530649  0.55779403  0.31567528
   0.32226909  0.56182203  0.30667482
   0.55547340  0.56518321  0.30807202
   0.81902622  0.55104799  0.30773346
   0.06060634  0.81171143  0.32079822
   0.32167764  0.80523578  0.31272944
   0.54940311  0.82133224  0.31481805
   0.81233883  0.81781145  0.31460733
   0.07206253  0.05961231  0.55518361
   0.30627847  0.06037830  0.56834076
   0.56517733  0.05544487  0.56996895
   0.81548206  0.06559970  0.55685246
   0.06364268  0.30862903  0.55600784
   0.31338489  0.32304306  0.55394937
   0.56590114  0.30742938  0.56244725
   0.81879101  0.31077605  0.56659423
   0.07005722  0.55529599  0.57340608
   0.31968808  0.56329495  0.55542653
   0.55589526  0.56121486  0.56747422
   0.81797865  0.56749473  0.56560398
   0.06439061  0.82094387  0.56188912
   0.30978707  0.82093216  0.54877212
   0.56109804  0.81986550  0.56129933
   0.81944287  0.81350369  0.55811881
   0.05682238  0.05741936  0.82193745
   0.32251369  0.05859743  0.80637088
   0.54572257  0.06751663  0.81509094
   0.80773021  0.05611281  0.80616718
   0.06921704  0.31820144  0.80266863
   0.30601920  0.30159804  0.81427574
   0.56506798  0.31099650  0.81065099
   0.81960148  0.30808571  0.81204279
   0.05835778  0.55152211  0.82749469
   0.31233955  0.56742522  0.81589053
   0.55848307  0.56970518  0.81734186
   0.81755965  0.56090107  0.80419739
   0.06421061  0.81127271  0.81377788
   0.30873313  0.82738947  0.81029954
   0.56494870  0.81435887  0.80587267
   0.81546641  0.81531493  0.82096950
 
 position of ions in cartesian coordinates  (Angst):
  21.81452910 10.99619164 10.98031572
  21.66093711 13.62084762 13.72438144
  10.92491059 16.34043653  5.52527552
  10.96621133  8.24175246 19.05527836
  13.50138271 21.74730789 13.55065172
   2.90718251  2.71251331  5.48853210
  13.66728152 16.26292128  8.21304925
  13.65347792 19.07987757 11.02212150
   5.42871919  0.05965555  5.44255731
   5.53692254  2.73409042  8.23095993
   5.45414612  5.50777168 10.90611191
  16.39923837 19.03932113 13.56777538
  19.09343331 10.89752267  8.25607792
  19.04588061 13.56786825 10.93855767
   8.21519784  5.50743375 13.65599334
   8.23415039  8.30766453 16.26026797
  13.66176586  2.85293483 10.99179127
   2.85739887  5.52426741  2.71996779
  13.54489275  8.22298495 16.39037255
   2.64021965 10.82690701  8.21603688
   5.43531848 13.47799256 13.79485180
   5.49644789  5.32689381  5.47300401
   5.35247914  8.13480723  8.04646066
   5.34251892 10.85043115 10.86058858
   8.35373984 13.67121062 16.37077034
   8.05639539  5.44563399  8.11746646
   8.25177747  8.16804193 11.02984171
   8.21113403 10.94114768 13.71057773
  10.88457962  2.93353560  8.25242821
  10.96312308  5.26393306 10.85956895
  11.01287881  8.26892150 13.73627338
  10.94050541 10.91402595 16.30166182
  16.34989957  5.54210807 10.96873037
   5.41817960  8.15955874  2.77780469
   5.57387959 10.89275418  5.53120448
  16.22143761 13.78474415 19.15768362
   8.24507097 16.41302746 13.67101025
   8.21362717  8.03474423  5.40937053
   8.22463901 10.93565017  8.25826636
   8.22652343 13.74012627 10.83132910
  10.87605430  5.46374720  5.42042330
  10.78748688  8.11521045  8.18615619
  10.90666730 10.95012586 10.89224329
  10.86396134 13.70530655 13.62698809
  13.64915753 16.26097620 19.09315825
  13.79262786  8.26181566 10.91794205
  13.64650701 10.91318740 13.50607471
  13.67565994 13.66133743 16.38762647
  19.02244165  8.17578829 10.94145604
   8.35645606 10.95993907  2.70554239
  19.12034407 13.64082503 16.35701823
  19.05963687 16.37262231 19.11597887
  10.90973246 19.02238857 13.64815666
  10.79789057 10.89807899  5.51929516
  10.96788403 13.63219352  8.27774811
  11.17477160 16.54619162 10.84609955
  13.68767404 19.10714762 16.36353776
  13.77282056 11.01073111  8.23032389
  13.84020189 13.67770006 10.80685410
  13.60015666 16.44152821 13.55460168
  16.41407479 19.05075358 19.20683935
  16.43194038 11.07907642 10.86170083
  16.51894087 13.69073928 13.65706277
  16.34397551 16.31353159 16.45187035
   1.29881847  1.47813730  1.37755022
   1.30403775  4.16567435  4.03188656
   1.32361691  6.93815967  6.83807212
   1.46019155  9.42951838  9.61963170
   4.04720823  1.35121083  4.06122424
   4.14026881  4.15501249  6.79884015
   4.00280341  6.84198133  9.50347368
   4.10191255  9.63422880 12.45311215
   6.85991421  1.35456658  6.74552520
   6.82321806  4.07210405  9.64743883
   6.92098361  6.85141653 12.30665383
   6.98233128  9.71689210 15.10215378
   9.66050391  1.44526726  9.56310210
   9.55828510  4.05693687 12.23234451
   9.62072643  6.93814998 15.04341199
   9.46121297  9.51549476 17.89385252
   4.14404719  4.23909310  1.38129288
   4.14022459  6.76374358  4.19595744
   4.07896541  9.50582056  6.78896870
   4.08905183 12.39230609  9.49692049
   6.91299042  4.01432981  4.15956900
   6.79064594  6.93113420  6.81266275
   6.85423397  9.49323493  9.66781584
   6.99766404 12.31927932 12.46939692
   9.55342533  4.16692473  6.81505837
   9.49903991  6.87896943  9.66959954
   9.55108384  9.44488444 12.25699531
   9.39277925 12.32374662 14.98495882
  12.38663595  4.17154898  9.54083046
  12.22755863  6.93872188 12.32542803
  12.42645480  9.45227514 14.99218988
  12.38564206 12.32578624 17.82949756
   6.72422806  6.86040033  1.44017163
   6.87651016  9.56600236  4.01024751
   6.84035964 12.41547363  6.78795204
   6.80796703 15.00968053  9.63668522
   9.45682199  6.77732451  4.07165997
   9.59195887  9.48632420  6.96082483
   9.51413095 12.34112282  9.55190730
   9.59609146 15.15242061 12.35445180
  12.34499116  7.03777275  6.83969674
  12.23583007  9.57142044  9.65747997
  12.34484913 12.28666682 12.21820614
  12.39307873 15.13270491 15.15338466
  15.12450591  6.84983040  9.68319864
  14.98091274  9.39034840 12.36705351
  15.10626066 12.27603456 15.10405906
  15.00189295 15.06685180 17.86008140
   9.61781881  9.61128948  1.24949998
   9.46044704 12.34698716  4.16833951
   9.65337351 14.88367144  6.70720173
   9.43104397 17.65173436  9.44813935
  12.25932998  9.53610447  4.23732523
  12.20468390 12.25303958  6.64571250
  12.26783282 15.04669743  9.58180952
  12.25121914 17.84583785 12.33389112
  15.08276685  9.68886407  6.67045988
  15.12978588 12.33982884  9.62228083
  15.17059626 15.04785640 12.33937135
  14.93053732 17.73769793 15.07668490
  17.77372060  9.60285306  9.57545324
  17.91195121 12.23923369 12.42615197
  17.72101302 14.99313082 15.08594719
  17.89658874 17.89824560 17.83639970
 


--------------------------------------------------------------------------------------------------------


 k-point  1 :   0.0000 0.0000 0.0000  plane waves:   66299
 k-point  2 :   0.5000 0.0000 0.0000  plane waves:   66394
 k-point  3 :   0.0000 0.5000 0.0000  plane waves:   66394
 k-point  4 :   0.5000 0.5000 0.0000  plane waves:   66552
 k-point  5 :   0.0000 0.0000 0.5000  plane waves:   66394
 k-point  6 :   0.5000 0.0000 0.5000  plane waves:   66552
 k-point  7 :   0.0000 0.5000 0.5000  plane waves:   66552
 k-point  8 :   0.5000 0.5000 0.5000  plane waves:   66394

 maximum and minimum number of plane-waves per node :      4207     4110

 maximum number of plane-waves:     66552
 maximum index in each direction: 
   IXMAX=   28   IYMAX=   28   IZMAX=   28
   IXMIN=  -28   IYMIN=  -28   IZMIN=  -28


 parallel 3D FFT for wavefunctions:
    minimum data exchange during FFTs selected (reduces bandwidth)
 parallel 3D FFT for charge:
    minimum data exchange during FFTs selected (reduces bandwidth)


 total amount of memory used by VASP MPI-rank0   221701. kBytes
=======================================================================

   base      :      30000. kBytes
   nonl-proj :      10690. kBytes
   fftplans  :      66746. kBytes
   grid      :      26864. kBytes
   one-center:         24. kBytes
   wavefun   :      87377. kBytes
 
     INWAV:  cpu time    0.0000: real time    0.0003
 Broyden mixing: mesh for mixing (old mesh)
   NGX = 57   NGY = 57   NGZ = 57
  (NGX  =240   NGY  =240   NGZ  =240)
  gives a total of 185193 points

 initial charge density was supplied:
 charge density of overlapping atoms calculated
 number of electron     512.0000000 magnetization 
 keeping initial charge density in first step


--------------------------------------------------------------------------------------------------------


 Maximum index for augmentation-charges         5611 (set IRDMAX)


--------------------------------------------------------------------------------------------------------


 First call to EWALD:  gamma=   0.129
 Maximum number of real-space cells 3x 3x 3
 Maximum number of reciprocal cells 3x 3x 3

    FEWALD:  cpu time    0.0074: real time    0.0074


--------------------------------------- Iteration      1(   1)  ---------------------------------------


    POTLOK:  cpu time    0.4874: real time    0.4970
    SETDIJ:  cpu time    0.5160: real time    0.5162
     EDDAV:  cpu time   70.5896: real time   70.6081
       DOS:  cpu time    0.0027: real time    0.0027
    --------------------------------------------
      LOOP:  cpu time   71.5958: real time   71.6240

 eigenvalue-minimisations  :  5152
 total energy-change (2. order) : 0.1383328E+04  (-0.1908231E+05)
 number of electron     512.0000000 magnetization 
 augmentation part      512.0000000 magnetization 

 Free energy of the ion-electron system (eV)
  ---------------------------------------------------
  alpha Z        PSCENC =       210.77028614
  Ewald energy   TEWEN  =    -14468.82155800
  -Hartree energ DENC   =      -758.43161555
  -exchange      EXHF   =         0.00000000
  -V(xc)+E(xc)   XCENC  =     -1195.28116783
  PAW double counting   =      4221.13331941    -1969.18571412
  entropy T*S    EENTRO =        -0.00249007
  eigenvalues    EBANDS =      2150.66558772
  atomic energy  EATOM  =     13192.48085998
  Solvation  Ediel_sol  =         0.00000000
  ---------------------------------------------------
  free energy    TOTEN  =      1383.32750768 eV

  energy without entropy =     1383.32999775  energy(sigma->0) =     1383.32875272


--------------------------------------------------------------------------------------------------------




--------------------------------------- Iteration      1(   2)  ---------------------------------------


     EDDAV:  cpu time   80.2306: real time   80.2572
       DOS:  cpu time    0.0020: real time    0.0020
    --------------------------------------------
      LOOP:  cpu time   80.2327: real time   80.2592

 eigenvalue-minimisations  :  6112
 total energy-change (2. order) :-0.1920512E+04  (-0.1826153E+04)
 number of electron     512.0000000 magnetization 
 augmentation part      512.0000000 magnetization 

 Free energy of the ion-electron system (eV)
  ---------------------------------------------------
  alpha Z        PSCENC =       210.77028614
  Ewald energy   TEWEN  =    -14468.82155800
  -Hartree energ DENC   =      -758.43161555
  -exchange      EXHF   =         0.00000000
  -V(xc)+E(xc)   XCENC  =     -1195.28116783
  PAW double counting   =      4221.13331941    -1969.18571412
  entropy T*S    EENTRO =        -0.00000003
  eigenvalues    EBANDS =       230.15061842
  atomic energy  EATOM  =     13192.48085998
  Solvation  Ediel_sol  =         0.00000000
  ---------------------------------------------------
  free energy    TOTEN  =      -537.18497158 eV

  energy without entropy =     -537.18497155  energy(sigma->0) =     -537.18497156


--------------------------------------------------------------------------------------------------------




--------------------------------------- Iteration      1(   3)  ---------------------------------------


     EDDAV:  cpu time   81.8878: real time   81.9100
       DOS:  cpu time    0.0012: real time    0.0012
    --------------------------------------------
      LOOP:  cpu time   81.8890: real time   81.9112

 eigenvalue-minimisations  :  6272
 total energy-change (2. order) :-0.1496509E+03  (-0.1464748E+03)
 number of electron     512.0000000 magnetization 
 augmentation part      512.0000000 magnetization 

 Free energy of the ion-electron system (eV)
  ---------------------------------------------------
  alpha Z        PSCENC =       210.77028614
  Ewald energy   TEWEN  =    -14468.82155800
  -Hartree energ DENC   =      -758.43161555
  -exchange      EXHF   =         0.00000000
  -V(xc)+E(xc)   XCENC  =     -1195.28116783
  PAW double counting   =      4221.13331941    -1969.18571412
  entropy T*S    EENTRO =        -0.00000000
  eigenvalues    EBANDS =        80.49969263
  atomic energy  EATOM  =     13192.48085998
  Solvation  Ediel_sol  =         0.00000000
  ---------------------------------------------------
  free energy    TOTEN  =      -686.83589734 eV

  energy without entropy =     -686.83589734  energy(sigma->0) =     -686.83589734


--------------------------------------------------------------------------------------------------------




--------------------------------------- Iteration      1(   4)  ---------------------------------------


     EDDAV:  cpu time   80.9334: real time   80.9627
       DOS:  cpu time    0.0018: real time    0.0018
    --------------------------------------------
      LOOP:  cpu time   80.9352: real time   80.9646

 eigenvalue-minimisations  :  6176
 total energy-change (2. order) :-0.4271817E+01  (-0.4236163E+01)
 number of electron     512.0000000 magnetization 
 augmentation part      512.0000000 magnetization 

 Free energy of the ion-electron system (eV)
  ---------------------------------------------------
  alpha Z        PSCENC =       210.77028614
  Ewald energy   TEWEN  =    -14468.82155800
  -Hartree energ DENC   =      -758.43161555
  -exchange      EXHF   =         0.00000000
  -V(xc)+E(xc)   XCENC  =     -1195.28116783
  PAW double counting   =      4221.13331941    -1969.18571412
  entropy T*S    EENTRO =        -0.00000000
  eigenvalues    EBANDS =        76.22787538
  atomic energy  EATOM  =     13192.48085998
  Solvation  Ediel_sol  =         0.00000000
  ---------------------------------------------------
  free energy    TOTEN  =      -691.10771459 eV

  energy without entropy =     -691.10771459  energy(sigma->0) =     -691.10771459


--------------------------------------------------------------------------------------------------------




--------------------------------------- Iteration      1(   5)  ---------------------------------------


     EDDAV:  cpu time   82.4002: real time   82.4417
       DOS:  cpu time    0.0017: real time    0.0017
    CHARGE:  cpu time    3.1156: real time    3.1164
    MIXING:  cpu time    0.0264: real time    0.0265
    --------------------------------------------
      LOOP:  cpu time   85.5439: real time   85.5862

 eigenvalue-minimisations  :  6336
 total energy-change (2. order) :-0.1515783E+00  (-0.1511524E+00)
 number of electron     511.9999998 magnetization 
 augmentation part      -30.1728348 magnetization 

 Broyden mixing:
  rms(total) = 0.23969E+01    rms(broyden)= 0.23969E+01
  rms(prec ) = 0.29081E+01
  weight for this iteration     100.00

 Free energy of the ion-electron system (eV)
  ---------------------------------------------------
  alpha Z        PSCENC =       210.77028614
  Ewald energy   TEWEN  =    -14468.82155800
  -Hartree energ DENC   =      -758.43161555
  -exchange      EXHF   =         0.00000000
  -V(xc)+E(xc)   XCENC  =     -1195.28116783
  PAW double counting   =      4221.13331941    -1969.18571412
  entropy T*S    EENTRO =        -0.00000000
  eigenvalues    EBANDS =        76.07629711
  atomic energy  EATOM  =     13192.48085998
  Solvation  Ediel_sol  =         0.00000000
  ---------------------------------------------------
  free energy    TOTEN  =      -691.25929286 eV

  energy without entropy =     -691.25929286  energy(sigma->0) =     -691.25929286


--------------------------------------------------------------------------------------------------------




--------------------------------------- Iteration      1(   6)  ---------------------------------------


    POTLOK:  cpu time    0.4907: real time    0.4915
    SETDIJ:  cpu time    0.5105: real time    0.5113
     EDDAV:  cpu time   78.2150: real time   78.2362
       DOS:  cpu time    0.0010: real time    0.0010
    CHARGE:  cpu time    3.1081: real time    3.1090
    MIXING:  cpu time    0.0265: real time    0.0265
    --------------------------------------------
      LOOP:  cpu time   82.3519: real time   82.3754

 eigenvalue-minimisations  :  5928
 total energy-change (2. order) : 0.8484988E+01  (-0.6018538E+00)
 number of electron     511.9999998 magnetization 
 augmentation part      -29.8380191 magnetization 

 Broyden mixing:
  rms(total) = 0.14250E+01    rms(broyden)= 0.14250E+01
  rms(prec ) = 0.17177E+01
  weight for this iteration     100.00

 eigenvalues of (default mixing * dielectric matrix)
  average eigenvalue GAMMA=   2.4310
  2.4310

 Free energy of the ion-electron system (eV)
  ---------------------------------------------------
  alpha Z        PSCENC =       210.77028614
  Ewald energy   TEWEN  =    -14468.82155800
  -Hartree energ DENC   =      -853.87864581
  -exchange      EXHF   =         0.00000000
  -V(xc)+E(xc)   XCENC  =     -1180.63130422
  PAW double counting   =      4466.03554383    -2220.86616175
  entropy T*S    EENTRO =        -0.00000000
  eigenvalues    EBANDS =       172.13667516
  atomic energy  EATOM  =     13192.48085998
  Solvation  Ediel_sol  =         0.00000000
  ---------------------------------------------------
  free energy    TOTEN  =      -682.77430467 eV

  energy without entropy =     -682.77430467  energy(sigma->0) =     -682.77430467


--------------------------------------------------------------------------------------------------------




--------------------------------------- Iteration      1(   7)  ---------------------------------------


    POTLOK:  cpu time    0.4903: real time    0.4933
    SETDIJ:  cpu time    0.5082: real time    0.5082
     EDDAV:  cpu time   78.1382: real time   78.1740
       DOS:  cpu time    0.0010: real time    0.0010
    CHARGE:  cpu time    3.1309: real time    3.1341
    MIXING:  cpu time    0.0215: real time    0.0215
    --------------------------------------------
      LOOP:  cpu time   82.2902: real time   82.3321

 eigenvalue-minimisations  :  5920
 total energy-change (2. order) : 0.3500865E+01  (-0.1147639E+01)
 number of electron     511.9999998 magnetization 
 augmentation part      -29.3804911 magnetization 

 Broyden mixing:
  rms(total) = 0.15870E+00    rms(broyden)= 0.15870E+00
  rms(prec ) = 0.21030E+00
  weight for this iteration     100.00

 eigenvalues of (default mixing * dielectric matrix)
  average eigenvalue GAMMA=   2.0427
  1.9490  2.1364

 Free energy of the ion-electron system (eV)
  ---------------------------------------------------
  alpha Z        PSCENC =       210.77028614
  Ewald energy   TEWEN  =    -14468.82155800
  -Hartree energ DENC   =     -1003.86794879
  -exchange      EXHF   =         0.00000000
  -V(xc)+E(xc)   XCENC  =     -1156.79534193
  PAW double counting   =      4785.41841028    -2548.76980599
  entropy T*S    EENTRO =        -0.00000000
  eigenvalues    EBANDS =       310.31165899
  atomic energy  EATOM  =     13192.48085998
  Solvation  Ediel_sol  =         0.00000000
  ---------------------------------------------------
  free energy    TOTEN  =      -679.27343932 eV

  energy without entropy =     -679.27343932  energy(sigma->0) =     -679.27343932


--------------------------------------------------------------------------------------------------------




--------------------------------------- Iteration      1(   8)  ---------------------------------------


    POTLOK:  cpu time    0.4897: real time    0.4915
    SETDIJ:  cpu time    0.5113: real time    0.5119
     EDDAV:  cpu time   76.6830: real time   76.7080
       DOS:  cpu time    0.0013: real time    0.0013
    CHARGE:  cpu time    3.1127: real time    3.1133
    MIXING:  cpu time    0.0291: real time    0.0291
    --------------------------------------------
      LOOP:  cpu time   80.8271: real time   80.8551

 eigenvalue-minimisations  :  5776
 total energy-change (2. order) :-0.4861797E-01  (-0.1108895E+00)
 number of electron     511.9999998 magnetization 
 augmentation part      -29.4450161 magnetization 

 Broyden mixing:
  rms(total) = 0.67239E-01    rms(broyden)= 0.67239E-01
  rms(prec ) = 0.83050E-01
  weight for this iteration     100.00

 eigenvalues of (default mixing * dielectric matrix)
  average eigenvalue GAMMA=   1.9897
  2.6715  1.6488  1.6488

 Free energy of the ion-electron system (eV)
  ---------------------------------------------------
  alpha Z        PSCENC =       210.77028614
  Ewald energy   TEWEN  =    -14468.82155800
  -Hartree energ DENC   =      -997.88497387
  -exchange      EXHF   =         0.00000000
  -V(xc)+E(xc)   XCENC  =     -1156.83329692
  PAW double counting   =      4741.04120817    -2503.00730536
  entropy T*S    EENTRO =        -0.00000000
  eigenvalues    EBANDS =       302.93272256
  atomic energy  EATOM  =     13192.48085998
  Solvation  Ediel_sol  =         0.00000000
  ---------------------------------------------------
  free energy    TOTEN  =      -679.32205730 eV

  energy without entropy =     -679.32205730  energy(sigma->0) =     -679.32205730


--------------------------------------------------------------------------------------------------------




--------------------------------------- Iteration      1(   9)  ---------------------------------------


    POTLOK:  cpu time    0.4900: real time    0.4907
    SETDIJ:  cpu time    0.5080: real time    0.5081
     EDDAV:  cpu time   79.5567: real time   79.5806
       DOS:  cpu time    0.0011: real time    0.0011
    CHARGE:  cpu time    3.1213: real time    3.1220
    MIXING:  cpu time    0.0275: real time    0.0275
    --------------------------------------------
      LOOP:  cpu time   83.7047: real time   83.7300

 eigenvalue-minimisations  :  6064
 total energy-change (2. order) :-0.2504151E-01  (-0.1238136E-01)
 number of electron     511.9999998 magnetization 
 augmentation part      -29.4527678 magnetization 

 Broyden mixing:
  rms(total) = 0.29498E-01    rms(broyden)= 0.29498E-01
  rms(prec ) = 0.34365E-01
  weight for this iteration     100.00

 eigenvalues of (default mixing * dielectric matrix)
  average eigenvalue GAMMA=   1.7607
  2.5865  1.7873  1.7873  0.8817

 Free energy of the ion-electron system (eV)
  ---------------------------------------------------
  alpha Z        PSCENC =       210.77028614
  Ewald energy   TEWEN  =    -14468.82155800
  -Hartree energ DENC   =     -1004.45972448
  -exchange      EXHF   =         0.00000000
  -V(xc)+E(xc)   XCENC  =     -1155.64639982
  PAW double counting   =      4742.42267165    -2504.41681673
  entropy T*S    EENTRO =        -0.00000000
  eigenvalues    EBANDS =       308.32358245
  atomic energy  EATOM  =     13192.48085998
  Solvation  Ediel_sol  =         0.00000000
  ---------------------------------------------------
  free energy    TOTEN  =      -679.34709880 eV

  energy without entropy =     -679.34709880  energy(sigma->0) =     -679.34709880


--------------------------------------------------------------------------------------------------------




--------------------------------------- Iteration      1(  10)  ---------------------------------------


    POTLOK:  cpu time    0.4899: real time    0.4910
    SETDIJ:  cpu time    0.5123: real time    0.5123
     EDDAV:  cpu time   78.9961: real time   79.0193
       DOS:  cpu time    0.0010: real time    0.0010
    CHARGE:  cpu time    3.0896: real time    3.0897
    MIXING:  cpu time    0.0442: real time    0.0442
    --------------------------------------------
      LOOP:  cpu time   83.1331: real time   83.1577

 eigenvalue-minimisations  :  6008
 total energy-change (2. order) :-0.2588136E-02  (-0.8823000E-03)
 number of electron     511.9999998 magnetization 
 augmentation part      -29.4627709 magnetization 

 Broyden mixing:
  rms(total) = 0.12381E-01    rms(broyden)= 0.12381E-01
  rms(prec ) = 0.14863E-01
  weight for this iteration     100.00

 eigenvalues of (default mixing * dielectric matrix)
  average eigenvalue GAMMA=   1.8508
  2.6738  2.6738  1.4942  1.4942  0.9180

 Free energy of the ion-electron system (eV)
  ---------------------------------------------------
  alpha Z        PSCENC =       210.77028614
  Ewald energy   TEWEN  =    -14468.82155800
  -Hartree energ DENC   =     -1003.28561968
  -exchange      EXHF   =         0.00000000
  -V(xc)+E(xc)   XCENC  =     -1155.82048654
  PAW double counting   =      4735.13672026    -2496.94789160
  entropy T*S    EENTRO =        -0.00000000
  eigenvalues    EBANDS =       307.13800249
  atomic energy  EATOM  =     13192.48085998
  Solvation  Ediel_sol  =         0.00000000
  ---------------------------------------------------
  free energy    TOTEN  =      -679.34968694 eV

  energy without entropy =     -679.34968694  energy(sigma->0) =     -679.34968694


--------------------------------------------------------------------------------------------------------




--------------------------------------- Iteration      1(  11)  ---------------------------------------


    POTLOK:  cpu time    0.4880: real time    0.4914
    SETDIJ:  cpu time    0.5086: real time    0.5102
     EDDAV:  cpu time   76.6388: real time   76.6552
       DOS:  cpu time    0.0010: real time    0.0010
    CHARGE:  cpu time    3.1313: real time    3.1326
    MIXING:  cpu time    0.0279: real time    0.0279
    --------------------------------------------
      LOOP:  cpu time   80.7956: real time   80.8183

 eigenvalue-minimisations  :  5776
 total energy-change (2. order) :-0.1785055E-02  (-0.2850129E-03)
 number of electron     511.9999998 magnetization 
 augmentation part      -29.4656978 magnetization 

 Broyden mixing:
  rms(total) = 0.38078E-02    rms(broyden)= 0.38078E-02
  rms(prec ) = 0.53888E-02
  weight for this iteration     100.00

 eigenvalues of (default mixing * dielectric matrix)
  average eigenvalue GAMMA=   1.7591
  2.8384  2.1942  1.7174  1.7174  1.2033  0.8840

 Free energy of the ion-electron system (eV)
  ---------------------------------------------------
  alpha Z        PSCENC =       210.77028614
  Ewald energy   TEWEN  =    -14468.82155800
  -Hartree energ DENC   =     -1003.25822546
  -exchange      EXHF   =         0.00000000
  -V(xc)+E(xc)   XCENC  =     -1155.82043710
  PAW double counting   =      4730.39120222    -2492.09315220
  entropy T*S    EENTRO =        -0.00000000
  eigenvalues    EBANDS =       306.99955242
  atomic energy  EATOM  =     13192.48085998
  Solvation  Ediel_sol  =         0.00000000
  ---------------------------------------------------
  free energy    TOTEN  =      -679.35147199 eV

  energy without entropy =     -679.35147199  energy(sigma->0) =     -679.35147199


--------------------------------------------------------------------------------------------------------




--------------------------------------- Iteration      1(  12)  ---------------------------------------


    POTLOK:  cpu time    0.4890: real time    0.4909
    SETDIJ:  cpu time    0.5140: real time    0.5142
     EDDAV:  cpu time   80.4735: real time   80.4988
       DOS:  cpu time    0.0012: real time    0.0012
    CHARGE:  cpu time    3.1180: real time    3.1217
    MIXING:  cpu time    0.0298: real time    0.0298
    --------------------------------------------
      LOOP:  cpu time   84.6254: real time   84.6566

 eigenvalue-minimisations  :  6152
 total energy-change (2. order) :-0.6592551E-04  (-0.4538794E-04)
 number of electron     511.9999998 magnetization 
 augmentation part      -29.4639347 magnetization 

 Broyden mixing:
  rms(total) = 0.18656E-02    rms(broyden)= 0.18656E-02
  rms(prec ) = 0.22563E-02
  weight for this iteration     100.00

 eigenvalues of (default mixing * dielectric matrix)
  average eigenvalue GAMMA=   1.8265
  3.1530  2.6981  1.7369  1.7369  0.8961  1.2823  1.2823

 Free energy of the ion-electron system (eV)
  ---------------------------------------------------
  alpha Z        PSCENC =       210.77028614
  Ewald energy   TEWEN  =    -14468.82155800
  -Hartree energ DENC   =     -1003.83585344
  -exchange      EXHF   =         0.00000000
  -V(xc)+E(xc)   XCENC  =     -1155.75530367
  PAW double counting   =      4731.58753977    -2493.33004104
  entropy T*S    EENTRO =        -0.00000000
  eigenvalues    EBANDS =       307.55253233
  atomic energy  EATOM  =     13192.48085998
  Solvation  Ediel_sol  =         0.00000000
  ---------------------------------------------------
  free energy    TOTEN  =      -679.35153792 eV

  energy without entropy =     -679.35153792  energy(sigma->0) =     -679.35153792


--------------------------------------------------------------------------------------------------------




--------------------------------------- Iteration      1(  13)  ---------------------------------------


    POTLOK:  cpu time    0.4904: real time    0.4915
    SETDIJ:  cpu time    0.5135: real time    0.5136
     EDDAV:  cpu time   76.6515: real time   76.6813
       DOS:  cpu time    0.0018: real time    0.0018
    CHARGE:  cpu time    3.1562: real time    3.1563
    MIXING:  cpu time    0.0232: real time    0.0232
    --------------------------------------------
      LOOP:  cpu time   80.8366: real time   80.8678

 eigenvalue-minimisations  :  5784
 total energy-change (2. order) :-0.3620959E-04  (-0.1227778E-04)
 number of electron     511.9999998 magnetization 
 augmentation part      -29.4638773 magnetization 

 Broyden mixing:
  rms(total) = 0.73218E-03    rms(broyden)= 0.73217E-03
  rms(prec ) = 0.94875E-03
  weight for this iteration     100.00

 eigenvalues of (default mixing * dielectric matrix)
  average eigenvalue GAMMA=   1.7628
  3.1443  2.5582  1.8731  1.8731  1.3820  1.3820  0.9448  0.9448

 Free energy of the ion-electron system (eV)
  ---------------------------------------------------
  alpha Z        PSCENC =       210.77028614
  Ewald energy   TEWEN  =    -14468.82155800
  -Hartree energ DENC   =     -1003.83931077
  -exchange      EXHF   =         0.00000000
  -V(xc)+E(xc)   XCENC  =     -1155.76628253
  PAW double counting   =      4731.00466907    -2492.73628381
  entropy T*S    EENTRO =        -0.00000000
  eigenvalues    EBANDS =       307.55604579
  atomic energy  EATOM  =     13192.48085998
  Solvation  Ediel_sol  =         0.00000000
  ---------------------------------------------------
  free energy    TOTEN  =      -679.35157413 eV

  energy without entropy =     -679.35157413  energy(sigma->0) =     -679.35157413


--------------------------------------------------------------------------------------------------------




--------------------------------------- Iteration      1(  14)  ---------------------------------------


    POTLOK:  cpu time    0.4875: real time    0.4909
    SETDIJ:  cpu time    0.5108: real time    0.5108
     EDDAV:  cpu time   80.0916: real time   80.1155
       DOS:  cpu time    0.0011: real time    0.0011
    CHARGE:  cpu time    3.1316: real time    3.1328
    MIXING:  cpu time    0.0261: real time    0.0261
    --------------------------------------------
      LOOP:  cpu time   84.2487: real time   84.2772

 eigenvalue-minimisations  :  6136
 total energy-change (2. order) :-0.6400634E-05  (-0.1130035E-05)
 number of electron     511.9999998 magnetization 
 augmentation part      -29.4636477 magnetization 

 Broyden mixing:
  rms(total) = 0.19935E-03    rms(broyden)= 0.19929E-03
  rms(prec ) = 0.27394E-03
  weight for this iteration     100.00

 eigenvalues of (default mixing * dielectric matrix)
  average eigenvalue GAMMA=   1.7644
  3.1990  2.5800  2.2310  1.6619  1.6619  1.3084  1.3084  0.9919  0.9369

 Free energy of the ion-electron system (eV)
  ---------------------------------------------------
  alpha Z        PSCENC =       210.77028614
  Ewald energy   TEWEN  =    -14468.82155800
  -Hartree energ DENC   =     -1003.91166796
  -exchange      EXHF   =         0.00000000
  -V(xc)+E(xc)   XCENC  =     -1155.75661173
  PAW double counting   =      4731.22581647    -2492.96275004
  entropy T*S    EENTRO =        -0.00000000
  eigenvalues    EBANDS =       307.62404462
  atomic energy  EATOM  =     13192.48085998
  Solvation  Ediel_sol  =         0.00000000
  ---------------------------------------------------
  free energy    TOTEN  =      -679.35158053 eV

  energy without entropy =     -679.35158053  energy(sigma->0) =     -679.35158053


--------------------------------------------------------------------------------------------------------




--------------------------------------- Iteration      1(  15)  ---------------------------------------


    POTLOK:  cpu time    0.4887: real time    0.4906
    SETDIJ:  cpu time    0.5060: real time    0.5060
     EDDAV:  cpu time   80.5819: real time   80.6012
       DOS:  cpu time    0.0011: real time    0.0011
    CHARGE:  cpu time    3.1247: real time    3.1248
    MIXING:  cpu time    0.0298: real time    0.0298
    --------------------------------------------
      LOOP:  cpu time   84.7322: real time   84.7536

 eigenvalue-minimisations  :  6184
 total energy-change (2. order) :-0.3480412E-05  (-0.1971490E-06)
 number of electron     511.9999998 magnetization 
 augmentation part      -29.4635253 magnetization 

 Broyden mixing:
  rms(total) = 0.72992E-04    rms(broyden)= 0.72840E-04
  rms(prec ) = 0.97016E-04
  weight for this iteration     100.00

 eigenvalues of (default mixing * dielectric matrix)
  average eigenvalue GAMMA=   1.7127
  3.2685  2.6314  2.0123  1.6977  1.6977  1.4364  1.4364  1.1348  0.9061  0.9061

 Free energy of the ion-electron system (eV)
  ---------------------------------------------------
  alpha Z        PSCENC =       210.77028614
  Ewald energy   TEWEN  =    -14468.82155800
  -Hartree energ DENC   =     -1003.93576052
  -exchange      EXHF   =         0.00000000
  -V(xc)+E(xc)   XCENC  =     -1155.75521280
  PAW double counting   =      4731.29394850    -2493.03293376
  entropy T*S    EENTRO =        -0.00000000
  eigenvalues    EBANDS =       307.64878644
  atomic energy  EATOM  =     13192.48085998
  Solvation  Ediel_sol  =         0.00000000
  ---------------------------------------------------
  free energy    TOTEN  =      -679.35158401 eV

  energy without entropy =     -679.35158401  energy(sigma->0) =     -679.35158401


--------------------------------------------------------------------------------------------------------




--------------------------------------- Iteration      1(  16)  ---------------------------------------


    POTLOK:  cpu time    0.4897: real time    0.4907
    SETDIJ:  cpu time    0.5112: real time    0.5113
     EDDAV:  cpu time   78.7817: real time   78.8073
       DOS:  cpu time    0.0017: real time    0.0017
    CHARGE:  cpu time    3.1712: real time    3.1721
    MIXING:  cpu time    0.0439: real time    0.0439
    --------------------------------------------
      LOOP:  cpu time   82.9993: real time   83.0269

 eigenvalue-minimisations  :  5992
 total energy-change (2. order) : 0.5301172E-06  (-0.2851316E-07)
 number of electron     511.9999998 magnetization 
 augmentation part      -29.4635271 magnetization 

 Broyden mixing:
  rms(total) = 0.37143E-04    rms(broyden)= 0.36844E-04
  rms(prec ) = 0.47568E-04
  weight for this iteration     100.00

 eigenvalues of (default mixing * dielectric matrix)
  average eigenvalue GAMMA=   1.7044
  3.2741  2.6107  2.0572  2.0572  1.4666  1.4666  1.4346  1.4346  0.9134  1.0169
  1.0169

 Free energy of the ion-electron system (eV)
  ---------------------------------------------------
  alpha Z        PSCENC =       210.77028614
  Ewald energy   TEWEN  =    -14468.82155800
  -Hartree energ DENC   =     -1003.93437333
  -exchange      EXHF   =         0.00000000
  -V(xc)+E(xc)   XCENC  =     -1155.75537780
  PAW double counting   =      4731.28437664    -2493.02290830
  entropy T*S    EENTRO =        -0.00000000
  eigenvalues    EBANDS =       307.64711119
  atomic energy  EATOM  =     13192.48085998
  Solvation  Ediel_sol  =         0.00000000
  ---------------------------------------------------
  free energy    TOTEN  =      -679.35158348 eV

  energy without entropy =     -679.35158348  energy(sigma->0) =     -679.35158348


--------------------------------------------------------------------------------------------------------




--------------------------------------- Iteration      1(  17)  ---------------------------------------


    POTLOK:  cpu time    0.4905: real time    0.4919
    SETDIJ:  cpu time    0.5088: real time    0.5093
     EDDAV:  cpu time   69.9501: real time   69.9675
       DOS:  cpu time    0.0010: real time    0.0010
    CHARGE:  cpu time    3.1816: real time    3.1818
    MIXING:  cpu time    0.0287: real time    0.0287
    --------------------------------------------
      LOOP:  cpu time   74.1608: real time   74.1803

 eigenvalue-minimisations  :  5112
 total energy-change (2. order) :-0.4735921E-07  (-0.4239746E-08)
 number of electron     511.9999998 magnetization 
 augmentation part      -29.4635261 magnetization 

 Broyden mixing:
  rms(total) = 0.15353E-04    rms(broyden)= 0.14614E-04
  rms(prec ) = 0.19096E-04
  weight for this iteration     100.00

 eigenvalues of (default mixing * dielectric matrix)
  average eigenvalue GAMMA=   1.7052
  3.2837  2.6198  2.3566  1.8867  1.8867  1.4089  1.4089  1.2992  1.2992  0.9229
  1.0448  1.0448

 Free energy of the ion-electron system (eV)
  ---------------------------------------------------
  alpha Z        PSCENC =       210.77028614
  Ewald energy   TEWEN  =    -14468.82155800
  -Hartree energ DENC   =     -1003.93477548
  -exchange      EXHF   =         0.00000000
  -V(xc)+E(xc)   XCENC  =     -1155.75522412
  PAW double counting   =      4731.29063070    -2493.02914361
  entropy T*S    EENTRO =        -0.00000000
  eigenvalues    EBANDS =       307.64734085
  atomic energy  EATOM  =     13192.48085998
  Solvation  Ediel_sol  =         0.00000000
  ---------------------------------------------------
  free energy    TOTEN  =      -679.35158353 eV

  energy without entropy =     -679.35158353  energy(sigma->0) =     -679.35158353


--------------------------------------------------------------------------------------------------------




--------------------------------------- Iteration      1(  18)  ---------------------------------------


    POTLOK:  cpu time    0.4898: real time    0.4908
    SETDIJ:  cpu time    0.5124: real time    0.5124
     EDDAV:  cpu time   52.5878: real time   52.6055
       DOS:  cpu time    0.0011: real time    0.0011
    CHARGE:  cpu time    3.1768: real time    3.1774
    MIXING:  cpu time    0.0282: real time    0.0282
    --------------------------------------------
      LOOP:  cpu time   56.7961: real time   56.8153

 eigenvalue-minimisations  :  3376
 total energy-change (2. order) :-0.1861736E-06  (-0.1059329E-08)
 number of electron     511.9999998 magnetization 
 augmentation part      -29.4635200 magnetization 

 Broyden mixing:
  rms(total) = 0.72557E-05    rms(broyden)= 0.55242E-05
  rms(prec ) = 0.72055E-05
  weight for this iteration     100.00
  WARNING: grid for Broyden might be to small

 eigenvalues of (default mixing * dielectric matrix)
  average eigenvalue GAMMA=   1.7240
  3.3043  2.6943  2.6108  2.1922  1.7400  1.7400  1.3421  1.3421  0.9255  0.9804
  1.0477  1.2460  1.2460

 Free energy of the ion-electron system (eV)
  ---------------------------------------------------
  alpha Z        PSCENC =       210.77028614
  Ewald energy   TEWEN  =    -14468.82155800
  -Hartree energ DENC   =     -1003.93613231
  -exchange      EXHF   =         0.00000000
  -V(xc)+E(xc)   XCENC  =     -1155.75509261
  PAW double counting   =      4731.29634261    -2493.03497025
  entropy T*S    EENTRO =        -0.00000000
  eigenvalues    EBANDS =       307.64868072
  atomic energy  EATOM  =     13192.48085998
  Solvation  Ediel_sol  =         0.00000000
  ---------------------------------------------------
  free energy    TOTEN  =      -679.35158371 eV

  energy without entropy =     -679.35158371  energy(sigma->0) =     -679.35158371


--------------------------------------------------------------------------------------------------------




--------------------------------------- Iteration      1(  19)  ---------------------------------------


    POTLOK:  cpu time    0.4881: real time    0.4912
    SETDIJ:  cpu time    0.5117: real time    0.5118
     EDDAV:  cpu time   51.5730: real time   51.5902
       DOS:  cpu time    0.0011: real time    0.0011
    CHARGE:  cpu time    3.1733: real time    3.1804
    MIXING:  cpu time    0.0284: real time    0.0284
    --------------------------------------------
      LOOP:  cpu time   55.7757: real time   55.8031

 eigenvalue-minimisations  :  3272
 total energy-change (2. order) : 0.8476491E-07  (-0.2157345E-09)
 number of electron     511.9999998 magnetization 
 augmentation part      -29.4635215 magnetization 

 Broyden mixing:
  rms(total) = 0.52011E-05    rms(broyden)= 0.22190E-05
  rms(prec ) = 0.30199E-05
  weight for this iteration     100.00
  WARNING: grid for Broyden might be to small

 eigenvalues of (default mixing * dielectric matrix)
  average eigenvalue GAMMA=   1.6684
  3.3199  2.7200  2.4192  2.3030  1.7523  1.7523  1.3855  1.3855  1.2847  1.2847
  1.0162  1.0162  0.9137  0.8043

 Free energy of the ion-electron system (eV)
  ---------------------------------------------------
  alpha Z        PSCENC =       210.77028614
  Ewald energy   TEWEN  =    -14468.82155800
  -Hartree energ DENC   =     -1003.93571273
  -exchange      EXHF   =         0.00000000
  -V(xc)+E(xc)   XCENC  =     -1155.75511629
  PAW double counting   =      4731.29550897    -2493.03406655
  entropy T*S    EENTRO =        -0.00000000
  eigenvalues    EBANDS =       307.64821484
  atomic energy  EATOM  =     13192.48085998
  Solvation  Ediel_sol  =         0.00000000
  ---------------------------------------------------
  free energy    TOTEN  =      -679.35158363 eV

  energy without entropy =     -679.35158363  energy(sigma->0) =     -679.35158363


--------------------------------------------------------------------------------------------------------




--------------------------------------- Iteration      1(  20)  ---------------------------------------


    POTLOK:  cpu time    0.4912: real time    0.4918
    SETDIJ:  cpu time    0.5099: real time    0.5099
     EDDAV:  cpu time   50.4908: real time   50.5023
       DOS:  cpu time    0.0010: real time    0.0009
    --------------------------------------------
      LOOP:  cpu time   51.4928: real time   51.5049

 eigenvalue-minimisations  :  3160
 total energy-change (2. order) :-0.3470632E-08  (-0.3593728E-10)
 number of electron     511.9999998 magnetization 
 augmentation part      -29.4635215 magnetization 

 Free energy of the ion-electron system (eV)
  ---------------------------------------------------
  alpha Z        PSCENC =       210.77028614
  Ewald energy   TEWEN  =    -14468.82155800
  -Hartree energ DENC   =     -1003.93573844
  -exchange      EXHF   =         0.00000000
  -V(xc)+E(xc)   XCENC  =     -1155.75511466
  PAW double counting   =      4731.29549920    -2493.03405976
  entropy T*S    EENTRO =        -0.00000000
  eigenvalues    EBANDS =       307.64824191
  atomic energy  EATOM  =     13192.48085998
  Solvation  Ediel_sol  =         0.00000000
  ---------------------------------------------------
  free energy    TOTEN  =      -679.35158363 eV

  energy without entropy =     -679.35158363  energy(sigma->0) =     -679.35158363


--------------------------------------------------------------------------------------------------------




 average (electrostatic) potential at core
  the test charge radii are     0.9892
  (the norm of the test charge is              1.0000)
       1 -83.4945       2 -83.5632       3 -83.4508       4 -83.3619       5 -83.6772
       6 -83.4810       7 -83.5483       8 -83.5122       9 -83.4200      10 -83.3461
      11 -83.4653      12 -83.6355      13 -83.3833      14 -83.3809      15 -83.5724
      16 -83.4373      17 -83.6534      18 -83.2816      19 -83.5256      20 -83.5265
      21 -83.5109      22 -83.4229      23 -83.5972      24 -83.5299      25 -83.4656
      26 -83.5670      27 -83.5713      28 -83.3339      29 -83.5630      30 -83.5690
      31 -83.4033      32 -83.3663      33 -83.4621      34 -83.4815      35 -83.5871
      36 -83.5735      37 -83.5141      38 -83.6500      39 -83.6355      40 -83.6131
      41 -83.5486      42 -83.5614      43 -83.4674      44 -83.4377      45 -83.6078
      46 -83.3833      47 -83.4881      48 -83.5070      49 -83.5660      50 -83.5553
      51 -83.5769      52 -83.4478      53 -83.6696      54 -83.7329      55 -83.5720
      56 -83.5369      57 -83.6035      58 -83.4468      59 -83.5690      60 -83.6054
      61 -83.4442      62 -83.4684      63 -83.5218      64 -83.5810      65 -83.6559
      66 -83.4207      67 -83.4496      68 -83.5191      69 -83.4200      70 -83.4835
      71 -83.6166      72 -83.5720      73 -83.4849      74 -83.4021      75 -83.4860
      76 -83.4114      77 -83.5145      78 -83.5096      79 -83.4622      80 -83.2582
      81 -83.4835      82 -83.4327      83 -83.5486      84 -83.5646      85 -83.4952
      86 -83.5018      87 -83.6772      88 -83.4328      89 -83.6063      90 -83.6056
      91 -83.5846      92 -83.3222      93 -83.4738      94 -83.3578      95 -83.3876
      96 -83.4747      97 -83.4954      98 -83.6186      99 -83.6640     100 -83.5963
     101 -83.5407     102 -83.6574     103 -83.5187     104 -83.4762     105 -83.6944
     106 -83.4414     107 -83.5246     108 -83.5425     109 -83.5288     110 -83.3973
     111 -83.5623     112 -83.4058     113 -83.6059     114 -83.6390     115 -83.5486
     116 -83.5123     117 -83.7023     118 -83.5416     119 -83.6289     120 -83.5540
     121 -83.4921     122 -83.3806     123 -83.6398     124 -83.6315     125 -83.3255
     126 -83.5022     127 -83.5860     128 -83.4897
 
 
 
 E-fermi :   6.0191     XC(G=0):  -9.3318     alpha+bet :-11.7321


 k-point     1 :       0.0000    0.0000    0.0000
  band No.  band energies     occupation 
      1      -6.2986      2.00000
      2      -5.7033      2.00000
      3      -5.6457      2.00000
      4      -5.6115      2.00000
      5      -5.5655      2.00000
      6      -5.5144      2.00000
      7      -5.4939      2.00000
      8      -5.4729      2.00000
      9      -5.3941      2.00000
     10      -5.3354      2.00000
     11      -5.3085      2.00000
     12      -5.2318      2.00000
     13      -5.1611      2.00000
     14      -5.1019      2.00000
     15      -5.0850      2.00000
     16      -4.5472      2.00000
     17      -4.4888      2.00000
     18      -4.4284      2.00000
     19      -4.4175      2.00000
     20      -4.3580      2.00000
     21      -4.3246      2.00000
     22      -4.3137      2.00000
     23      -4.2625      2.00000
     24      -4.2390      2.00000
     25      -4.1865      2.00000
     26      -4.1643      2.00000
     27      -4.1176      2.00000
     28      -4.0692      2.00000
     29      -4.0370      2.00000
     30      -3.9939      2.00000
     31      -3.9136      2.00000
     32      -3.8714      2.00000
     33      -3.8562      2.00000
     34      -3.8262      2.00000
     35      -3.7561      2.00000
     36      -3.7387      2.00000
     37      -3.7319      2.00000
     38      -3.6917      2.00000
     39      -3.6241      2.00000
     40      -3.6073      2.00000
     41      -3.5985      2.00000
     42      -3.5749      2.00000
     43      -3.5589      2.00000
     44      -3.5500      2.00000
     45      -3.5257      2.00000
     46      -3.4946      2.00000
     47      -3.4656      2.00000
     48      -3.4217      2.00000
     49      -3.4160      2.00000
     50      -3.3785      2.00000
     51      -3.3554      2.00000
     52      -3.3441      2.00000
     53      -3.2973      2.00000
     54      -3.2397      2.00000
     55      -3.2018      2.00000
     56      -2.3680      2.00000
     57      -2.3110      2.00000
     58      -2.2487      2.00000
     59      -2.2124      2.00000
     60      -2.2005      2.00000
     61      -2.1571      2.00000
     62      -2.1069      2.00000
     63      -2.0723      2.00000
     64      -2.0506      2.00000
     65      -2.0304      2.00000
     66      -2.0201      2.00000
     67      -2.0034      2.00000
     68      -1.9669      2.00000
     69      -1.9551      2.00000
     70      -1.8936      2.00000
     71      -1.8653      2.00000
     72      -1.8248      2.00000
     73      -1.7554      2.00000
     74      -1.4279      2.00000
     75      -1.3886      2.00000
     76      -1.3047      2.00000
     77      -1.1654      2.00000
     78      -1.0700      2.00000
     79      -0.9682      2.00000
     80      -0.9540      2.00000
     81      -0.9390      2.00000
     82      -0.9180      2.00000
     83      -0.9005      2.00000
     84      -0.8443      2.00000
     85      -0.8257      2.00000
     86      -0.7919      2.00000
     87      -0.7720      2.00000
     88      -0.7418      2.00000
     89      -0.7274      2.00000
     90      -0.7177      2.00000
     91      -0.6955      2.00000
     92      -0.6696      2.00000
     93      -0.6428      2.00000
     94      -0.6115      2.00000
     95      -0.5848      2.00000
     96      -0.5714      2.00000
     97      -0.5113      2.00000
     98      -0.4762      2.00000
     99      -0.4704      2.00000
    100      -0.4387      2.00000
    101      -0.3921      2.00000
    102      -0.0021      2.00000
    103       0.0365      2.00000
[...]
   0.168E+02 0.900E+01 0.334E+01   -.153E+02 -.859E+01 -.330E+01   -.430E+01 -.121E+01 -.850E+00   0.753E-06 -.151E-05 0.152E-05
   -.355E+01 0.391E+01 0.989E+01   0.334E+01 -.375E+01 -.906E+01   -.113E+01 -.661E+00 -.106E+01   -.144E-05 -.295E-06 -.549E-05
   0.729E+00 -.692E+01 -.170E+01   -.962E+00 0.589E+01 0.128E+01   -.751E+00 0.781E+00 0.792E+00   -.969E-07 0.324E-05 -.202E-05
   0.106E+01 0.976E+01 -.204E+01   -.106E+01 -.912E+01 0.194E+01   0.252E-02 -.204E+01 0.132E-01   0.319E-07 0.225E-05 0.133E-05
   -.479E+01 -.591E+01 0.135E+01   0.465E+01 0.573E+01 -.110E+01   0.113E+01 0.105E+01 -.200E+01   -.116E-05 0.174E-05 -.361E-06
   -.565E+01 0.171E+02 -.378E+01   0.467E+01 -.154E+02 0.360E+01   0.116E+01 -.376E+01 0.719E+00   0.251E-05 -.632E-06 0.183E-05
   0.151E+01 -.275E+01 -.778E+01   -.168E+01 0.185E+01 0.673E+01   -.180E+00 0.136E+01 0.122E+01   -.663E-06 0.130E-06 0.195E-06
   -.182E-01 -.119E+02 0.157E+01   0.160E+00 0.112E+02 -.841E+00   -.762E+00 0.188E+01 -.103E+01   -.303E-05 0.171E-05 -.277E-05
   0.100E+01 0.935E+01 -.652E+01   -.699E+00 -.910E+01 0.577E+01   -.163E+01 -.180E+01 0.188E+01   -.141E-05 -.854E-06 0.135E-05
   0.308E+01 -.144E+01 0.949E+01   -.298E+01 0.842E+00 -.876E+01   -.610E+00 0.622E+00 -.161E+01   -.162E-06 -.863E-06 -.290E-06
   -.183E+00 -.342E+01 -.194E+01   -.355E-01 0.300E+01 0.212E+01   -.334E-02 -.154E+01 -.789E+00   0.507E-06 -.313E-05 0.231E-06
   0.531E+01 -.164E+01 0.523E+01   -.556E+01 0.253E+01 -.465E+01   -.449E+00 -.771E+00 -.177E+01   0.624E-06 -.312E-05 0.246E-05
   0.751E+01 -.322E+01 0.211E+02   -.734E+01 0.228E+01 -.195E+02   -.199E+01 0.129E+01 -.410E+01   0.257E-05 0.798E-06 -.505E-06
   -.281E+01 0.390E+00 -.368E+01   0.312E+01 -.427E+00 0.342E+01   -.383E+00 0.140E+00 0.461E+00   -.224E-05 -.380E-05 0.114E-05
   -.259E+01 0.811E+01 0.195E+01   0.229E+01 -.780E+01 -.205E+01   0.721E+00 -.261E+01 -.109E+01   0.130E-05 -.157E-05 0.128E-05
   -.376E+01 -.101E+02 -.271E+01   0.357E+01 0.944E+01 0.215E+01   0.151E+01 0.285E+01 0.213E+01   0.147E-05 0.186E-05 0.379E-05
   -.184E+02 0.163E+01 0.363E+00   0.178E+02 -.176E+01 -.596E+00   0.379E+01 -.314E+00 -.343E-01   0.152E-05 -.162E-05 0.807E-06
   -.257E+01 0.270E+01 -.783E+00   0.205E+01 -.238E+01 0.705E+00   -.647E-02 -.173E+01 0.423E+00   -.106E-05 0.179E-05 -.133E-05
   0.317E+01 0.832E+01 0.857E+01   -.277E+01 -.761E+01 -.779E+01   0.909E+00 -.217E+01 -.175E+01   -.686E-06 0.164E-05 -.346E-06
   -.156E+01 -.177E+02 -.874E+00   0.117E+01 0.169E+02 0.730E+00   -.621E+00 0.376E+01 -.482E+00   -.214E-05 0.230E-05 -.940E-06
   0.808E+01 0.122E+01 0.762E+00   -.763E+01 -.171E+01 -.153E+01   -.220E+01 0.484E+00 0.159E+00   -.402E-05 0.366E-06 -.126E-05
   -.899E+01 0.340E+01 0.189E+00   0.817E+01 -.307E+01 -.374E+00   0.193E+01 -.792E+00 -.724E-01   -.694E-07 -.193E-05 -.455E-06
   -.969E+00 -.347E+01 -.147E+01   0.658E+00 0.329E+01 0.150E+01   0.645E+00 0.378E-01 0.519E+00   -.210E-05 -.160E-05 -.230E-05
   0.457E+01 0.216E+01 -.143E+02   -.436E+01 -.247E+01 0.130E+02   -.778E+00 -.534E+00 0.287E+01   -.243E-05 0.230E-05 0.378E-05
   0.184E+01 0.292E+01 -.167E+00   -.130E+01 -.317E+01 0.524E-01   -.173E+01 0.124E+01 -.815E+00   0.667E-06 0.213E-05 0.170E-05
   -.808E+01 -.477E+01 0.118E+01   0.713E+01 0.388E+01 -.122E+01   0.277E+01 0.699E+00 -.199E+00   0.207E-06 -.147E-05 -.808E-06
   0.805E+01 -.414E+01 0.454E+01   -.704E+01 0.364E+01 -.340E+01   -.267E+01 0.128E+01 -.273E+01   -.122E-05 -.294E-05 -.408E-06
   0.868E+00 0.384E+00 -.273E+01   -.883E+00 -.448E+00 0.231E+01   0.742E+00 -.400E+00 0.562E+00   0.974E-06 0.210E-05 0.655E-05
   -.397E+01 0.282E+00 0.137E+02   0.444E+01 -.805E+00 -.124E+02   0.333E+00 0.294E+00 -.331E+01   -.144E-05 -.195E-05 -.218E-05
   -.277E+01 0.356E+01 -.677E+01   0.252E+01 -.312E+01 0.614E+01   -.612E+00 -.295E+01 0.102E+01   0.207E-05 -.228E-05 0.489E-05
   -.419E+01 0.294E+01 0.107E+02   0.385E+01 -.224E+01 -.100E+02   0.137E+01 -.102E+01 -.229E+01   0.325E-05 -.267E-05 0.147E-05
   0.177E+01 -.110E+02 -.320E+01   -.184E+01 0.101E+02 0.308E+01   -.522E+00 0.194E+01 -.120E+00   -.130E-05 0.607E-06 0.183E-05
   -.189E+01 0.800E+01 0.554E+01   0.157E+01 -.773E+01 -.545E+01   -.707E+00 -.101E+01 -.173E+01   0.569E-06 -.447E-05 -.317E-06
   0.121E+02 0.521E+00 0.140E+02   -.110E+02 -.180E+00 -.130E+02   -.282E+01 -.735E+00 -.285E+01   -.234E-05 0.268E-05 -.281E-05
   -.958E+01 -.136E+02 0.508E-01   0.789E+01 0.128E+02 -.366E+00   0.306E+01 0.329E+01 -.503E-01   0.358E-06 0.464E-06 -.136E-05
   0.649E+01 0.313E+01 0.472E+01   -.610E+01 -.290E+01 -.427E+01   -.583E+00 -.399E+00 -.160E+01   -.529E-05 -.341E-06 -.210E-05
   -.661E+00 -.707E+00 0.107E+02   0.696E+00 0.498E+00 -.100E+02   -.297E+00 -.371E+00 -.298E+01   -.159E-05 0.249E-05 -.124E-05
   -.258E+00 0.113E+02 0.132E+00   0.396E+00 -.103E+02 -.642E+00   -.876E+00 -.258E+01 0.158E+01   -.215E-05 -.292E-05 -.177E-05
   -.689E+01 0.701E+01 -.538E+01   0.594E+01 -.625E+01 0.473E+01   0.179E+01 -.230E+01 0.387E+00   0.162E-05 -.492E-06 -.223E-06
   0.334E+01 -.263E+01 -.835E+01   -.264E+01 0.281E+01 0.806E+01   -.162E+01 0.429E+00 0.218E+01   -.181E-06 0.536E-05 0.693E-06
   -.603E+01 -.275E+01 -.667E+01   0.542E+01 0.198E+01 0.529E+01   0.258E+01 0.235E+01 0.267E+01   -.407E-06 0.137E-05 -.807E-06
   0.264E+01 -.406E+01 0.114E+01   -.206E+01 0.343E+01 -.100E+01   -.122E+01 0.506E+00 -.167E+01   0.135E-05 0.135E-06 0.939E-07
   -.537E+01 -.226E+01 -.362E+01   0.543E+01 0.182E+01 0.372E+01   0.185E+01 0.148E+01 0.207E+01   0.537E-05 0.330E-05 0.247E-05
   0.445E+01 0.829E+01 -.327E+01   -.389E+01 -.739E+01 0.287E+01   0.595E+00 -.187E+01 0.235E+00   0.569E-06 -.203E-05 0.368E-06
   0.210E+00 0.188E-01 -.250E+01   -.930E-01 -.193E+00 0.186E+01   0.778E+00 -.444E+00 0.171E+00   0.126E-05 -.140E-05 -.132E-05
   0.357E+01 0.112E+02 -.844E+01   -.342E+01 -.996E+01 0.792E+01   -.938E+00 -.311E+01 0.283E+01   0.386E-05 -.348E-06 0.190E-05
   0.608E+01 0.492E+01 0.602E+01   -.581E+01 -.429E+01 -.548E+01   -.464E+00 -.538E+00 -.266E+01   0.162E-05 -.204E-05 -.275E-05
   0.780E+01 0.174E+01 -.713E+01   -.708E+01 -.152E+01 0.619E+01   -.176E+01 -.754E-01 0.349E+00   -.223E-05 -.141E-05 0.482E-06
   -.104E+02 0.154E+01 0.281E+00   0.953E+01 -.181E+01 -.566E+00   0.213E+01 -.509E+00 -.988E+00   0.471E-05 0.128E-05 0.129E-05
   0.429E+01 0.163E+01 -.627E+00   -.394E+01 -.151E+01 0.364E+00   -.129E+01 -.487E+00 0.565E+00   -.140E-05 0.138E-05 -.323E-05
   0.109E+02 0.571E+01 -.211E+01   -.100E+02 -.517E+01 0.170E+01   -.254E+01 -.113E+00 -.775E+00   -.350E-05 -.106E-05 -.352E-05
   -.995E+00 -.127E+02 -.233E+01   0.140E+00 0.115E+02 0.183E+01   0.161E+01 0.228E+01 0.950E-01   0.138E-05 0.547E-05 0.164E-05
   0.302E+01 0.117E+01 0.128E+02   -.320E+01 -.122E+01 -.117E+02   -.849E+00 -.691E+00 -.258E+01   0.734E-06 0.261E-05 -.242E-05
 -----------------------------------------------------------------------------------------------
   -.154E+00 -.102E+00 -.594E+00   0.140E-12 -.101E-12 0.126E-12   0.154E+00 0.102E+00 0.594E+00   0.192E-05 0.863E-07 -.618E-05
 
 
 POSITION                                       TOTAL-FORCE (eV/Angst)
 -----------------------------------------------------------------------------------
     21.81453     10.99619     10.98032         1.868396      0.099286     -1.360768
     21.66094     13.62085     13.72438         1.795033      1.009407     -0.319322
     10.92491     16.34044      5.52528         0.401156      1.513364     -0.818915
     10.96621      8.24175     19.05528        -1.100742     -0.347458      1.688956
     13.50138     21.74731     13.55065        -0.292875      1.588041      1.814810
      2.90718      2.71251      5.48853        -2.416874      0.464441     -0.565574
     13.66728     16.26292      8.21305        -0.488769      1.611178     -0.670327
     13.65348     19.07988     11.02212         1.271694      0.711093      0.163959
      5.42872      0.05966      5.44256         1.250244      0.430514     -1.037260
      5.53692      2.73409      8.23096        -0.165920      0.136836     -0.732304
      5.45415      5.50777     10.90611         0.338427      0.448706      0.048043
     16.39924     19.03932     13.56778         0.226469      1.047522      2.027455
     19.09343     10.89752      8.25608         0.634832      1.263256     -0.467493
     19.04588     13.56787     10.93856         1.235322      0.609376     -0.009711
      8.21520      5.50743     13.65599         0.425016     -0.460076      0.693888
      8.23415      8.30766     16.26027         0.396563     -0.912689      2.103340
     13.66177      2.85293     10.99179         0.512446     -0.529181     -0.238144
      2.85740      5.52427      2.71997        -2.042720      0.500860      0.215806
     13.54489      8.22298     16.39037         2.290738     -1.375512      0.587634
      2.64022     10.82691      8.21604         1.370872      0.779419      0.009392
      5.43532     13.47799     13.79485         1.399332      2.469679     -1.576822
      5.49645      5.32689      5.47300         0.952687      1.619291     -0.263677
      5.35248      8.13481      8.04646         0.647775      0.607043      2.094187
      5.34252     10.85043     10.86059         1.121746      1.237262      0.951648
      8.35374     13.67121     16.37077        -1.466310      0.254722      1.351146
      8.05640      5.44563      8.11747         0.643262      0.601820      1.206701
      8.25178      8.16804     11.02984        -1.178872      0.065485     -0.874145
      8.21113     10.94115     13.71058         0.945869     -1.214778     -1.253268
     10.88458      2.93354      8.25243         1.045256     -1.283708     -0.561218
     10.96312      5.26393     10.85957        -0.465105      2.811398      1.059152
     11.01288      8.26892     13.73627        -1.133537     -0.532774     -0.862362
     10.94051     10.91403     16.30166        -0.228626      0.156942      1.002989
     16.34990      5.54211     10.96873         1.726506     -0.959968      0.284151
      5.41818      8.15956      2.77780         0.117169      0.185657      0.873839
      5.57388     10.89275      5.53120        -0.459719      0.002814     -0.580499
     16.22144     13.78474     19.15768         2.744986     -0.822462      0.171080
      8.24507     16.41303     13.67101        -2.032213     -0.416197     -0.297812
      8.21363      8.03474      5.40937        -0.469351      2.519520      0.715343
      8.22464     10.93565      8.25827        -1.054735     -0.123178     -0.450525
      8.22652     13.74013     10.83133         0.278195     -0.298055      2.354563
     10.87605      5.46375      5.42042         0.894264      1.134366      0.637752
     10.78749      8.11521      8.18616         2.030667      0.171837      1.737943
     10.90667     10.95013     10.89224        -0.527642      0.134589      0.761743
     10.86396     13.70531     13.62699         1.082242     -0.364020      0.845692
     13.64916     16.26098     19.09316         0.039910      3.737716      0.403393
     13.79263      8.26182     10.91794        -2.455214     -1.009152     -0.354349
     13.64651     10.91319     13.50607         0.764709     -0.137476      1.781843
     13.67566     13.66134     16.38763         0.714938     -0.093797      0.720717
     19.02244      8.17579     10.94146         0.859035     -0.011774     -0.082163
      8.35646     10.95994      2.70554        -0.363083     -1.322168      0.545785
     19.12034     13.64083     16.35702        -0.525719      0.972937      0.551586
     19.05964     16.37262     19.11598         0.324241     -1.652742     -1.047666
     10.90973     19.02239     13.64816        -0.961177      1.980101      1.119442
     10.79789     10.89808      5.51930        -0.094446     -0.437658     -0.598189
     10.96788     13.63219      8.27775        -0.145648     -0.277807     -1.434302
     11.17477     16.54619     10.84610        -3.085802     -0.441632      0.383464
     13.68767     19.10715     16.36354         0.380158      1.556181      0.580696
     13.77282     11.01073      8.23032        -1.419115     -0.716844     -0.737429
     13.84020     13.67770     10.80685        -1.584428      0.976223      1.844449
     13.60016     16.44153     13.55460         0.813319     -0.708436      1.100438
     16.41407     19.05075     19.20684         0.079876      1.714947     -1.032532
     16.43194     11.07908     10.86170         0.872210     -2.208624      2.321185
     16.51894     13.69074     13.65706        -0.674813     -1.047607      0.487263
     16.34398     16.31353     16.45187         0.642564      1.557726      0.293595
      1.29882      1.47814      1.37755        -0.175927     -0.542919      0.140794
      1.30404      4.16567      4.03189         1.056258     -0.793509      0.175069
      1.32362      6.93816      6.83807         0.404356     -2.185578      0.040369
      1.46019      9.42952      9.61963        -1.745809      1.050510      0.146570
      4.04721      1.35121      4.06122        -1.192161     -1.759054      0.079002
      4.14027      4.15501      6.79884         0.016449     -1.339899      1.317390
      4.00280      6.84198      9.50347         0.437747     -0.633853      0.441720
      4.10191      9.63423     12.45311         0.282605     -1.284678     -1.884765
      6.85991      1.35457      6.74553         0.305288      0.414117      0.919435
      6.82322      4.07210      9.64744        -0.098749      0.284222     -0.665636
      6.92098      6.85142     12.30665        -1.079237     -0.891706     -0.376537
      6.98233      9.71689     15.10215        -2.786704     -0.803072     -0.807132
      9.66050      1.44527      9.56310        -1.343301     -0.503692     -0.226051
      9.55829      4.05694     12.23234        -0.984214     -0.249253      0.371627
      9.62073      6.93815     15.04341        -0.000155     -1.399502     -0.083143
      9.46121      9.51549     17.89385         0.994769      0.865387     -1.750464
      4.14405      4.23909      1.38129         0.176133     -2.043852      0.540429
      4.14022      6.76374      4.19596        -0.345258      0.455490      0.174565
      4.07897      9.50582      6.78897        -0.620831      1.142925     -0.294366
      4.08905     12.39231      9.49692        -1.329964     -1.548840      1.131546
      6.91299      4.01433      4.15957        -0.510513      0.026346     -0.877214
      6.79065      6.93113      6.81266        -0.222172     -1.961738     -0.599959
      6.85423      9.49323      9.66782        -0.704198      0.114591     -1.186270
      6.99766     12.31928     12.46940        -1.823813      0.350290     -2.461357
      9.55343      4.16692      6.81506        -0.068373      0.102628      0.200029
      9.49904      6.87897      9.66960         0.424643     -2.300393     -1.191392
      9.55108      9.44488     12.25700         1.319335      2.229420      1.569612
      9.39278     12.32375     14.98496         3.207086     -0.445754     -0.268183
     12.38664      4.17155      9.54083        -0.525002     -1.408941      0.344640
     12.22756      6.93872     12.32543         1.308252     -1.463221     -0.971459
     12.42645      9.45228     14.99219        -1.013505      2.957096     -0.626079
     12.38564     12.32579     17.82950        -1.755868     -0.006144     -0.607709
      6.72423      6.86040      1.44017         1.105982     -0.463788     -0.257517
      6.87651      9.56600      4.01025         0.333709     -0.144879      0.545151
      6.84036     12.41547      6.78795        -0.563797     -0.848530      1.600736
      6.80797     15.00968      9.63669        -1.182789      0.990723     -0.929086
      9.45682      6.77732      4.07166         1.819830     -0.186311     -0.229862
      9.59196      9.48632      6.96082        -1.659333      0.777562     -1.593438
      9.51413     12.34112      9.55191         0.727341     -0.463870      0.137495
      9.59609     15.15242     12.35445         0.810086     -0.229203     -2.089003
     12.34499      7.03777      6.83970        -0.862601     -2.510848      0.396806
     12.23583      9.57142      9.65748         1.035767     -0.320418     -1.666788
     12.34485     12.28667     12.21821        -0.591673      1.061878     -0.247710
     12.39308     15.13270     15.15338        -1.031065     -0.742593     -1.638667
     15.12451      6.84983      9.68320        -1.701939     -0.393792     -1.833252
     14.98091      9.39035     12.36705         1.374155      2.481117     -0.365762
     15.10626     12.27603     15.10406        -0.196098     -0.171440     -1.157101
     15.00189     15.06685     17.86008        -0.261769     -0.580188     -2.314869
      9.61782      9.61129      1.24950        -0.738033     -1.593436      1.069443
      9.46045     12.34699      4.16834         0.828536     -1.542733     -0.266196
      9.65337     14.88367      6.70720        -0.920439      0.607206      1.894613
      9.43104     17.65173      9.44814         1.979510      1.573977      1.290078
     12.25933      9.53610      4.23733        -0.636863     -0.128718     -1.541579
     12.20468     12.25304      6.64571         1.915202      1.039534      2.167851
     12.26783     15.04670      9.58181         1.152840     -0.969226     -0.161964
     12.25122     17.84584     12.33389         0.895102     -0.618572     -0.466732
     15.08277      9.68886      6.67046        -0.778090     -1.874391      2.312827
     15.12979     12.33983      9.62228        -0.189597      0.090690     -2.117275
     15.17060     15.04786     12.33937        -1.040056      0.140660     -0.583585
     14.93054     17.73770     15.07668         1.299432     -0.778516     -1.273825
     17.77372      9.60285      9.57545        -0.937797     -0.368957      0.301652
     17.91195     12.23923     12.42615        -1.622290      0.420909     -1.178465
     17.72101     14.99313     15.08595         0.756933      1.083096     -0.411648
     17.89659     17.89825     17.83640        -1.032021     -0.740151     -1.415707
 -----------------------------------------------------------------------------------
    total drift:                               -0.000017     -0.000009     -0.000001


--------------------------------------------------------------------------------------------------------



  FREE ENERGIE OF THE ION-ELECTRON SYSTEM (eV)
  ---------------------------------------------------
  free  energy   TOTEN  =      -679.35158363 eV

  energy  without entropy=     -679.35158363  energy(sigma->0) =     -679.35158363
 


--------------------------------------------------------------------------------------------------------


    POTLOK:  cpu time    0.9982: real time    0.9983


--------------------------------------------------------------------------------------------------------


     LOOP+:  cpu time 1666.8942: real time 1667.4497
    4ORBIT:  cpu time    0.0000: real time    0.0000

 total amount of memory used by VASP MPI-rank0   221701. kBytes
=======================================================================

   base      :      30000. kBytes
   nonl-proj :      10690. kBytes
   fftplans  :      66746. kBytes
   grid      :      26864. kBytes
   one-center:         24. kBytes
   wavefun   :      87377. kBytes
 
  
  
 General timing and accounting informations for this job:
 ========================================================
  
                  Total CPU time used (sec):     1690.886
                            User time (sec):     1689.606
                          System time (sec):        1.280
                         Elapsed time (sec):     1692.491
  
                   Maximum memory used (kb):      339024.
                   Average memory used (kb):           0.
  
                          Minor page faults:       147364
                          Major page faults:            0
                 Voluntary context switches:         1332
