potpaw_PBE@./ARUN.APL1ZEROSTATE         
           1
     0.000000   10.937334   10.937334
    10.937334    0.000000   10.937334
    10.937334   10.937334    0.000000
   Si
 128
Direct configuration=     1
   0.00740483  0.99652501  0.99797655
   0.25985730  0.99496237  0.98549628
   0.50015853  0.00501720  0.99384696
   0.74656310  0.99566027  0.00698001
   0.99643009  0.24250547  0.99192543
   0.24200884  0.25980744  0.00599615
   0.49411901  0.25679977  0.99279926
   0.75194383  0.25580832  0.99252865
   0.00335976  0.49425304  0.00209454
   0.24814676  0.50440959  0.00183102
   0.50102419  0.49612121  0.00255117
   0.74094192  0.49955926  0.99982248
   0.00275055  0.75210234  0.99360953
   0.24962872  0.75048318  0.99088095
   0.50049809  0.74806886  0.00304637
   0.74669854  0.73997714  0.01287091
   0.00836402  0.99661503  0.25247970
   0.24625912  0.00242743  0.25882444
   0.50599465  0.99257648  0.24583254
   0.74985022  0.00134171  0.24005347
   0.99830208  0.26296069  0.23399027
   0.24244711  0.25794943  0.24459058
   0.49503787  0.24064972  0.24872724
   0.74828570  0.24469750  0.24376880
   0.99147753  0.50530138  0.25848074
   0.25173892  0.49044073  0.24615519
   0.50040103  0.50805697  0.24640273
   0.75158132  0.50197628  0.24876739
   0.01377777  0.74074142  0.25443527
   0.23590662  0.75698335  0.24537457
   0.50251352  0.75339343  0.25351366
   0.74401965  0.74644067  0.25384932
   0.00735732  0.99551328  0.49935741
   0.25230938  0.00166519  0.49371876
   0.49601116  0.00970666  0.49991294
   0.76439974  0.98718653  0.49593888
   0.99836795  0.25157200  0.50227453
   0.23911164  0.25546690  0.49550472
   0.50146031  0.25359267  0.49838576
   0.74720825  0.24309975  0.50905097
   0.00037103  0.49521806  0.49917917
   0.25206691  0.49639304  0.48990647
   0.49992540  0.49595199  0.50124419
   0.75284954  0.49306546  0.50022611
   0.99224260  0.75344412  0.49449783
   0.24627254  0.75195449  0.50910495
   0.49247629  0.74238360  0.50531601
   0.74850528  0.74981478  0.50055028
   0.00433390  0.99604300  0.74317811
   0.24270199  0.00466564  0.75936481
   0.49726467  0.99825688  0.74991544
   0.75104979  0.99672343  0.74589844
   0.99479514  0.25305530  0.74442112
   0.25689458  0.24773436  0.73951636
   0.50021595  0.25661824  0.74617498
   0.74138360  0.25027487  0.77143407
   0.99580995  0.50030768  0.75115583
   0.24998023  0.50251797  0.75673049
   0.48660636  0.50146390  0.76394523
   0.74954160  0.48975511  0.75370669
   0.99857601  0.75750457  0.74323366
   0.25183637  0.74124852  0.76112316
   0.49504118  0.75362354  0.75670259
   0.75070519  0.75348868  0.74084037
   0.07117224  0.05477713  0.06397380
   0.31513728  0.05349795  0.06573017
   0.56927105  0.05593362  0.06508462
   0.80407890  0.07544366  0.05806160
   0.06241132  0.30890626  0.06112984
   0.31148285  0.31013484  0.06840978
   0.56424408  0.30465815  0.06131801
   0.82220351  0.31638405  0.05865366
   0.05669469  0.56004842  0.06715328
   0.31526536  0.56679961  0.05704696
   0.55941819  0.56577870  0.06700656
   0.81540507  0.56538428  0.07301001
   0.06161764  0.81273641  0.07052309
   0.30770737  0.81069542  0.06321822
   0.56507536  0.81034322  0.06927943
   0.82049862  0.81553563  0.04950270
   0.06749080  0.05880076  0.32008932
   0.31175223  0.07188399  0.30665658
   0.55844615  0.06226899  0.31067066
   0.81373465  0.05456843  0.31929342
   0.05764240  0.32266683  0.30938762
   0.31786316  0.30501833  0.31585017
   0.56260589  0.32132214  0.30536021
   0.81331578  0.32676070  0.31303545
   0.06530649  0.55779403  0.31567528
   0.32226909  0.56182203  0.30667482
   0.55547340  0.56518321  0.30807202
   0.81902622  0.55104799  0.30773346
   0.06060634  0.81171143  0.32079822
   0.32167764  0.80523578  0.31272944
   0.54940311  0.82133224  0.31481805
   0.81233883  0.81781145  0.31460733
   0.07206253  0.05961231  0.55518361
   0.30627847  0.06037830  0.56834076
   0.56517733  0.05544487  0.56996895
   0.81548206  0.06559970  0.55685246
   0.06364268  0.30862903  0.55600784
   0.31338489  0.32304306  0.55394937
   0.56590114  0.30742938  0.56244725
   0.81879101  0.31077605  0.56659423
   0.07005722  0.55529599  0.57340608
   0.31968808  0.56329495  0.55542653
   0.55589526  0.56121486  0.56747422
   0.81797865  0.56749473  0.56560398
   0.06439061  0.82094387  0.56188912
   0.30978707  0.82093216  0.54877212
   0.56109804  0.81986550  0.56129933
   0.81944287  0.81350369  0.55811881
   0.05682238  0.05741936  0.82193745
   0.32251369  0.05859743  0.80637088
   0.54572257  0.06751663  0.81509094
   0.80773021  0.05611281  0.80616718
   0.06921704  0.31820144  0.80266863
   0.30601920  0.30159804  0.81427574
   0.56506798  0.31099650  0.81065099
   0.81960148  0.30808571  0.81204279
   0.05835778  0.55152211  0.82749469
   0.31233955  0.56742522  0.81589053
   0.55848307  0.56970518  0.81734186
   0.81755965  0.56090107  0.80419739
   0.06421061  0.81127271  0.81377788
   0.30873313  0.82738947  0.81029954
   0.56494870  0.81435887  0.80587267
   0.81546641  0.81531493  0.82096950
