 128 128   0   0
  0.2044346E+02  0.1546773E-08  0.1546773E-08  0.1546773E-08  0.5000000E-15
  1.000000000000000E-004
  CAR 
 potpaw_PBE@./ARUN.APL1ZEROSTATE         
      9.34541356     -7.03982381  301      5.96595835      1.00000000
     -7.040  0.0000E+00  0.0000E+00
     -6.985  0.0000E+00  0.0000E+00
     -6.931  0.0000E+00  0.0000E+00
     -6.876  0.0000E+00  0.0000E+00
     -6.821  0.0000E+00  0.0000E+00
     -6.767  0.0000E+00  0.0000E+00
     -6.712  0.0000E+00  0.0000E+00
     -6.658  0.0000E+00  0.0000E+00
     -6.603  0.0000E+00  0.0000E+00
     -6.548  0.0000E+00  0.0000E+00
     -6.494  0.0000E+00  0.0000E+00
     -6.439  0.0000E+00  0.0000E+00
     -6.384  0.0000E+00  0.0000E+00
     -6.330  0.2029E-05  0.1108E-06
     -6.275  0.4566E+01  0.2494E+00
     -6.221  0.1138E-01  0.2500E+00
     -6.166  0.3650E+00  0.2699E+00
     -6.111  0.1683E+02  0.1189E+01
     -6.057  0.2292E+02  0.2441E+01
     -6.002  0.1746E+02  0.3395E+01
     -5.947  0.6498E+01  0.3750E+01
     -5.893  0.1317E-11  0.3750E+01
     -5.838  0.3586E+01  0.3946E+01
     -5.784  0.1842E+02  0.4952E+01
     -5.729  0.1660E+02  0.5859E+01
     -5.674  0.2765E+02  0.7369E+01
     -5.620  0.3374E+02  0.9212E+01
     -5.565  0.3327E+02  0.1103E+02
     -5.511  0.2645E+02  0.1247E+02
     -5.456  0.3035E+02  0.1413E+02
     -5.401  0.6758E+01  0.1450E+02
     -5.347  0.4575E+01  0.1475E+02
     -5.292  0.2266E+01  0.1487E+02
     -5.237  0.6593E+01  0.1523E+02
     -5.183  0.4088E+02  0.1747E+02
     -5.128  0.3022E+02  0.1912E+02
     -5.074  0.3443E+02  0.2100E+02
     -5.019  0.4800E+02  0.2362E+02
     -4.964  0.4534E+02  0.2610E+02
     -4.910  0.2639E+02  0.2754E+02
     -4.855  0.1772E+02  0.2850E+02
     -4.801  0.2228E+02  0.2972E+02
     -4.746  0.3581E+02  0.3168E+02
     -4.691  0.2301E+02  0.3293E+02
     -4.637  0.4038E+02  0.3514E+02
     -4.582  0.4222E+02  0.3745E+02
     -4.527  0.3490E+02  0.3935E+02
     -4.473  0.3145E+02  0.4107E+02
     -4.418  0.3511E+02  0.4299E+02
     -4.364  0.4209E+01  0.4322E+02
     -4.309  0.2389E+02  0.4452E+02
     -4.254  0.3686E+02  0.4653E+02
     -4.200  0.6475E+02  0.5007E+02
     -4.145  0.6347E+02  0.5354E+02
     -4.090  0.6128E+02  0.5689E+02
     -4.036  0.5692E+02  0.5999E+02
     -3.981  0.4462E+02  0.6243E+02
     -3.927  0.5303E+02  0.6533E+02
     -3.872  0.4722E+02  0.6791E+02
     -3.817  0.4529E+02  0.7038E+02
     -3.763  0.6492E+02  0.7393E+02
     -3.708  0.5079E+02  0.7670E+02
     -3.654  0.2790E+02  0.7822E+02
     -3.599  0.3050E+02  0.7989E+02
     -3.544  0.3553E+02  0.8183E+02
     -3.490  0.4419E+02  0.8424E+02
     -3.435  0.5095E+02  0.8703E+02
     -3.380  0.7155E+02  0.9093E+02
     -3.326  0.5607E+02  0.9400E+02
     -3.271  0.2780E+02  0.9551E+02
     -3.217  0.2789E+02  0.9704E+02
     -3.162  0.3322E+02  0.9885E+02
     -3.107  0.4236E+02  0.1012E+03
     -3.053  0.6014E+02  0.1045E+03
     -2.998  0.4699E+02  0.1070E+03
     -2.944  0.2554E+02  0.1084E+03
     -2.889  0.3959E+02  0.1106E+03
     -2.834  0.3195E+02  0.1123E+03
     -2.780  0.3188E+02  0.1141E+03
     -2.725  0.2711E+02  0.1155E+03
     -2.670  0.3657E+02  0.1175E+03
     -2.616  0.3339E+02  0.1194E+03
     -2.561  0.4548E+02  0.1218E+03
     -2.507  0.9776E+01  0.1224E+03
     -2.452  0.6782E+01  0.1227E+03
     -2.397  0.2443E+01  0.1229E+03
     -2.343  0.7011E+01  0.1233E+03
     -2.288  0.9123E+01  0.1238E+03
     -2.233  0.2073E+02  0.1249E+03
     -2.179  0.1569E+02  0.1258E+03
     -2.124  0.3142E+02  0.1275E+03
     -2.070  0.1488E+02  0.1283E+03
     -2.015  0.3236E+02  0.1301E+03
     -1.960  0.2540E+02  0.1314E+03
     -1.906  0.1252E+02  0.1321E+03
     -1.851  0.6964E+01  0.1325E+03
     -1.797  0.9120E+01  0.1330E+03
     -1.742  0.7691E+00  0.1330E+03
     -1.687  0.8074E+01  0.1335E+03
     -1.633  0.1966E+02  0.1346E+03
     -1.578  0.3570E+02  0.1365E+03
     -1.523  0.3063E+02  0.1382E+03
     -1.469  0.3750E+02  0.1402E+03
     -1.414  0.3534E+02  0.1422E+03
     -1.360  0.4963E+02  0.1449E+03
     -1.305  0.5267E+02  0.1477E+03
     -1.250  0.7432E+02  0.1518E+03
     -1.196  0.6052E+02  0.1551E+03
     -1.141  0.4664E+02  0.1577E+03
     -1.087  0.6323E+02  0.1611E+03
     -1.032  0.5696E+02  0.1642E+03
     -0.977  0.6966E+02  0.1680E+03
     -0.923  0.6494E+02  0.1716E+03
     -0.868  0.6488E+02  0.1751E+03
     -0.813  0.5842E+02  0.1783E+03
     -0.759  0.4466E+02  0.1807E+03
     -0.704  0.5363E+02  0.1837E+03
     -0.650  0.4652E+02  0.1862E+03
     -0.595  0.2873E+02  0.1878E+03
     -0.540  0.2028E+02  0.1889E+03
     -0.486  0.2008E+02  0.1900E+03
     -0.431  0.2026E+02  0.1911E+03
     -0.376  0.3796E+02  0.1932E+03
     -0.322  0.4132E+02  0.1954E+03
     -0.267  0.5802E+02  0.1986E+03
     -0.213  0.4915E+02  0.2013E+03
     -0.158  0.4340E+02  0.2037E+03
     -0.103  0.4752E+02  0.2062E+03
     -0.049  0.4281E+02  0.2086E+03
      0.006  0.5335E+02  0.2115E+03
      0.060  0.2012E+02  0.2126E+03
      0.115  0.2014E+02  0.2137E+03
      0.170  0.5736E+01  0.2140E+03
      0.224  0.1272E+02  0.2147E+03
      0.279  0.2418E+02  0.2160E+03
      0.334  0.2515E+02  0.2174E+03
      0.388  0.1946E+02  0.2185E+03
      0.443  0.2688E+02  0.2199E+03
      0.497  0.1957E+02  0.2210E+03
      0.552  0.2591E+02  0.2224E+03
      0.607  0.1729E+02  0.2234E+03
      0.661  0.2694E+02  0.2248E+03
      0.716  0.2734E+02  0.2263E+03
      0.770  0.1361E+02  0.2271E+03
      0.825  0.7920E+01  0.2275E+03
      0.880  0.4571E+01  0.2278E+03
      0.934  0.2367E+02  0.2290E+03
      0.989  0.1790E+02  0.2300E+03
      1.044  0.2093E+02  0.2312E+03
      1.098  0.3282E+02  0.2330E+03
      1.153  0.2827E+02  0.2345E+03
      1.207  0.2421E+02  0.2358E+03
      1.262  0.2363E+02  0.2371E+03
      1.317  0.3028E+02  0.2388E+03
      1.371  0.2828E+02  0.2403E+03
      1.426  0.2979E+02  0.2419E+03
      1.480  0.8031E+02  0.2463E+03
      1.535  0.9239E+02  0.2514E+03
      1.590  0.8382E+02  0.2559E+03
      1.644  0.8966E+02  0.2608E+03
      1.699  0.6421E+02  0.2644E+03
      1.754  0.5804E+02  0.2675E+03
      1.808  0.5003E+02  0.2703E+03
      1.863  0.3464E+02  0.2721E+03
      1.917  0.1910E+02  0.2732E+03
      1.972  0.2290E+02  0.2744E+03
      2.027  0.2485E+02  0.2758E+03
      2.081  0.7792E+02  0.2801E+03
      2.136  0.9806E+02  0.2854E+03
      2.191  0.1044E+03  0.2911E+03
      2.245  0.1278E+03  0.2981E+03
      2.300  0.1128E+03  0.3043E+03
      2.354  0.1100E+03  0.3103E+03
      2.409  0.1029E+03  0.3159E+03
      2.464  0.9186E+02  0.3209E+03
      2.518  0.3799E+02  0.3230E+03
      2.573  0.1867E+02  0.3240E+03
      2.627  0.3903E+02  0.3261E+03
      2.682  0.7087E+02  0.3300E+03
      2.737  0.8203E+02  0.3345E+03
      2.791  0.1103E+03  0.3405E+03
      2.846  0.7563E+02  0.3446E+03
      2.901  0.8896E+02  0.3495E+03
      2.955  0.1020E+03  0.3551E+03
      3.010  0.1115E+03  0.3612E+03
      3.064  0.9216E+02  0.3662E+03
      3.119  0.6653E+02  0.3698E+03
      3.174  0.7565E+02  0.3740E+03
      3.228  0.8687E+02  0.3787E+03
      3.283  0.8861E+02  0.3835E+03
      3.337  0.1013E+03  0.3891E+03
      3.392  0.9500E+02  0.3943E+03
      3.447  0.8937E+02  0.3991E+03
      3.501  0.9417E+02  0.4043E+03
      3.556  0.7811E+02  0.4086E+03
      3.611  0.8206E+02  0.4130E+03
      3.665  0.6841E+02  0.4168E+03
      3.720  0.7078E+02  0.4206E+03
      3.774  0.8557E+02  0.4253E+03
      3.829  0.9347E+02  0.4304E+03
      3.884  0.9523E+02  0.4356E+03
      3.938  0.7291E+02  0.4396E+03
      3.993  0.5440E+02  0.4426E+03
      4.048  0.6025E+02  0.4459E+03
      4.102  0.6682E+02  0.4495E+03
      4.157  0.6660E+02  0.4531E+03
      4.211  0.7535E+02  0.4573E+03
      4.266  0.7610E+02  0.4614E+03
      4.321  0.6509E+02  0.4650E+03
      4.375  0.7798E+02  0.4692E+03
      4.430  0.7895E+02  0.4735E+03
      4.484  0.6318E+02  0.4770E+03
      4.539  0.4838E+02  0.4796E+03
      4.594  0.6663E+02  0.4833E+03
      4.648  0.6503E+02  0.4868E+03
      4.703  0.4502E+02  0.4893E+03
      4.758  0.2938E+02  0.4909E+03
      4.812  0.2042E+02  0.4920E+03
      4.867  0.2019E+02  0.4931E+03
      4.921  0.4247E+02  0.4954E+03
      4.976  0.3654E+02  0.4974E+03
      5.031  0.3805E+02  0.4995E+03
      5.085  0.2714E+02  0.5010E+03
      5.140  0.3170E+02  0.5027E+03
      5.194  0.6922E+01  0.5031E+03
      5.249  0.1205E+02  0.5038E+03
      5.304  0.1065E+02  0.5043E+03
      5.358  0.1537E+02  0.5052E+03
      5.413  0.2522E+02  0.5066E+03
      5.468  0.1981E+02  0.5076E+03
      5.522  0.2478E+02  0.5090E+03
      5.577  0.1403E+02  0.5098E+03
      5.631  0.1278E+02  0.5105E+03
      5.686  0.1905E+02  0.5115E+03
      5.741  0.1219E+00  0.5115E+03
      5.795  0.4179E+01  0.5117E+03
      5.850  0.3981E+00  0.5118E+03
      5.905  0.4561E+01  0.5120E+03
      5.959  0.1628E-01  0.5120E+03
      6.014  0.0000E+00  0.5120E+03
      6.068  0.8067E-12  0.5120E+03
      6.123  0.5234E+01  0.5123E+03
      6.178  0.1303E+02  0.5130E+03
      6.232  0.2230E+02  0.5142E+03
      6.287  0.8730E+01  0.5147E+03
      6.341  0.2488E+02  0.5161E+03
      6.396  0.2011E+02  0.5171E+03
      6.451  0.2508E+02  0.5185E+03
      6.505  0.2953E+02  0.5201E+03
      6.560  0.2032E+02  0.5212E+03
      6.615  0.9302E+01  0.5217E+03
      6.669  0.1671E+02  0.5227E+03
      6.724  0.2562E+02  0.5241E+03
      6.778  0.4472E+02  0.5265E+03
      6.833  0.2664E+02  0.5280E+03
      6.888  0.2680E+02  0.5294E+03
      6.942  0.3291E+02  0.5312E+03
      6.997  0.5514E+02  0.5342E+03
      7.051  0.4498E+02  0.5367E+03
      7.106  0.3248E+02  0.5385E+03
      7.161  0.2367E+02  0.5398E+03
      7.215  0.3282E+02  0.5415E+03
      7.270  0.5686E+02  0.5447E+03
      7.325  0.7647E+02  0.5488E+03
      7.379  0.8387E+02  0.5534E+03
      7.434  0.7769E+02  0.5577E+03
      7.488  0.8163E+02  0.5621E+03
      7.543  0.8295E+02  0.5666E+03
      7.598  0.8729E+02  0.5714E+03
      7.652  0.8112E+02  0.5758E+03
      7.707  0.8986E+02  0.5808E+03
      7.762  0.8847E+02  0.5856E+03
      7.816  0.1016E+03  0.5911E+03
      7.871  0.9844E+02  0.5965E+03
      7.925  0.9567E+02  0.6017E+03
      7.980  0.8259E+02  0.6062E+03
      8.035  0.9852E+02  0.6116E+03
      8.089  0.7902E+02  0.6159E+03
      8.144  0.6976E+02  0.6197E+03
      8.198  0.8407E+02  0.6243E+03
      8.253  0.9358E+02  0.6295E+03
      8.308  0.7212E+02  0.6334E+03
      8.362  0.8626E+02  0.6381E+03
      8.417  0.7253E+02  0.6421E+03
      8.472  0.2170E+02  0.6432E+03
      8.526  0.1196E+01  0.6433E+03
      8.581  0.7370E+01  0.6437E+03
      8.635  0.5177E+01  0.6440E+03
      8.690  0.0000E+00  0.6440E+03
      8.745  0.0000E+00  0.6440E+03
      8.799  0.0000E+00  0.6440E+03
      8.854  0.0000E+00  0.6440E+03
      8.908  0.0000E+00  0.6440E+03
      8.963  0.0000E+00  0.6440E+03
      9.018  0.0000E+00  0.6440E+03
      9.072  0.0000E+00  0.6440E+03
      9.127  0.0000E+00  0.6440E+03
      9.182  0.0000E+00  0.6440E+03
      9.236  0.0000E+00  0.6440E+03
      9.291  0.0000E+00  0.6440E+03
      9.345  0.0000E+00  0.6440E+03
