 vasp.5.4.4.18Apr17-6-g9f103f2a35 (build Nov 08 2017 09:05:29) complex          
  
 executed on          Intel_17.33 date 2020.07.18  20:15:57
 running on   32 total cores
 distrk:  each k-point on   32 cores,    1 groups
 distr:  one band on NCORES_PER_BAND=  16 cores,    2 groups


--------------------------------------------------------------------------------------------------------


 INCAR:
 POTCAR:   PAW_PBE Si 05Jan2001                   

 ----------------------------------------------------------------------------- 
|                                                                             |
|           W    W    AA    RRRRR   N    N  II  N    N   GGGG   !!!           |
|           W    W   A  A   R    R  NN   N  II  NN   N  G    G  !!!           |
|           W    W  A    A  R    R  N N  N  II  N N  N  G       !!!           |
|           W WW W  AAAAAA  RRRRR   N  N N  II  N  N N  G  GGG   !            |
|           WW  WW  A    A  R   R   N   NN  II  N   NN  G    G                |
|           W    W  A    A  R    R  N    N  II  N    N   GGGG   !!!           |
|                                                                             |
|      For optimal performance we recommend to set                            |
|        NCORE= 4 - approx SQRT( number of cores)                             |
|      NCORE specifies how many cores store one orbital (NPAR=cpu/NCORE).     |
|      This setting can  greatly improve the performance of VASP for DFT.     |
|      The default,   NCORE=1            might be grossly inefficient         |
|      on modern multi-core architectures or massively parallel machines.     |
|      Do your own testing !!!!                                               |
|      Unfortunately you need to use the default for GW and RPA calculations. |
|      (for HF NCORE is supported but not extensively tested yet)             |
|                                                                             |
 ----------------------------------------------------------------------------- 

 POTCAR:   PAW_PBE Si 05Jan2001                   
   VRHFIN =Si: s2p2                                                             
   LEXCH  = PE                                                                  
   EATOM  =   103.0669 eV,    7.5752 Ry                                         
                                                                                
   TITEL  = PAW_PBE Si 05Jan2001                                                
   LULTRA =        F    use ultrasoft PP ?                                      
   IUNSCR =        1    unscreen: 0-lin 1-nonlin 2-no                           
   RPACOR =    1.500    partial core radius                                     
   POMASS =   28.085; ZVAL   =    4.000    mass and valenz                      
   RCORE  =    1.900    outmost cutoff radius                                   
   RWIGS  =    2.480; RWIGS  =    1.312    wigner-seitz radius (au A)           
   ENMAX  =  245.345; ENMIN  =  184.009 eV                                      
   ICORE  =        2    local potential                                         
   LCOR   =        T    correct aug charges                                     
   LPAW   =        T    paw PP                                                  
   EAUG   =  322.069                                                            
   DEXC   =    -.007                                                            
   RMAX   =    2.944    core radius for proj-oper                               
   RAUG   =    1.300    factor for augmentation sphere                          
   RDEP   =    1.993    radius for radial grids                                 
   QCUT   =   -4.246; QGAM   =    8.493    optimization parameters              
                                                                                
   Description                                                                  
     l     E      TYP  RCUT    TYP  RCUT                                        
     0   .000     23  1.900                                                     
     0   .000     23  1.900                                                     
     1   .000     23  1.900                                                     
     1   .000     23  1.900                                                     
     2   .000      7  1.900                                                     
  local pseudopotential read in
  partial core-charges read in
  atomic valenz-charges read in
  non local Contribution for L=           0  read in
    real space projection operators read in
  non local Contribution for L=           0  read in
    real space projection operators read in
  non local Contribution for L=           1  read in
    real space projection operators read in
  non local Contribution for L=           1  read in
    real space projection operators read in
    PAW grid and wavefunctions read in
 
   number of l-projection  operators is LMAX  =           4
   number of lm-projection operators is LMMAX =           8
 

 ----------------------------------------------------------------------------- 
|                                                                             |
|  ADVICE TO THIS USER RUNNING 'VASP/VAMP'   (HEAR YOUR MASTER'S VOICE ...):  |
|                                                                             |
|      You have a (more or less) 'large supercell' and for larger cells       |
|      it might be more efficient to use real space projection operators      |
|      So try LREAL= Auto  in the INCAR   file.                               |
|      Mind: If you want to do a very accurate calculations keep the          |
|      reciprocal projection scheme          (i.e. LREAL=.FALSE.)             |
|                                                                             |
 ----------------------------------------------------------------------------- 

 PAW_PBE Si 05Jan2001                   :
 energy of atom  1       EATOM= -103.0669
 kinetic energy error for atom=    0.0006 (will be added to EATOM!!)
 
 
 POSCAR: kk                                      
  positions in direct lattice
  No initial velocities read in
 exchange correlation table for  LEXCH =        8
   RHO(1)=    0.500       N(1)  =     2000
   RHO(2)=  100.500       N(2)  =     4000
 


--------------------------------------------------------------------------------------------------------


 ion  position               nearest neighbor table
   1  0.992  0.007  0.999-  65 2.24 113 2.26  68 2.28  77 2.64
   2  0.241  0.000  0.000-  78 2.34  65 2.37 114 2.45  66 2.60
   3  0.497  0.005  0.991- 115 2.23  66 2.31  67 2.44  79 2.48
   4  0.751  0.994  0.000-  80 2.24  68 2.32  67 2.42 116 2.45
   5  0.006  0.244  0.001- 117 2.30  65 2.33  69 2.34  72 2.50
   6  0.243  0.255  0.997-  66 2.25  69 2.28 118 2.33  70 2.49
   7  0.502  0.243  0.009-  67 2.32 119 2.34  70 2.36  71 2.44
   8  0.745  0.249  0.006-  71 2.22  68 2.38  72 2.50 120 2.52
   9  0.996  0.504  0.995-  76 2.31 121 2.38  69 2.41  73 2.59
  10  0.242  0.511  0.999- 122 2.23  73 2.24  74 2.37  70 2.61
  11  0.507  0.499  0.003- 123 2.33  71 2.34  75 2.45  74 2.46
  12  0.758  0.501  0.992-  72 2.29 124 2.34  75 2.47  76 2.52
  13  0.996  0.765  0.997-  77 2.32  80 2.35 125 2.36  73 2.40
  14  0.256  0.754  0.002-  78 2.21  77 2.41  74 2.47 126 2.49
  15  0.506  0.757  0.997-  79 2.24 127 2.29  75 2.45  78 2.55
  16  0.745  0.755  0.997-  79 2.26 128 2.26  76 2.41  80 2.48
  17  0.996  0.008  0.256-  81 2.31  84 2.37  65 2.47  93 2.60
  18  0.260  0.003  0.239-  66 2.33  81 2.40  94 2.40  82 2.50
  19  0.498  0.999  0.261-  83 2.27  82 2.30  95 2.35  67 2.43
  20  0.748  0.001  0.248-  83 2.26  84 2.29  96 2.34  68 2.42
  21  0.995  0.267  0.244-  85 2.28  69 2.33  88 2.45  81 2.48
  22  0.251  0.237  0.251-  82 2.15  70 2.27  85 2.37  86 2.61
  23  0.500  0.258  0.252-  87 2.25  86 2.27  71 2.39  83 2.52
  24  0.751  0.249  0.246-  72 2.25  87 2.30  88 2.31  84 2.40
  25  0.004  0.501  0.254-  89 2.29  92 2.38  73 2.46  85 2.54
  26  0.246  0.508  0.234-  74 2.11  89 2.35  86 2.49  90 2.66
  27  0.498  0.499  0.256-  90 2.24  87 2.28  75 2.29  91 2.29
  28  0.754  0.485  0.256-  88 2.17  76 2.34  92 2.41  91 2.51
  29  0.998  0.747  0.256-  96 2.24  93 2.26  89 2.28  77 2.29
  30  0.256  0.737  0.256-  90 2.25  93 2.33  78 2.39  94 2.48
  31  0.509  0.751  0.247-  91 2.31  79 2.34  95 2.41  94 2.43
  32  0.746  0.744  0.252-  92 2.27  95 2.34  80 2.36  96 2.57
  33  0.008  0.000  0.498- 109 2.26 100 2.37  97 2.39  81 2.49
  34  0.246  0.008  0.500-  97 2.18  82 2.33  98 2.35 110 2.48
  35  0.495  0.011  0.508-  99 2.18  98 2.24  83 2.52 111 2.73
  36  0.736  0.008  0.511-  99 2.23 100 2.30 112 2.48  84 2.55
  37  0.998  0.259  0.504- 101 2.26  85 2.35 104 2.37  97 2.62
  38  0.237  0.263  0.485-  86 2.20 101 2.24  98 2.45 102 2.59
  39  0.501  0.242  0.504-  99 2.18 103 2.33 102 2.36  87 2.60
  40  0.747  0.254  0.506- 104 2.33 103 2.38 100 2.44  88 2.45
  41  0.999  0.514  0.499- 105 2.31  89 2.35 108 2.41 101 2.51
  42  0.241  0.489  0.517- 105 2.30 102 2.30 106 2.40  90 2.53
  43  0.504  0.501  0.506- 107 2.25 103 2.35 106 2.40  91 2.50
  44  0.749  0.504  0.497- 108 2.26 104 2.35 107 2.35  92 2.44
  45  0.992  0.750  0.507- 112 2.25 105 2.32 109 2.47  93 2.56
  46  0.258  0.730  0.500- 106 2.19  94 2.35 109 2.47 110 2.50
  47  0.507  0.746  0.495-  95 2.18 107 2.23 111 2.26 110 2.41
  48  0.743  0.761  0.491- 111 2.29  96 2.32 112 2.46 108 2.78
  49  0.008  0.989  0.743-  97 2.20 125 2.30 116 2.40 113 2.68
  50  0.264  1.000  0.739- 114 2.33  98 2.37 126 2.38 113 2.49
  51  0.501  0.008  0.742-  99 2.34 114 2.34 115 2.35 127 2.51
  52  0.751  0.998  0.749- 128 2.28 115 2.35 116 2.39 100 2.49
  53  0.009  0.246  0.746- 120 2.29 101 2.31 113 2.33 117 2.46
  54  0.248  0.249  0.748- 102 2.29 114 2.32 118 2.38 117 2.42
  55  0.494  0.247  0.768- 119 2.15 118 2.35 115 2.42 103 2.71
  56  0.761  0.252  0.750- 120 2.28 104 2.36 116 2.39 119 2.53
  57  0.989  0.500  0.751- 124 2.29 105 2.30 117 2.31 121 2.56
  58  0.252  0.496  0.749- 106 2.31 118 2.34 121 2.35 122 2.52
  59  0.512  0.493  0.754- 123 2.27 107 2.53 119 2.54 122 2.59
  60  0.757  0.497  0.747- 108 2.20 124 2.28 120 2.37 123 2.46
  61  0.000  0.752  0.747- 125 2.28 121 2.30 109 2.41 128 2.41
  62  0.261  0.746  0.741- 122 2.28 110 2.31 126 2.34 125 2.52
  63  0.506  0.752  0.744- 111 2.25 126 2.41 127 2.42 123 2.45
  64  0.742  0.748  0.750- 127 2.21 124 2.33 112 2.36 128 2.58
  65  0.053  0.060  0.061-   1 2.24   5 2.33   2 2.37  17 2.47
  66  0.315  0.077  0.055-   6 2.25   3 2.31  18 2.33   2 2.60
  67  0.559  0.059  0.069-   7 2.32   4 2.42  19 2.43   3 2.44
  68  0.811  0.061  0.056-   1 2.28   4 2.32   8 2.38  20 2.42
  69  0.063  0.313  0.060-   6 2.28  21 2.33   5 2.34   9 2.41
  70  0.315  0.304  0.072-  22 2.27   7 2.36   6 2.49  10 2.61
  71  0.570  0.314  0.063-   8 2.22  11 2.34  23 2.39   7 2.44
  72  0.809  0.321  0.069-  24 2.25  12 2.29   8 2.50   5 2.50
  73  0.064  0.575  0.060-  10 2.24  13 2.40  25 2.46   9 2.59
  74  0.313  0.559  0.067-  26 2.11  10 2.37  11 2.46  14 2.47
  75  0.564  0.564  0.075-  27 2.29  11 2.45  15 2.45  12 2.47
  76  0.814  0.565  0.072-   9 2.31  28 2.34  16 2.41  12 2.52
  77  0.066  0.798  0.074-  29 2.29  13 2.32  14 2.41   1 2.64
  78  0.304  0.815  0.068-  14 2.21   2 2.34  30 2.39  15 2.55
  79  0.567  0.809  0.062-  15 2.24  16 2.26  31 2.34   3 2.48
  80  0.810  0.817  0.066-   4 2.24  13 2.35  32 2.36  16 2.48
  81  0.069  0.071  0.301-  17 2.31  18 2.40  21 2.48  33 2.49
  82  0.316  0.067  0.316-  22 2.15  19 2.30  34 2.33  18 2.50
  83  0.569  0.059  0.309-  20 2.26  19 2.27  35 2.52  23 2.52
  84  0.809  0.058  0.310-  20 2.29  17 2.37  24 2.40  36 2.55
  85  0.064  0.300  0.320-  21 2.28  37 2.35  22 2.37  25 2.54
  86  0.320  0.313  0.313-  38 2.20  23 2.27  26 2.49  22 2.61
  87  0.570  0.319  0.298-  23 2.25  27 2.28  24 2.30  39 2.60
  88  0.802  0.313  0.313-  28 2.17  24 2.31  21 2.45  40 2.45
  89  0.060  0.566  0.314-  29 2.28  25 2.29  41 2.35  26 2.35
  90  0.321  0.559  0.318-  27 2.24  30 2.25  42 2.53  26 2.66
  91  0.557  0.569  0.308-  27 2.29  31 2.31  43 2.50  28 2.51
  92  0.817  0.565  0.304-  32 2.27  25 2.38  28 2.41  44 2.44
  93  0.072  0.803  0.304-  29 2.26  30 2.33  45 2.56  17 2.60
  94  0.316  0.813  0.316-  46 2.35  18 2.40  31 2.43  30 2.48
  95  0.562  0.813  0.323-  47 2.18  32 2.34  19 2.35  31 2.41
  96  0.822  0.816  0.308-  29 2.24  48 2.32  20 2.34  32 2.57
  97  0.074  0.051  0.569-  34 2.18  49 2.20  33 2.39  37 2.62
  98  0.318  0.070  0.551-  35 2.24  34 2.35  50 2.37  38 2.45
  99  0.560  0.069  0.557-  39 2.18  35 2.18  36 2.23  51 2.34
 100  0.821  0.062  0.552-  36 2.30  33 2.37  40 2.44  52 2.49
 101  0.061  0.316  0.563-  38 2.24  37 2.26  53 2.31  41 2.51
 102  0.315  0.308  0.566-  54 2.29  42 2.30  39 2.36  38 2.59
 103  0.560  0.316  0.554-  39 2.33  43 2.35  40 2.38  55 2.71
 104  0.810  0.318  0.564-  40 2.33  44 2.35  56 2.36  37 2.37
 105  0.060  0.567  0.569-  42 2.30  57 2.30  41 2.31  45 2.32
 106  0.314  0.556  0.567-  46 2.19  58 2.31  43 2.40  42 2.40
 107  0.563  0.570  0.555-  47 2.23  43 2.25  44 2.35  59 2.53
 108  0.812  0.541  0.573-  60 2.20  44 2.26  41 2.41  48 2.78
 109  0.065  0.822  0.556-  33 2.26  61 2.41  45 2.47  46 2.47
 110  0.317  0.812  0.557-  62 2.31  47 2.41  34 2.48  46 2.50
 111  0.564  0.795  0.567-  63 2.25  47 2.26  48 2.29  35 2.73
 112  0.814  0.812  0.563-  45 2.25  64 2.36  48 2.46  36 2.48
 113  0.068  0.063  0.821-   1 2.26  53 2.33  50 2.49  49 2.68
 114  0.315  0.065  0.806-  54 2.32  50 2.33  51 2.34   2 2.45
 115  0.565  0.056  0.815-   3 2.23  51 2.35  52 2.35  55 2.42
 116  0.818  0.063  0.807-  52 2.39  56 2.39  49 2.40   4 2.45
 117  0.057  0.318  0.820-   5 2.30  57 2.31  54 2.42  53 2.46
 118  0.310  0.311  0.812-   6 2.33  58 2.34  55 2.35  54 2.38
 119  0.562  0.293  0.824-  55 2.15   7 2.34  56 2.53  59 2.54
 120  0.827  0.309  0.807-  56 2.28  53 2.29  60 2.37   8 2.52
 121  0.066  0.570  0.807-  61 2.30  58 2.35   9 2.38  57 2.56
 122  0.306  0.567  0.822-  10 2.23  62 2.28  58 2.52  59 2.59
 123  0.562  0.558  0.818-  59 2.27  11 2.33  63 2.45  60 2.46
 124  0.808  0.564  0.808-  60 2.28  57 2.29  64 2.33  12 2.34
 125  0.061  0.807  0.811-  61 2.28  49 2.30  13 2.36  62 2.52
 126  0.316  0.812  0.805-  62 2.34  50 2.38  63 2.41  14 2.49
 127  0.567  0.810  0.816-  64 2.21  15 2.29  63 2.42  51 2.51
 128  0.810  0.818  0.818-  16 2.26  52 2.28  61 2.41  64 2.58
 
  LATTYP: Found a face centered cubic cell.
 ALAT       =    21.8746673814
  
  Lattice vectors:
  
 A1 = (   0.0000000000,  10.9373336907,  10.9373336907)
 A2 = (  10.9373336907,   0.0000000000,  10.9373336907)
 A3 = (  10.9373336907,  10.9373336907,   0.0000000000)


Analysis of symmetry for initial positions (statically):
=====================================================================
 Subroutine PRICEL returns:
 Original cell was already a primitive cell.
 

 Routine SETGRP: Setting up the symmetry group for a 
 face centered cubic supercell.


 Subroutine GETGRP returns: Found  1 space group operations
 (whereof  1 operations were pure point group operations)
 out of a pool of 48 trial point group operations.


The static configuration has the point symmetry C_1 .


Analysis of symmetry for dynamics (positions and initial velocities):
=====================================================================
 Subroutine PRICEL returns:
 Original cell was already a primitive cell.
 

 Routine SETGRP: Setting up the symmetry group for a 
 face centered cubic supercell.


 Subroutine GETGRP returns: Found  1 space group operations
 (whereof  1 operations were pure point group operations)
 out of a pool of 48 trial point group operations.


The dynamic configuration has the point symmetry C_1 .


 Subroutine INISYM returns: Found  1 space group operations
 (whereof  1 operations are pure point group operations),
 and found     1 'primitive' translations

 
 
 KPOINTS: KPOINTS File, automatically generated by

Automatic generation of k-mesh.
Space group operators:
 irot       det(A)        alpha          n_x          n_y          n_z        tau_x        tau_y        tau_z
    1     1.000000     0.000001     1.000000     0.000000     0.000000     0.000000     0.000000     0.000000
 
 Subroutine IBZKPT returns following result:
 ===========================================
 
 Found      8 irreducible k-points:
 
 Following reciprocal coordinates:
            Coordinates               Weight
  0.000000  0.000000  0.000000      1.000000
  0.500000  0.000000  0.000000      1.000000
  0.000000  0.500000  0.000000      1.000000
  0.500000  0.500000  0.000000      1.000000
  0.000000  0.000000  0.500000      1.000000
  0.500000  0.000000  0.500000      1.000000
  0.000000  0.500000  0.500000      1.000000
  0.500000  0.500000  0.500000      1.000000
 
 Following cartesian coordinates:
            Coordinates               Weight
  0.000000  0.000000  0.000000      1.000000
 -0.022857  0.022857  0.022857      1.000000
  0.022857 -0.022857  0.022857      1.000000
  0.000000  0.000000  0.045715      1.000000
  0.022857  0.022857 -0.022857      1.000000
  0.000000  0.045715  0.000000      1.000000
  0.045715  0.000000  0.000000      1.000000
  0.022857  0.022857  0.022857      1.000000
 


--------------------------------------------------------------------------------------------------------




 Dimension of arrays:
   k-points           NKPTS =      8   k-points in BZ     NKDIM =      8   number of bands    NBANDS=    322
   number of dos      NEDOS =    301   number of ions     NIONS =    128
   non local maximal  LDIM  =      4   non local SUM 2l+1 LMDIM =      8
   total plane-waves  NPLWV = ******
   max r-space proj   IRMAX =      1   max aug-charges    IRDMAX= 176811
   dimension x,y,z NGX =   120 NGY =  120 NGZ =  120
   dimension x,y,z NGXF=   240 NGYF=  240 NGZF=  240
   support grid    NGXF=   480 NGYF=  480 NGZF=  480
   ions per type =             128
   NGX,Y,Z   is equivalent  to a cutoff of  12.90, 12.90, 12.90 a.u.
   NGXF,Y,Z  is equivalent  to a cutoff of  25.80, 25.80, 25.80 a.u.

 SYSTEM =  potpaw_PBE@./ARUN.APL1ZEROSTATE         
 POSCAR =  kk                                      

 Startparameter for this run:
   NWRITE =      2    write-flag & timer
   PREC   = accura    normal or accurate (medium, high low for compatibility)
   ISTART =      0    job   : 0-new  1-cont  2-samecut
   ICHARG =      2    charge: 1-file 2-atom 10-const
   ISPIN  =      1    spin polarized calculation?
   LNONCOLLINEAR =      F non collinear calculations
   LSORBIT =      F    spin-orbit coupling
   INIWAV =      1    electr: 0-lowe 1-rand  2-diag
   LASPH  =      F    aspherical Exc in radial PAW
   METAGGA=      F    non-selfconsistent MetaGGA calc.

 Electronic Relaxation 1
   ENCUT  =  500.0 eV  36.75 Ry    6.06 a.u.  28.20 28.20 28.20*2*pi/ulx,y,z
   ENINI  =  500.0     initial cutoff
   ENAUG  =  322.1 eV  augmentation charge cutoff
   NELM   =    120;   NELMIN=  4; NELMDL= -5     # of ELM steps 
   EDIFF  = 0.1E-07   stopping-criterion for ELM
   LREAL  =      F    real-space projection
   NLSPLINE    = F    spline interpolate recip. space projectors
   LCOMPAT=      F    compatible to vasp.4.4
   GGA_COMPAT  = T    GGA compatible to vasp.4.4-vasp.4.6
   LMAXPAW     = -100 max onsite density
   LMAXMIX     =    2 max onsite mixed and CHGCAR
   VOSKOWN=      0    Vosko Wilk Nusair interpolation
   ROPT   =    0.00000
 Ionic relaxation
   EDIFFG = 0.1E-06   stopping-criterion for IOM
   NSW    =      0    number of steps for IOM
   NBLOCK =      1;   KBLOCK =      1    inner block; outer block 
   IBRION =     -1    ionic relax: 0-MD 1-quasi-New 2-CG
   NFREE  =      0    steps in history (QN), initial steepest desc. (CG)
   ISIF   =      2    stress and relaxation
   IWAVPR =     10    prediction:  0-non 1-charg 2-wave 3-comb
   ISYM   =      2    0-nonsym 1-usesym 2-fastsym
   LCORR  =      T    Harris-Foulkes like correction to forces

   POTIM  = 0.5000    time-step for ionic-motion
   TEIN   =    0.0    initial temperature
   TEBEG  =    0.0;   TEEND  =   0.0 temperature during run
   SMASS  =  -3.00    Nose mass-parameter (am)
   estimated Nose-frequenzy (Omega)   =  0.10E-29 period in steps =****** mass=  -0.547E-26a.u.
   SCALEE = 1.0000    scale energy and forces
   NPACO  =    256;   APACO  = 16.0  distance and # of slots for P.C.
   PSTRESS=    0.0 pullay stress

  Mass of Ions in am
   POMASS =  28.09
  Ionic Valenz
   ZVAL   =   4.00
  Atomic Wigner-Seitz radii
   RWIGS  =  -1.00
  virtual crystal weights 
   VCA    =   1.00
   NELECT =     512.0000    total number of electrons
   NUPDOWN=      -1.0000    fix difference up-down

 DOS related values:
   EMIN   =  10.00;   EMAX   =-10.00  energy-range for DOS
   EFERMI =   0.00
   ISMEAR =     0;   SIGMA  =   0.01  broadening in eV -4-tet -1-fermi 0-gaus

 Electronic relaxation 2 (details)
   IALGO  =     38    algorithm
   LDIAG  =      T    sub-space diagonalisation (order eigenvalues)
   LSUBROT=      F    optimize rotation matrix (better conditioning)
   TURBO    =      0    0=normal 1=particle mesh
   IRESTART =      0    0=no restart 2=restart with 2 vectors
   NREBOOT  =      0    no. of reboots
   NMIN     =      0    reboot dimension
   EREF     =   0.00    reference energy to select bands
   IMIX   =      4    mixing-type and parameters
     AMIX     =   0.40;   BMIX     =  1.00
     AMIX_MAG =   1.60;   BMIX_MAG =  1.00
     AMIN     =   0.10
     WC   =   100.;   INIMIX=   1;  MIXPRE=   1;  MAXMIX= -45

 Intra band minimization:
   WEIMIN = 0.0000     energy-eigenvalue tresh-hold
   EBREAK =  0.78E-11  absolut break condition
   DEPER  =   0.30     relativ break condition  

   TIME   =   0.40     timestep for ELM

  volume/ion in A,a.u.               =      20.44       137.96
  Fermi-wavevector in a.u.,A,eV,Ry     =   0.950408  1.796010 12.289804  0.903275
  Thomas-Fermi vector in A             =   2.078782
 
 Write flags
   LWAVE        =      F    write WAVECAR
   LDOWNSAMPLE  =      F    k-point downsampling of WAVECAR
   LCHARG       =      F    write CHGCAR
   LVTOT        =      F    write LOCPOT, total local potential
   LVHAR        =      F    write LOCPOT, Hartree potential only
   LELF         =      F    write electronic localiz. function (ELF)
   LORBIT       =      0    0 simple, 1 ext, 2 COOP (PROOUT), +10 PAW based schemes


 Dipole corrections
   LMONO  =      F    monopole corrections only (constant potential shift)
   LDIPOL =      F    correct potential (dipole corrections)
   IDIPOL =      0    1-x, 2-y, 3-z, 4-all directions 
   EPSILON=  1.0000000 bulk dielectric constant

 Exchange correlation treatment:
   GGA     =    --    GGA type
   LEXCH   =     8    internal setting for exchange type
   VOSKOWN=      0    Vosko Wilk Nusair interpolation
   LHFCALC =     F    Hartree Fock is set to
   LHFONE  =     F    Hartree Fock one center treatment
   AEXX    =    0.0000 exact exchange contribution

 Linear response parameters
   LEPSILON=     F    determine dielectric tensor
   LRPA    =     F    only Hartree local field effects (RPA)
   LNABLA  =     F    use nabla operator in PAW spheres
   LVEL    =     F    velocity operator in full k-point grid
   LINTERFAST=   F  fast interpolation
   KINTER  =     0    interpolate to denser k-point grid
   CSHIFT  =0.1000    complex shift for real part using Kramers Kronig
   OMEGAMAX=  -1.0    maximum frequency
   DEG_THRESHOLD= 0.2000000E-02 threshold for treating states as degnerate
   RTIME   =   -0.100 relaxation time in fs
  (WPLASMAI=    0.000 imaginary part of plasma frequency in eV, 0.658/RTIME)
   DFIELD  = 0.0000000 0.0000000 0.0000000 field for delta impulse in time
 
 Orbital magnetization related:
   ORBITALMAG=     F  switch on orbital magnetization
   LCHIMAG   =     F  perturbation theory with respect to B field
   DQ        =  0.001000  dq finite difference perturbation B field
   LLRAUG    =     F  two centre corrections for induced B field



--------------------------------------------------------------------------------------------------------


 Static calculation
 charge density and potential will be updated during run
 non-spin polarized calculation
 Variant of blocked Davidson
 Davidson routine will perform the subspace rotation
 perform sub-space diagonalisation
    after iterative eigenvector-optimisation
 modified Broyden-mixing scheme, WC =      100.0
 initial mixing is a Kerker type mixing with AMIX =  0.4000 and BMIX =      1.0000
 Hartree-type preconditioning will be used
 using additional bands           66
 reciprocal scheme for non local part
 use partial core corrections
 calculate Harris-corrections to forces 
   (improved forces if not selfconsistent)
 use gradient corrections 
 use of overlap-Matrix (Vanderbilt PP)
 Gauss-broadening in eV      SIGMA  =   0.01


--------------------------------------------------------------------------------------------------------


  energy-cutoff  :      500.00
  volume of cell :     2616.76
      direct lattice vectors                 reciprocal lattice vectors
     0.000000000 10.937333691 10.937333691    -0.045714981  0.045714981  0.045714981
    10.937333691  0.000000000 10.937333691     0.045714981 -0.045714981  0.045714981
    10.937333691 10.937333691  0.000000000     0.045714981  0.045714981 -0.045714981

  length of vectors
    15.467725642 15.467725642 15.467725642     0.079180669  0.079180669  0.079180669


 
 k-points in units of 2pi/SCALE and weight: KPOINTS File, automatically generated by
   0.00000000  0.00000000  0.00000000       0.125
  -0.02285749  0.02285749  0.02285749       0.125
   0.02285749 -0.02285749  0.02285749       0.125
   0.00000000  0.00000000  0.04571498       0.125
   0.02285749  0.02285749 -0.02285749       0.125
   0.00000000  0.04571498  0.00000000       0.125
   0.04571498  0.00000000  0.00000000       0.125
   0.02285749  0.02285749  0.02285749       0.125
 
 k-points in reciprocal lattice and weights: KPOINTS File, automatically generated by
   0.00000000  0.00000000  0.00000000       0.125
   0.50000000  0.00000000  0.00000000       0.125
   0.00000000  0.50000000  0.00000000       0.125
   0.50000000  0.50000000  0.00000000       0.125
   0.00000000  0.00000000  0.50000000       0.125
   0.50000000  0.00000000  0.50000000       0.125
   0.00000000  0.50000000  0.50000000       0.125
   0.50000000  0.50000000  0.50000000       0.125
 
 position of ions in fractional coordinates (direct lattice) 
   0.99203560  0.00665368  0.99882961
   0.24122058  0.00020482  0.00021272
   0.49743484  0.00546948  0.99091010
   0.75079719  0.99371222  0.00044576
   0.00622020  0.24389966  0.00131559
   0.24337948  0.25473165  0.99696510
   0.50225060  0.24256432  0.00890392
   0.74548094  0.24898094  0.00619697
   0.99578455  0.50389125  0.99504464
   0.24152749  0.51073217  0.99906073
   0.50719083  0.49942231  0.00261743
   0.75838932  0.50137912  0.99222669
   0.99593426  0.76501480  0.99692997
   0.25572823  0.75444773  0.00185201
   0.50576111  0.75744446  0.99732373
   0.74508416  0.75520265  0.99658489
   0.99593023  0.00750063  0.25567563
   0.25950039  0.00265391  0.23892294
   0.49769216  0.99892457  0.26115636
   0.74818435  0.00069859  0.24770789
   0.99502526  0.26677931  0.24436223
   0.25131638  0.23687550  0.25086322
   0.49953548  0.25819596  0.25159487
   0.75107366  0.24870232  0.24621384
   0.00447819  0.50115838  0.25399800
   0.24565177  0.50845086  0.23367495
   0.49821840  0.49858778  0.25562566
   0.75440813  0.48474198  0.25589930
   0.99842494  0.74669420  0.25567681
   0.25606084  0.73709010  0.25602067
   0.50868336  0.75076111  0.24716100
   0.74620624  0.74374782  0.25231559
   0.00778755  0.00025879  0.49775710
   0.24609784  0.00795618  0.50012169
   0.49477890  0.01130079  0.50762560
   0.73577628  0.00793857  0.51110311
   0.99772596  0.25888122  0.50435087
   0.23700739  0.26349739  0.48502031
   0.50145925  0.24159535  0.50352528
   0.74742433  0.25446939  0.50637110
   0.99947350  0.51441692  0.49940444
   0.24129579  0.48924016  0.51726631
   0.50368067  0.50117188  0.50552962
   0.74930764  0.50395852  0.49680397
   0.99177746  0.74995309  0.50661027
   0.25815392  0.72989547  0.50034361
   0.50731439  0.74644620  0.49521743
   0.74339439  0.76095670  0.49064202
   0.00750313  0.98926657  0.74287616
   0.26434353  0.99973741  0.73916017
   0.50060499  0.00847126  0.74175237
   0.75120588  0.99805333  0.74912611
   0.00855719  0.24600534  0.74573364
   0.24787165  0.24863676  0.74774352
   0.49436097  0.24718312  0.76826505
   0.76111047  0.25213575  0.75028500
   0.98949149  0.49993057  0.75071810
   0.25152544  0.49565012  0.74929221
   0.51152237  0.49286678  0.75394101
   0.75675422  0.49696802  0.74671067
   0.00042547  0.75211363  0.74673124
   0.26065988  0.74623981  0.74052867
   0.50617069  0.75154868  0.74443874
   0.74203964  0.74837291  0.75009437
   0.05338603  0.06047605  0.06118435
   0.31497807  0.07700707  0.05511913
   0.55891144  0.05862660  0.06893404
   0.81139168  0.06133849  0.05578901
   0.06315542  0.31300463  0.06048236
   0.31524504  0.30403460  0.07193244
   0.56997731  0.31416075  0.06269459
   0.80883852  0.32062248  0.06881359
   0.06440624  0.57530262  0.05980534
   0.31270719  0.55880362  0.06678788
   0.56385204  0.56402881  0.07480677
   0.81378329  0.56528006  0.07174584
   0.06635044  0.79816058  0.07434166
   0.30416039  0.81496132  0.06772542
   0.56657794  0.80932433  0.06173768
   0.81011838  0.81658743  0.06618848
   0.06938779  0.07066641  0.30096417
   0.31562766  0.06725663  0.31565751
   0.56934263  0.05856922  0.30911329
   0.80926094  0.05848044  0.31021418
   0.06414650  0.30018893  0.31990480
   0.31962529  0.31253132  0.31308160
   0.56962935  0.31942713  0.29788174
   0.80214866  0.31337580  0.31306862
   0.06039885  0.56624703  0.31397372
   0.32071745  0.55905092  0.31775612
   0.55654899  0.56871374  0.30842573
   0.81678164  0.56462589  0.30358673
   0.07221727  0.80252585  0.30433463
   0.31631619  0.81292816  0.31609197
   0.56168970  0.81285443  0.32261867
   0.82177375  0.81554957  0.30792327
   0.07440492  0.05145113  0.56892837
   0.31813054  0.07047544  0.55141183
   0.56017237  0.06914808  0.55668594
   0.82076505  0.06189191  0.55203690
   0.06126069  0.31590083  0.56296993
   0.31496691  0.30758262  0.56630461
   0.56011003  0.31643856  0.55374803
   0.81039922  0.31818418  0.56383894
   0.06028178  0.56653505  0.56925929
   0.31435500  0.55639437  0.56659690
   0.56325961  0.57021108  0.55457660
   0.81237246  0.54117029  0.57344040
   0.06477283  0.82170107  0.55639330
   0.31678858  0.81160125  0.55744546
   0.56433298  0.79539775  0.56725133
   0.81394517  0.81194653  0.56329097
   0.06795834  0.06252602  0.82075158
   0.31540006  0.06533714  0.80642368
   0.56504097  0.05626580  0.81461488
   0.81784083  0.06305537  0.80687527
   0.05673232  0.31771862  0.81986429
   0.30962708  0.31057247  0.81222290
   0.56247363  0.29287786  0.82394951
   0.82712505  0.30941373  0.80721916
   0.06590203  0.56993056  0.80700812
   0.30643858  0.56690635  0.82240597
   0.56180817  0.55770934  0.81827564
   0.80835601  0.56432384  0.80764314
   0.06112308  0.80710734  0.81112684
   0.31571155  0.81184202  0.80502603
   0.56748231  0.81007242  0.81591603
   0.80959882  0.81752198  0.81750309
 
 position of ions in cartesian coordinates  (Angst):
  10.99730627 21.77475720 10.92299794
   0.00456680  2.64063657  2.64055012
  10.89773598 16.27852530  5.50043242
  10.87343756  8.21659485 19.08028160
   2.68200094  0.08242147  2.73564435
  13.69022506 13.56606259  5.44800772
   2.75039209  5.59066763  8.14628937
   2.79096591  8.22135211 10.87676141
  16.39436206 21.77436318 16.40245468
  16.51310872 13.56872731  8.22771483
   5.49097619  5.57594307 11.00966385
  16.33606518 19.14707149 13.77850780
  19.27097795 21.79662117 19.26008756
   8.27190256  2.81724099 11.04863150
  19.19248525 16.43974050 13.81610084
  19.15988489 19.04921550 16.40913745
   2.87844650 13.68923085 10.97485807
   2.64220662  5.45142223  2.86726905
  13.78192559  8.29977943 16.36899660
   2.71690449 10.89240567  8.19078255
   5.59052557 13.55559454 13.80077766
   5.33456106  5.49250576  5.33951743
   5.57575236  8.21536331  8.28756159
   5.41306321 10.90766615 10.93488356
   8.25939738  2.82704040  5.53031595
   8.11687763  5.24255625  8.24787205
   8.24908402  8.24504403 10.90240177
   8.10064085 11.05006948 13.55299829
  10.96326616 13.71652925 19.08695032
  10.86198395  5.60080639 10.86242325
  10.91460709  8.26692191 13.77496442
  10.89427798 10.92116650 16.29612477
   5.44696596  5.52931051  0.08800554
   5.55701718  8.16165197  2.77867358
   5.67567105 10.96363245  5.53516244
   5.67693207 13.63753605  8.13425749
   8.34772398 16.42871548 13.74393197
   8.18678786  7.89705791  5.47418783
   8.14963292 10.99185119  8.12703611
   8.32156633 13.71317905 10.95804591
  11.08850252 16.39372821 16.55792479
  11.00849708  8.29664686  7.99011547
  11.01063023 11.03806976 10.99040765
  10.94567333 13.62913851 13.70739023
  13.74345282 16.38836659 19.04988818
  13.45553538  8.29594057 10.80662587
  13.58048950 10.96502506 13.71279795
  13.68915286 13.49706794 16.45358986
  18.94502297  8.20714867 10.90200281
  19.01890306 10.97565475 13.82567502
   8.20544611 13.58807702  5.56793682
  19.10948458 16.40963163 19.13223176
  10.84698025  8.24993056  2.78423539
  10.89774363 10.88937535  5.43047822
  11.10629546 13.80976208  8.11051520
  10.96381024 16.53063666 11.08221202
  13.67876174 19.03325293 16.29030605
  13.61634973 10.94627661  8.17210847
  13.63675285 13.84079521 10.98533929
  13.60252889 16.44389723 13.71237856
  16.39336654  8.17190234  8.23077131
  16.26128300 10.95033319 11.01279792
  16.36211352 13.67833266 13.75609644
  16.38923670 16.31996758 16.30113936
   1.33064048  1.25309455  1.24534764
   1.44510831  4.04787657  4.28727229
   1.39517331  6.86695556  6.75421959
   1.28106251  9.48464454  9.54534101
   4.08495182  1.35226772  4.11418799
   4.11207702  4.23468932  6.77326810
   4.12179251  6.91974368  9.67011297
   4.25939223  9.59917398 12.35329177
   6.94638771  1.35854351  6.99670922
   6.84230299  4.15066416  9.53200458
   6.98715789  6.98522448 12.33600917
   6.96736490  9.68532757 15.08327603
   9.54284815  1.53879650  9.45544551
   9.65423937  4.06743919 12.24020762
   9.52709585  6.87209756 15.04870216
   9.65521473  9.58446056 17.79182429
   4.06464765  4.05066304  1.53181955
   4.18805972  6.90457656  4.18773324
   4.02146627  9.60796550  6.86768133
   4.03253609 12.24407299  9.49077709
   6.78217195  4.20049719  3.98485814
   6.84253721  6.92012631  6.91410770
   6.75171317  9.48825835  9.72390747
   6.85163174 12.19750360 12.20086335
   9.62726802  4.09463764  6.85383506
   9.58993115  6.98319849  9.62232019
   9.59356708  9.46051713 12.30737393
   9.49593111 12.25384270 15.10891506
  12.10610244  4.11847387  9.56735742
  12.34846995  6.91685914 12.35092233
  12.41904817  9.67197568 15.03384784
  12.28779732 12.35587331 17.90795152
   6.78529761  7.03635083  1.37652955
   6.80178867  9.51047515  4.25031337
   6.84495554 12.21545203  6.88308775
   6.71474418 15.01479295  9.65391365
   9.61250282  6.82741868  4.12514143
   9.55799620  9.63876059  6.80903189
   9.51752115 12.18263729  9.58710445
   9.64698124 15.03050132 12.34369321
  12.42256173  6.88550084  6.85570488
  12.28253026  9.63526492  9.52367645
  12.30217821 12.22614760 12.39714717
  12.19086899 15.15709764 14.80414867
  15.07267796  6.79390121  9.69566083
  14.97372071  9.56178942 12.34157621
  14.90374770 12.37651527 14.87182872
  15.04143151 15.06329126 17.78292007
   9.66070190  9.72011695  1.42715096
   9.53473900 12.26976050  4.16424982
   9.52511255 15.08975638  6.79543940
   9.51472174 17.77006212  9.63465571
  12.44212386  9.58762962  4.09549480
  12.28038769 12.27004761  6.78332942
  12.21511365 15.16377250  9.35526465
  12.21298656 17.87536800 12.43070384
  15.06003781  9.54730962  6.95431319
  15.19537244 12.34654947  9.55206494
  15.04960695 15.09443722 12.24453663
  15.00566070 17.67472196 15.01345758
  17.69916720  9.54008846  9.49612583
  17.68422547 12.25788091 12.33242965
  17.78397832 15.13068929 15.06677582
  17.88281478 17.79615647 17.79636313
 


--------------------------------------------------------------------------------------------------------


 k-point  1 :   0.0000 0.0000 0.0000  plane waves:   66299
 k-point  2 :   0.5000 0.0000 0.0000  plane waves:   66394
 k-point  3 :   0.0000 0.5000 0.0000  plane waves:   66394
 k-point  4 :   0.5000 0.5000 0.0000  plane waves:   66552
 k-point  5 :   0.0000 0.0000 0.5000  plane waves:   66394
 k-point  6 :   0.5000 0.0000 0.5000  plane waves:   66552
 k-point  7 :   0.0000 0.5000 0.5000  plane waves:   66552
 k-point  8 :   0.5000 0.5000 0.5000  plane waves:   66394

 maximum and minimum number of plane-waves per node :      4207     4110

 maximum number of plane-waves:     66552
 maximum index in each direction: 
   IXMAX=   28   IYMAX=   28   IZMAX=   28
   IXMIN=  -28   IYMIN=  -28   IZMIN=  -28


 parallel 3D FFT for wavefunctions:
    minimum data exchange during FFTs selected (reduces bandwidth)
 parallel 3D FFT for charge:
    minimum data exchange during FFTs selected (reduces bandwidth)


 total amount of memory used by VASP MPI-rank0   221701. kBytes
=======================================================================

   base      :      30000. kBytes
   nonl-proj :      10690. kBytes
   fftplans  :      66746. kBytes
   grid      :      26864. kBytes
   one-center:         24. kBytes
   wavefun   :      87377. kBytes
 
     INWAV:  cpu time    0.0000: real time    0.0003
 Broyden mixing: mesh for mixing (old mesh)
   NGX = 57   NGY = 57   NGZ = 57
  (NGX  =240   NGY  =240   NGZ  =240)
  gives a total of 185193 points

 initial charge density was supplied:
 charge density of overlapping atoms calculated
 number of electron     512.0000000 magnetization 
 keeping initial charge density in first step


--------------------------------------------------------------------------------------------------------


 Maximum index for augmentation-charges         5608 (set IRDMAX)


--------------------------------------------------------------------------------------------------------


 First call to EWALD:  gamma=   0.129
 Maximum number of real-space cells 3x 3x 3
 Maximum number of reciprocal cells 3x 3x 3

    FEWALD:  cpu time    0.0059: real time    0.0059


--------------------------------------- Iteration      1(   1)  ---------------------------------------


    POTLOK:  cpu time    0.4895: real time    0.4982
    SETDIJ:  cpu time    0.5046: real time    0.5046
     EDDAV:  cpu time   70.0074: real time   70.0166
       DOS:  cpu time    0.0026: real time    0.0026
    --------------------------------------------
      LOOP:  cpu time   71.0041: real time   71.0220

 eigenvalue-minimisations  :  5152
 total energy-change (2. order) : 0.1384120E+04  (-0.1908397E+05)
 number of electron     512.0000000 magnetization 
 augmentation part      512.0000000 magnetization 

 Free energy of the ion-electron system (eV)
  ---------------------------------------------------
  alpha Z        PSCENC =       210.77028614
  Ewald energy   TEWEN  =    -14472.31361748
  -Hartree energ DENC   =      -753.07047241
  -exchange      EXHF   =         0.00000000
  -V(xc)+E(xc)   XCENC  =     -1195.28379216
  PAW double counting   =      4221.13331941    -1969.18571412
  entropy T*S    EENTRO =        -0.00025226
  eigenvalues    EBANDS =      2149.58895480
  atomic energy  EATOM  =     13192.48085998
  Solvation  Ediel_sol  =         0.00000000
  ---------------------------------------------------
  free energy    TOTEN  =      1384.11957191 eV

  energy without entropy =     1384.11982417  energy(sigma->0) =     1384.11969804


--------------------------------------------------------------------------------------------------------




--------------------------------------- Iteration      1(   2)  ---------------------------------------


     EDDAV:  cpu time   79.7936: real time   79.8079
       DOS:  cpu time    0.0034: real time    0.0034
    --------------------------------------------
      LOOP:  cpu time   79.7970: real time   79.8114

 eigenvalue-minimisations  :  6112
 total energy-change (2. order) :-0.1920458E+04  (-0.1826922E+04)
 number of electron     512.0000000 magnetization 
 augmentation part      512.0000000 magnetization 

 Free energy of the ion-electron system (eV)
  ---------------------------------------------------
  alpha Z        PSCENC =       210.77028614
  Ewald energy   TEWEN  =    -14472.31361748
  -Hartree energ DENC   =      -753.07047241
  -exchange      EXHF   =         0.00000000
  -V(xc)+E(xc)   XCENC  =     -1195.28379216
  PAW double counting   =      4221.13331941    -1969.18571412
  entropy T*S    EENTRO =        -0.00000000
  eigenvalues    EBANDS =       229.13080057
  atomic energy  EATOM  =     13192.48085998
  Solvation  Ediel_sol  =         0.00000000
  ---------------------------------------------------
  free energy    TOTEN  =      -536.33833006 eV

  energy without entropy =     -536.33833006  energy(sigma->0) =     -536.33833006


--------------------------------------------------------------------------------------------------------




--------------------------------------- Iteration      1(   3)  ---------------------------------------


     EDDAV:  cpu time   81.7899: real time   81.8058
       DOS:  cpu time    0.0018: real time    0.0018
    --------------------------------------------
      LOOP:  cpu time   81.7916: real time   81.8076

 eigenvalue-minimisations  :  6304
 total energy-change (2. order) :-0.1497370E+03  (-0.1467860E+03)
 number of electron     512.0000000 magnetization 
 augmentation part      512.0000000 magnetization 

 Free energy of the ion-electron system (eV)
  ---------------------------------------------------
  alpha Z        PSCENC =       210.77028614
  Ewald energy   TEWEN  =    -14472.31361748
  -Hartree energ DENC   =      -753.07047241
  -exchange      EXHF   =         0.00000000
  -V(xc)+E(xc)   XCENC  =     -1195.28379216
  PAW double counting   =      4221.13331941    -1969.18571412
  entropy T*S    EENTRO =        -0.00000000
  eigenvalues    EBANDS =        79.39382837
  atomic energy  EATOM  =     13192.48085998
  Solvation  Ediel_sol  =         0.00000000
  ---------------------------------------------------
  free energy    TOTEN  =      -686.07530225 eV

  energy without entropy =     -686.07530225  energy(sigma->0) =     -686.07530225


--------------------------------------------------------------------------------------------------------




--------------------------------------- Iteration      1(   4)  ---------------------------------------


     EDDAV:  cpu time   80.6716: real time   80.6889
       DOS:  cpu time    0.0014: real time    0.0014
    --------------------------------------------
      LOOP:  cpu time   80.6730: real time   80.6903

 eigenvalue-minimisations  :  6192
 total energy-change (2. order) :-0.4184666E+01  (-0.4150283E+01)
 number of electron     512.0000000 magnetization 
 augmentation part      512.0000000 magnetization 

 Free energy of the ion-electron system (eV)
  ---------------------------------------------------
  alpha Z        PSCENC =       210.77028614
  Ewald energy   TEWEN  =    -14472.31361748
  -Hartree energ DENC   =      -753.07047241
  -exchange      EXHF   =         0.00000000
  -V(xc)+E(xc)   XCENC  =     -1195.28379216
  PAW double counting   =      4221.13331941    -1969.18571412
  entropy T*S    EENTRO =        -0.00000000
  eigenvalues    EBANDS =        75.20916193
  atomic energy  EATOM  =     13192.48085998
  Solvation  Ediel_sol  =         0.00000000
  ---------------------------------------------------
  free energy    TOTEN  =      -690.25996869 eV

  energy without entropy =     -690.25996869  energy(sigma->0) =     -690.25996869


--------------------------------------------------------------------------------------------------------




--------------------------------------- Iteration      1(   5)  ---------------------------------------


     EDDAV:  cpu time   81.7113: real time   81.7355
       DOS:  cpu time    0.0016: real time    0.0016
    CHARGE:  cpu time    3.2054: real time    3.2060
    MIXING:  cpu time    0.0365: real time    0.0365
    --------------------------------------------
      LOOP:  cpu time   84.9548: real time   84.9796

 eigenvalue-minimisations  :  6296
 total energy-change (2. order) :-0.1425401E+00  (-0.1421394E+00)
 number of electron     511.9999998 magnetization 
 augmentation part      -30.1840765 magnetization 

 Broyden mixing:
  rms(total) = 0.24012E+01    rms(broyden)= 0.24012E+01
  rms(prec ) = 0.29088E+01
  weight for this iteration     100.00

 Free energy of the ion-electron system (eV)
  ---------------------------------------------------
  alpha Z        PSCENC =       210.77028614
  Ewald energy   TEWEN  =    -14472.31361748
  -Hartree energ DENC   =      -753.07047241
  -exchange      EXHF   =         0.00000000
  -V(xc)+E(xc)   XCENC  =     -1195.28379216
  PAW double counting   =      4221.13331941    -1969.18571412
  entropy T*S    EENTRO =        -0.00000000
  eigenvalues    EBANDS =        75.06662186
  atomic energy  EATOM  =     13192.48085998
  Solvation  Ediel_sol  =         0.00000000
  ---------------------------------------------------
  free energy    TOTEN  =      -690.40250876 eV

  energy without entropy =     -690.40250876  energy(sigma->0) =     -690.40250876


--------------------------------------------------------------------------------------------------------




--------------------------------------- Iteration      1(   6)  ---------------------------------------


    POTLOK:  cpu time    0.4899: real time    0.4908
    SETDIJ:  cpu time    0.5094: real time    0.5095
     EDDAV:  cpu time   77.8023: real time   77.8402
       DOS:  cpu time    0.0011: real time    0.0011
    CHARGE:  cpu time    3.1927: real time    3.1932
    MIXING:  cpu time    0.0373: real time    0.0372
    --------------------------------------------
      LOOP:  cpu time   82.0327: real time   82.0719

 eigenvalue-minimisations  :  5912
 total energy-change (2. order) : 0.8470096E+01  (-0.5842964E+00)
 number of electron     511.9999998 magnetization 
 augmentation part      -29.8419461 magnetization 

 Broyden mixing:
  rms(total) = 0.14266E+01    rms(broyden)= 0.14266E+01
  rms(prec ) = 0.17186E+01
  weight for this iteration     100.00

 eigenvalues of (default mixing * dielectric matrix)
  average eigenvalue GAMMA=   2.4305
  2.4305

 Free energy of the ion-electron system (eV)
  ---------------------------------------------------
  alpha Z        PSCENC =       210.77028614
  Ewald energy   TEWEN  =    -14472.31361748
  -Hartree energ DENC   =      -848.39130136
  -exchange      EXHF   =         0.00000000
  -V(xc)+E(xc)   XCENC  =     -1180.61187026
  PAW double counting   =      4467.01484113    -2221.87522836
  entropy T*S    EENTRO =        -0.00000000
  eigenvalues    EBANDS =       170.99361698
  atomic energy  EATOM  =     13192.48085998
  Solvation  Ediel_sol  =         0.00000000
  ---------------------------------------------------
  free energy    TOTEN  =      -681.93241322 eV

  energy without entropy =     -681.93241322  energy(sigma->0) =     -681.93241322


--------------------------------------------------------------------------------------------------------




--------------------------------------- Iteration      1(   7)  ---------------------------------------


    POTLOK:  cpu time    0.4893: real time    0.4898
    SETDIJ:  cpu time    0.5090: real time    0.5091
     EDDAV:  cpu time   76.6463: real time   76.6620
       DOS:  cpu time    0.0012: real time    0.0012
    CHARGE:  cpu time    3.1909: real time    3.1913
    MIXING:  cpu time    0.0398: real time    0.0398
    --------------------------------------------
      LOOP:  cpu time   80.8765: real time   80.8931

 eigenvalue-minimisations  :  5800
 total energy-change (2. order) : 0.3541203E+01  (-0.1127306E+01)
 number of electron     511.9999998 magnetization 
 augmentation part      -29.3885405 magnetization 

 Broyden mixing:
  rms(total) = 0.15587E+00    rms(broyden)= 0.15587E+00
  rms(prec ) = 0.20210E+00
  weight for this iteration     100.00

 eigenvalues of (default mixing * dielectric matrix)
  average eigenvalue GAMMA=   2.1089
  2.1089  2.1089

 Free energy of the ion-electron system (eV)
  ---------------------------------------------------
  alpha Z        PSCENC =       210.77028614
  Ewald energy   TEWEN  =    -14472.31361748
  -Hartree energ DENC   =      -999.17768994
  -exchange      EXHF   =         0.00000000
  -V(xc)+E(xc)   XCENC  =     -1156.64788992
  PAW double counting   =      4788.61991461    -2552.06316181
  entropy T*S    EENTRO =        -0.00000000
  eigenvalues    EBANDS =       309.94008851
  atomic energy  EATOM  =     13192.48085998
  Solvation  Ediel_sol  =         0.00000000
  ---------------------------------------------------
  free energy    TOTEN  =      -678.39120990 eV

  energy without entropy =     -678.39120990  energy(sigma->0) =     -678.39120990


--------------------------------------------------------------------------------------------------------




--------------------------------------- Iteration      1(   8)  ---------------------------------------


    POTLOK:  cpu time    0.4890: real time    0.4901
    SETDIJ:  cpu time    0.5129: real time    0.5132
     EDDAV:  cpu time   76.8032: real time   76.8197
       DOS:  cpu time    0.0011: real time    0.0011
    CHARGE:  cpu time    3.1965: real time    3.1969
    MIXING:  cpu time    0.0343: real time    0.0343
    --------------------------------------------
      LOOP:  cpu time   81.0370: real time   81.0553

 eigenvalue-minimisations  :  5824
 total energy-change (2. order) :-0.5582115E-01  (-0.1072342E+00)
 number of electron     511.9999998 magnetization 
 augmentation part      -29.4586873 magnetization 

 Broyden mixing:
  rms(total) = 0.61842E-01    rms(broyden)= 0.61842E-01
  rms(prec ) = 0.76510E-01
  weight for this iteration     100.00

 eigenvalues of (default mixing * dielectric matrix)
  average eigenvalue GAMMA=   2.0099
  2.6770  1.6764  1.6764

 Free energy of the ion-electron system (eV)
  ---------------------------------------------------
  alpha Z        PSCENC =       210.77028614
  Ewald energy   TEWEN  =    -14472.31361748
  -Hartree energ DENC   =      -992.64882673
  -exchange      EXHF   =         0.00000000
  -V(xc)+E(xc)   XCENC  =     -1156.76797580
  PAW double counting   =      4740.84972497    -2502.80556958
  entropy T*S    EENTRO =        -0.00000000
  eigenvalues    EBANDS =       301.98808743
  atomic energy  EATOM  =     13192.48085998
  Solvation  Ediel_sol  =         0.00000000
  ---------------------------------------------------
  free energy    TOTEN  =      -678.44703106 eV

  energy without entropy =     -678.44703106  energy(sigma->0) =     -678.44703106


--------------------------------------------------------------------------------------------------------




--------------------------------------- Iteration      1(   9)  ---------------------------------------


    POTLOK:  cpu time    0.4863: real time    0.4895
    SETDIJ:  cpu time    0.5081: real time    0.5081
     EDDAV:  cpu time   79.5057: real time   79.5292
       DOS:  cpu time    0.0010: real time    0.0010
    CHARGE:  cpu time    3.2011: real time    3.2014
    MIXING:  cpu time    0.0388: real time    0.0388
    --------------------------------------------
      LOOP:  cpu time   83.7410: real time   83.7680

 eigenvalue-minimisations  :  6096
 total energy-change (2. order) :-0.2189627E-01  (-0.1008413E-01)
 number of electron     511.9999998 magnetization 
 augmentation part      -29.4639159 magnetization 

 Broyden mixing:
  rms(total) = 0.28343E-01    rms(broyden)= 0.28343E-01
  rms(prec ) = 0.32891E-01
  weight for this iteration     100.00

 eigenvalues of (default mixing * dielectric matrix)
  average eigenvalue GAMMA=   1.7916
  2.5909  1.8406  1.8406  0.8943

 Free energy of the ion-electron system (eV)
  ---------------------------------------------------
  alpha Z        PSCENC =       210.77028614
  Ewald energy   TEWEN  =    -14472.31361748
  -Hartree energ DENC   =      -999.24410541
  -exchange      EXHF   =         0.00000000
  -V(xc)+E(xc)   XCENC  =     -1155.60971422
  PAW double counting   =      4743.98152533    -2506.02321026
  entropy T*S    EENTRO =        -0.00000000
  eigenvalues    EBANDS =       307.48904858
  atomic energy  EATOM  =     13192.48085998
  Solvation  Ediel_sol  =         0.00000000
  ---------------------------------------------------
  free energy    TOTEN  =      -678.46892733 eV

  energy without entropy =     -678.46892733  energy(sigma->0) =     -678.46892733


--------------------------------------------------------------------------------------------------------




--------------------------------------- Iteration      1(  10)  ---------------------------------------


    POTLOK:  cpu time    0.4893: real time    0.4905
    SETDIJ:  cpu time    0.5096: real time    0.5096
     EDDAV:  cpu time   79.1142: real time   79.1267
       DOS:  cpu time    0.0011: real time    0.0011
    CHARGE:  cpu time    3.2002: real time    3.2007
    MIXING:  cpu time    0.0428: real time    0.0428
    --------------------------------------------
      LOOP:  cpu time   83.3570: real time   83.3713

 eigenvalue-minimisations  :  6056
 total energy-change (2. order) :-0.2519421E-02  (-0.8694086E-03)
 number of electron     511.9999998 magnetization 
 augmentation part      -29.4733904 magnetization 

 Broyden mixing:
  rms(total) = 0.11219E-01    rms(broyden)= 0.11219E-01
  rms(prec ) = 0.13453E-01
  weight for this iteration     100.00

 eigenvalues of (default mixing * dielectric matrix)
  average eigenvalue GAMMA=   1.8615
  2.6988  2.6988  1.5057  1.5057  0.8985

 Free energy of the ion-electron system (eV)
  ---------------------------------------------------
  alpha Z        PSCENC =       210.77028614
  Ewald energy   TEWEN  =    -14472.31361748
  -Hartree energ DENC   =      -998.13151032
  -exchange      EXHF   =         0.00000000
  -V(xc)+E(xc)   XCENC  =     -1155.77517535
  PAW double counting   =      4736.96444658    -2498.83195319
  entropy T*S    EENTRO =        -0.00000000
  eigenvalues    EBANDS =       306.36521688
  atomic energy  EATOM  =     13192.48085998
  Solvation  Ediel_sol  =         0.00000000
  ---------------------------------------------------
  free energy    TOTEN  =      -678.47144675 eV

  energy without entropy =     -678.47144675  energy(sigma->0) =     -678.47144675


--------------------------------------------------------------------------------------------------------




--------------------------------------- Iteration      1(  11)  ---------------------------------------


    POTLOK:  cpu time    0.4893: real time    0.4922
    SETDIJ:  cpu time    0.5113: real time    0.5115
     EDDAV:  cpu time   76.5065: real time   76.5160
       DOS:  cpu time    0.0010: real time    0.0010
    CHARGE:  cpu time    3.2120: real time    3.2125
    MIXING:  cpu time    0.0412: real time    0.0412
    --------------------------------------------
      LOOP:  cpu time   80.7612: real time   80.7743

 eigenvalue-minimisations  :  5784
 total energy-change (2. order) :-0.1473469E-02  (-0.2292650E-03)
 number of electron     511.9999998 magnetization 
 augmentation part      -29.4759501 magnetization 

 Broyden mixing:
  rms(total) = 0.39051E-02    rms(broyden)= 0.39051E-02
  rms(prec ) = 0.54898E-02
  weight for this iteration     100.00

 eigenvalues of (default mixing * dielectric matrix)
  average eigenvalue GAMMA=   1.7761
  2.8479  2.0355  2.0355  1.6616  1.2102  0.8659

 Free energy of the ion-electron system (eV)
  ---------------------------------------------------
  alpha Z        PSCENC =       210.77028614
  Ewald energy   TEWEN  =    -14472.31361748
  -Hartree energ DENC   =      -998.03259418
  -exchange      EXHF   =         0.00000000
  -V(xc)+E(xc)   XCENC  =     -1155.78771847
  PAW double counting   =      4732.65539733    -2494.42360030
  entropy T*S    EENTRO =        -0.00000000
  eigenvalues    EBANDS =       306.17806675
  atomic energy  EATOM  =     13192.48085998
  Solvation  Ediel_sol  =         0.00000000
  ---------------------------------------------------
  free energy    TOTEN  =      -678.47292022 eV

  energy without entropy =     -678.47292022  energy(sigma->0) =     -678.47292022


--------------------------------------------------------------------------------------------------------




--------------------------------------- Iteration      1(  12)  ---------------------------------------


    POTLOK:  cpu time    0.4880: real time    0.4915
    SETDIJ:  cpu time    0.5073: real time    0.5073
     EDDAV:  cpu time   79.5886: real time   79.6030
       DOS:  cpu time    0.0010: real time    0.0010
    CHARGE:  cpu time    3.2108: real time    3.2111
    MIXING:  cpu time    0.0368: real time    0.0368
    --------------------------------------------
      LOOP:  cpu time   83.8325: real time   83.8507

 eigenvalue-minimisations  :  6112
 total energy-change (2. order) :-0.5042177E-04  (-0.4362663E-04)
 number of electron     511.9999998 magnetization 
 augmentation part      -29.4739946 magnetization 

 Broyden mixing:
  rms(total) = 0.17461E-02    rms(broyden)= 0.17461E-02
  rms(prec ) = 0.20910E-02
  weight for this iteration     100.00

 eigenvalues of (default mixing * dielectric matrix)
  average eigenvalue GAMMA=   1.8323
  3.1741  2.6894  1.7778  1.7778  0.8908  1.2579  1.2579

 Free energy of the ion-electron system (eV)
  ---------------------------------------------------
  alpha Z        PSCENC =       210.77028614
  Ewald energy   TEWEN  =    -14472.31361748
  -Hartree energ DENC   =      -998.65713783
  -exchange      EXHF   =         0.00000000
  -V(xc)+E(xc)   XCENC  =     -1155.71764801
  PAW double counting   =      4733.98946894    -2495.80263470
  entropy T*S    EENTRO =        -0.00000000
  eigenvalues    EBANDS =       306.77745230
  atomic energy  EATOM  =     13192.48085998
  Solvation  Ediel_sol  =         0.00000000
  ---------------------------------------------------
  free energy    TOTEN  =      -678.47297064 eV

  energy without entropy =     -678.47297064  energy(sigma->0) =     -678.47297064


--------------------------------------------------------------------------------------------------------




--------------------------------------- Iteration      1(  13)  ---------------------------------------


    POTLOK:  cpu time    0.4888: real time    0.4919
    SETDIJ:  cpu time    0.5102: real time    0.5102
     EDDAV:  cpu time   76.3190: real time   76.3431
       DOS:  cpu time    0.0011: real time    0.0011
    CHARGE:  cpu time    3.2136: real time    3.2141
    MIXING:  cpu time    0.0418: real time    0.0418
    --------------------------------------------
      LOOP:  cpu time   80.5745: real time   80.6022

 eigenvalue-minimisations  :  5784
 total energy-change (2. order) :-0.2838359E-04  (-0.1140980E-04)
 number of electron     511.9999998 magnetization 
 augmentation part      -29.4739056 magnetization 

 Broyden mixing:
  rms(total) = 0.59205E-03    rms(broyden)= 0.59204E-03
  rms(prec ) = 0.76993E-03
  weight for this iteration     100.00

 eigenvalues of (default mixing * dielectric matrix)
  average eigenvalue GAMMA=   1.7783
  3.1373  2.5527  1.9417  1.9417  1.3835  1.3835  0.9430  0.9430

 Free energy of the ion-electron system (eV)
  ---------------------------------------------------
  alpha Z        PSCENC =       210.77028614
  Ewald energy   TEWEN  =    -14472.31361748
  -Hartree energ DENC   =      -998.65700770
  -exchange      EXHF   =         0.00000000
  -V(xc)+E(xc)   XCENC  =     -1155.72800608
  PAW double counting   =      4733.45406997    -2495.25691337
  entropy T*S    EENTRO =        -0.00000000
  eigenvalues    EBANDS =       306.77732950
  atomic energy  EATOM  =     13192.48085998
  Solvation  Ediel_sol  =         0.00000000
  ---------------------------------------------------
  free energy    TOTEN  =      -678.47299903 eV

  energy without entropy =     -678.47299903  energy(sigma->0) =     -678.47299903


--------------------------------------------------------------------------------------------------------




--------------------------------------- Iteration      1(  14)  ---------------------------------------


    POTLOK:  cpu time    0.4918: real time    0.4932
    SETDIJ:  cpu time    0.5078: real time    0.5078
     EDDAV:  cpu time   80.2240: real time   80.2443
       DOS:  cpu time    0.0011: real time    0.0011
    CHARGE:  cpu time    3.2130: real time    3.2134
    MIXING:  cpu time    0.0409: real time    0.0409
    --------------------------------------------
      LOOP:  cpu time   84.4786: real time   84.5007

 eigenvalue-minimisations  :  6168
 total energy-change (2. order) :-0.3396726E-05  (-0.8513416E-06)
 number of electron     511.9999998 magnetization 
 augmentation part      -29.4738101 magnetization 

 Broyden mixing:
  rms(total) = 0.19630E-03    rms(broyden)= 0.19624E-03
  rms(prec ) = 0.26685E-03
  weight for this iteration     100.00

 eigenvalues of (default mixing * dielectric matrix)
  average eigenvalue GAMMA=   1.7744
  3.2211  2.6151  2.2285  1.6753  1.6753  1.3100  1.3100  1.0124  0.9216

 Free energy of the ion-electron system (eV)
  ---------------------------------------------------
  alpha Z        PSCENC =       210.77028614
  Ewald energy   TEWEN  =    -14472.31361748
  -Hartree energ DENC   =      -998.69837639
  -exchange      EXHF   =         0.00000000
  -V(xc)+E(xc)   XCENC  =     -1155.72163952
  PAW double counting   =      4733.59566044    -2495.40124376
  entropy T*S    EENTRO =        -0.00000000
  eigenvalues    EBANDS =       306.81506815
  atomic energy  EATOM  =     13192.48085998
  Solvation  Ediel_sol  =         0.00000000
  ---------------------------------------------------
  free energy    TOTEN  =      -678.47300242 eV

  energy without entropy =     -678.47300242  energy(sigma->0) =     -678.47300242


--------------------------------------------------------------------------------------------------------




--------------------------------------- Iteration      1(  15)  ---------------------------------------


    POTLOK:  cpu time    0.4906: real time    0.4917
    SETDIJ:  cpu time    0.5049: real time    0.5051
     EDDAV:  cpu time   78.9571: real time   78.9720
       DOS:  cpu time    0.0010: real time    0.0010
    CHARGE:  cpu time    3.2287: real time    3.2303
    MIXING:  cpu time    0.0310: real time    0.0310
    --------------------------------------------
      LOOP:  cpu time   83.2132: real time   83.2312

 eigenvalue-minimisations  :  6048
 total energy-change (2. order) :-0.3991268E-05  (-0.2146727E-06)
 number of electron     511.9999998 magnetization 
 augmentation part      -29.4736642 magnetization 

 Broyden mixing:
  rms(total) = 0.69874E-04    rms(broyden)= 0.69718E-04
  rms(prec ) = 0.91528E-04
  weight for this iteration     100.00

 eigenvalues of (default mixing * dielectric matrix)
  average eigenvalue GAMMA=   1.7175
  3.2423  2.5832  2.1786  1.7055  1.7055  1.4300  1.4300  0.9351  0.9558  1.0090

 Free energy of the ion-electron system (eV)
  ---------------------------------------------------
  alpha Z        PSCENC =       210.77028614
  Ewald energy   TEWEN  =    -14472.31361748
  -Hartree energ DENC   =      -998.72606497
  -exchange      EXHF   =         0.00000000
  -V(xc)+E(xc)   XCENC  =     -1155.72001525
  PAW double counting   =      4733.67176249    -2495.47977194
  entropy T*S    EENTRO =        -0.00000000
  eigenvalues    EBANDS =       306.84355461
  atomic energy  EATOM  =     13192.48085998
  Solvation  Ediel_sol  =         0.00000000
  ---------------------------------------------------
  free energy    TOTEN  =      -678.47300641 eV

  energy without entropy =     -678.47300641  energy(sigma->0) =     -678.47300641


--------------------------------------------------------------------------------------------------------




--------------------------------------- Iteration      1(  16)  ---------------------------------------


    POTLOK:  cpu time    0.4911: real time    0.4916
    SETDIJ:  cpu time    0.5032: real time    0.5032
     EDDAV:  cpu time   79.3239: real time   79.3391
       DOS:  cpu time    0.0011: real time    0.0011
    CHARGE:  cpu time    3.1321: real time    3.1325
    MIXING:  cpu time    0.0386: real time    0.0386
    --------------------------------------------
      LOOP:  cpu time   83.4899: real time   83.5061

 eigenvalue-minimisations  :  6088
 total energy-change (2. order) : 0.5023630E-06  (-0.1905657E-07)
 number of electron     511.9999998 magnetization 
 augmentation part      -29.4736685 magnetization 

 Broyden mixing:
  rms(total) = 0.31879E-04    rms(broyden)= 0.31536E-04
  rms(prec ) = 0.41166E-04
  weight for this iteration     100.00

 eigenvalues of (default mixing * dielectric matrix)
  average eigenvalue GAMMA=   1.7145
  3.2895  2.6331  2.0885  2.0885  1.4663  1.4663  1.4360  1.4360  0.9066  1.0242
  1.0242

 Free energy of the ion-electron system (eV)
  ---------------------------------------------------
  alpha Z        PSCENC =       210.77028614
  Ewald energy   TEWEN  =    -14472.31361748
  -Hartree energ DENC   =      -998.72447521
  -exchange      EXHF   =         0.00000000
  -V(xc)+E(xc)   XCENC  =     -1155.72004066
  PAW double counting   =      4733.66528600    -2495.47289712
  entropy T*S    EENTRO =        -0.00000000
  eigenvalues    EBANDS =       306.84159242
  atomic energy  EATOM  =     13192.48085998
  Solvation  Ediel_sol  =         0.00000000
  ---------------------------------------------------
  free energy    TOTEN  =      -678.47300591 eV

  energy without entropy =     -678.47300591  energy(sigma->0) =     -678.47300591


--------------------------------------------------------------------------------------------------------




--------------------------------------- Iteration      1(  17)  ---------------------------------------


    POTLOK:  cpu time    0.4936: real time    0.4942
    SETDIJ:  cpu time    0.5033: real time    0.5033
     EDDAV:  cpu time   60.9888: real time   61.0123
       DOS:  cpu time    0.0011: real time    0.0011
    CHARGE:  cpu time    3.1234: real time    3.1239
    MIXING:  cpu time    0.0472: real time    0.0472
    --------------------------------------------
      LOOP:  cpu time   65.1573: real time   65.1819

 eigenvalue-minimisations  :  4248
 total energy-change (2. order) : 0.1965236E-06  (-0.3481343E-08)
 number of electron     511.9999998 magnetization 
 augmentation part      -29.4736735 magnetization 

 Broyden mixing:
  rms(total) = 0.14842E-04    rms(broyden)= 0.14091E-04
  rms(prec ) = 0.17323E-04
  weight for this iteration     100.00

 eigenvalues of (default mixing * dielectric matrix)
  average eigenvalue GAMMA=   1.7049
  3.2947  2.6307  2.2446  1.8981  1.7412  1.7412  1.4159  1.4159  0.9203  0.9684
  1.0939  1.0939

 Free energy of the ion-electron system (eV)
  ---------------------------------------------------
  alpha Z        PSCENC =       210.77028614
  Ewald energy   TEWEN  =    -14472.31361748
  -Hartree energ DENC   =      -998.72322938
  -exchange      EXHF   =         0.00000000
  -V(xc)+E(xc)   XCENC  =     -1155.72015346
  PAW double counting   =      4733.66382833    -2495.47124554
  entropy T*S    EENTRO =        -0.00000000
  eigenvalues    EBANDS =       306.84026569
  atomic energy  EATOM  =     13192.48085998
  Solvation  Ediel_sol  =         0.00000000
  ---------------------------------------------------
  free energy    TOTEN  =      -678.47300572 eV

  energy without entropy =     -678.47300572  energy(sigma->0) =     -678.47300572


--------------------------------------------------------------------------------------------------------




--------------------------------------- Iteration      1(  18)  ---------------------------------------


    POTLOK:  cpu time    0.4894: real time    0.4910
    SETDIJ:  cpu time    0.5064: real time    0.5064
     EDDAV:  cpu time   51.8314: real time   51.8461
       DOS:  cpu time    0.0011: real time    0.0011
    CHARGE:  cpu time    3.1224: real time    3.1230
    MIXING:  cpu time    0.0554: real time    0.0554
    --------------------------------------------
      LOOP:  cpu time   56.0062: real time   56.0231

 eigenvalue-minimisations  :  3328
 total energy-change (2. order) :-0.1514654E-06  (-0.8916542E-09)
 number of electron     511.9999998 magnetization 
 augmentation part      -29.4736681 magnetization 

 Broyden mixing:
  rms(total) = 0.69526E-05    rms(broyden)= 0.51580E-05
  rms(prec ) = 0.70397E-05
  weight for this iteration     100.00
  WARNING: grid for Broyden might be to small

 eigenvalues of (default mixing * dielectric matrix)
  average eigenvalue GAMMA=   1.7307
  3.2583  2.6854  2.3853  2.3853  1.7888  1.7888  1.3835  1.3835  0.9172  0.9868
  1.0475  1.2441  1.2441

 Free energy of the ion-electron system (eV)
  ---------------------------------------------------
  alpha Z        PSCENC =       210.77028614
  Ewald energy   TEWEN  =    -14472.31361748
  -Hartree energ DENC   =      -998.72427001
  -exchange      EXHF   =         0.00000000
  -V(xc)+E(xc)   XCENC  =     -1155.72002773
  PAW double counting   =      4733.66891709    -2495.47642546
  entropy T*S    EENTRO =        -0.00000000
  eigenvalues    EBANDS =       306.84127158
  atomic energy  EATOM  =     13192.48085998
  Solvation  Ediel_sol  =         0.00000000
  ---------------------------------------------------
  free energy    TOTEN  =      -678.47300587 eV

  energy without entropy =     -678.47300587  energy(sigma->0) =     -678.47300587


--------------------------------------------------------------------------------------------------------




--------------------------------------- Iteration      1(  19)  ---------------------------------------


    POTLOK:  cpu time    0.4886: real time    0.4933
    SETDIJ:  cpu time    0.5088: real time    0.5088
     EDDAV:  cpu time   50.5999: real time   50.6121
       DOS:  cpu time    0.0011: real time    0.0011
    CHARGE:  cpu time    3.1194: real time    3.1198
    MIXING:  cpu time    0.0416: real time    0.0416
    --------------------------------------------
      LOOP:  cpu time   54.7594: real time   54.7768

 eigenvalue-minimisations  :  3200
 total energy-change (2. order) : 0.4035246E-07  (-0.1896183E-09)
 number of electron     511.9999998 magnetization 
 augmentation part      -29.4736698 magnetization 

 Broyden mixing:
  rms(total) = 0.53130E-05    rms(broyden)= 0.25485E-05
  rms(prec ) = 0.34233E-05
  weight for this iteration     100.00
  WARNING: grid for Broyden might be to small

 eigenvalues of (default mixing * dielectric matrix)
  average eigenvalue GAMMA=   1.6860
  3.3192  2.7036  2.3076  2.3076  1.7787  1.7787  1.4655  1.4655  1.2970  1.2970
  1.0279  1.0279  0.9138  0.9138

 Free energy of the ion-electron system (eV)
  ---------------------------------------------------
  alpha Z        PSCENC =       210.77028614
  Ewald energy   TEWEN  =    -14472.31361748
  -Hartree energ DENC   =      -998.72392476
  -exchange      EXHF   =         0.00000000
  -V(xc)+E(xc)   XCENC  =     -1155.72005953
  PAW double counting   =      4733.66853212    -2495.47600716
  entropy T*S    EENTRO =        -0.00000000
  eigenvalues    EBANDS =       306.84092486
  atomic energy  EATOM  =     13192.48085998
  Solvation  Ediel_sol  =         0.00000000
  ---------------------------------------------------
  free energy    TOTEN  =      -678.47300583 eV

  energy without entropy =     -678.47300583  energy(sigma->0) =     -678.47300583


--------------------------------------------------------------------------------------------------------




--------------------------------------- Iteration      1(  20)  ---------------------------------------


    POTLOK:  cpu time    0.4904: real time    0.4937
    SETDIJ:  cpu time    0.5110: real time    0.5110
     EDDAV:  cpu time   50.1227: real time   50.1371
       DOS:  cpu time    0.0010: real time    0.0010
    CHARGE:  cpu time    3.1228: real time    3.1234
    MIXING:  cpu time    0.0441: real time    0.0441
    --------------------------------------------
      LOOP:  cpu time   54.2919: real time   54.3103

 eigenvalue-minimisations  :  3152
 total energy-change (2. order) :-0.1206354E-07  (-0.5069210E-10)
 number of electron     511.9999998 magnetization 
 augmentation part      -29.4736690 magnetization 

 Broyden mixing:
  rms(total) = 0.49007E-05    rms(broyden)= 0.15111E-05
  rms(prec ) = 0.21375E-05
  weight for this iteration     100.00
  WARNING: grid for Broyden might be to small

 eigenvalues of (default mixing * dielectric matrix)
  average eigenvalue GAMMA=   1.7066
  3.2624  2.7226  2.4262  2.4262  1.8833  1.8833  1.7161  1.3973  1.3973  1.2411
  1.2411  1.1490  0.9723  0.9723  0.9088

 Free energy of the ion-electron system (eV)
  ---------------------------------------------------
  alpha Z        PSCENC =       210.77028614
  Ewald energy   TEWEN  =    -14472.31361748
  -Hartree energ DENC   =      -998.72414139
  -exchange      EXHF   =         0.00000000
  -V(xc)+E(xc)   XCENC  =     -1155.72003368
  PAW double counting   =      4733.66889491    -2495.47637938
  entropy T*S    EENTRO =        -0.00000000
  eigenvalues    EBANDS =       306.84112506
  atomic energy  EATOM  =     13192.48085998
  Solvation  Ediel_sol  =         0.00000000
  ---------------------------------------------------
  free energy    TOTEN  =      -678.47300584 eV

  energy without entropy =     -678.47300584  energy(sigma->0) =     -678.47300584


--------------------------------------------------------------------------------------------------------




--------------------------------------- Iteration      1(  21)  ---------------------------------------


    POTLOK:  cpu time    0.4878: real time    0.4913
    SETDIJ:  cpu time    0.5029: real time    0.5029
     EDDAV:  cpu time   50.0762: real time   50.0937
       DOS:  cpu time    0.0010: real time    0.0010
    --------------------------------------------
      LOOP:  cpu time   51.0679: real time   51.0889

 eigenvalue-minimisations  :  3152
 total energy-change (2. order) : 0.1162334E-08  (-0.1424056E-10)
 number of electron     511.9999998 magnetization 
 augmentation part      -29.4736690 magnetization 

 Free energy of the ion-electron system (eV)
  ---------------------------------------------------
  alpha Z        PSCENC =       210.77028614
  Ewald energy   TEWEN  =    -14472.31361748
  -Hartree energ DENC   =      -998.72407289
  -exchange      EXHF   =         0.00000000
  -V(xc)+E(xc)   XCENC  =     -1155.72004056
  PAW double counting   =      4733.66883990    -2495.47632369
  entropy T*S    EENTRO =        -0.00000000
  eigenvalues    EBANDS =       306.84106275
  atomic energy  EATOM  =     13192.48085998
  Solvation  Ediel_sol  =         0.00000000
  ---------------------------------------------------
  free energy    TOTEN  =      -678.47300584 eV

  energy without entropy =     -678.47300584  energy(sigma->0) =     -678.47300584


--------------------------------------------------------------------------------------------------------




 average (electrostatic) potential at core
  the test charge radii are     0.9892
  (the norm of the test charge is              1.0000)
       1 -83.3889       2 -83.4899       3 -83.5047       4 -83.4409       5 -83.4166
       6 -83.4089       7 -83.4523       8 -83.4683       9 -83.4357      10 -83.3729
      11 -83.4408      12 -83.4952      13 -83.4827      14 -83.5034      15 -83.5386
      16 -83.4945      17 -83.6320      18 -83.6152      19 -83.6541      20 -83.5193
      21 -83.5757      22 -83.4833      23 -83.5805      24 -83.5375      25 -83.4892
      26 -83.5001      27 -83.5136      28 -83.5398      29 -83.4517      30 -83.4934
      31 -83.6098      32 -83.6112      33 -83.6247      34 -83.5895      35 -83.6187
      36 -83.6716      37 -83.6146      38 -83.5308      39 -83.6861      40 -83.5747
      41 -83.5648      42 -83.6772      43 -83.6022      44 -83.4882      45 -83.5559
      46 -83.6158      47 -83.5259      48 -83.4751      49 -83.3448      50 -83.4421
      51 -83.5462      52 -83.4632      53 -83.5061      54 -83.5087      55 -83.4606
      56 -83.5376      57 -83.4291      58 -83.4774      59 -83.5206      60 -83.3885
      61 -83.4412      62 -83.4606      63 -83.5149      64 -83.4693      65 -83.3688
      66 -83.5184      67 -83.5617      68 -83.4152      69 -83.4714      70 -83.5523
      71 -83.3936      72 -83.4404      73 -83.3347      74 -83.3218      75 -83.5090
      76 -83.5084      77 -83.5503      78 -83.4604      79 -83.4893      80 -83.4530
      81 -83.5762      82 -83.4813      83 -83.6173      84 -83.6362      85 -83.6516
      86 -83.5705      87 -83.5872      88 -83.5301      89 -83.4694      90 -83.5473
      91 -83.5286      92 -83.5859      93 -83.5931      94 -83.5899      95 -83.6508
      96 -83.5443      97 -83.5297      98 -83.5215      99 -83.5951     100 -83.6652
     101 -83.5249     102 -83.5765     103 -83.6534     104 -83.5039     105 -83.5511
     106 -83.4853     107 -83.5989     108 -83.5135     109 -83.5619     110 -83.6018
     111 -83.6371     112 -83.5537     113 -83.4911     114 -83.4346     115 -83.4132
     116 -83.4843     117 -83.5409     118 -83.5139     119 -83.5081     120 -83.4712
     121 -83.4375     122 -83.3870     123 -83.4017     124 -83.4874     125 -83.3880
     126 -83.5346     127 -83.5882     128 -83.5063
 
 
 
 E-fermi :   5.9660     XC(G=0):  -9.3323     alpha+bet :-11.7321


 k-point     1 :       0.0000    0.0000    0.0000
  band No.  band energies     occupation 
      1      -6.2950      2.00000
      2      -5.6610      2.00000
      3      -5.6279      2.00000
      4      -5.5826      2.00000
      5      -5.5591      2.00000
      6      -5.5352      2.00000
      7      -5.4986      2.00000
      8      -5.4595      2.00000
      9      -5.3701      2.00000
     10      -5.2920      2.00000
     11      -5.2470      2.00000
     12      -5.2205      2.00000
     13      -5.1863      2.00000
     14      -5.1453      2.00000
     15      -5.0945      2.00000
     16      -4.5219      2.00000
     17      -4.4589      2.00000
     18      -4.4441      2.00000
     19      -4.3704      2.00000
     20      -4.3507      2.00000
     21      -4.3124      2.00000
     22      -4.2727      2.00000
     23      -4.2647      2.00000
     24      -4.2582      2.00000
     25      -4.2115      2.00000
     26      -4.1669      2.00000
     27      -4.1339      2.00000
     28      -4.0724      2.00000
     29      -4.0356      2.00000
     30      -3.9478      2.00000
     31      -3.9322      2.00000
     32      -3.8843      2.00000
     33      -3.7856      2.00000
     34      -3.7706      2.00000
     35      -3.7436      2.00000
     36      -3.7140      2.00000
     37      -3.6991      2.00000
     38      -3.6889      2.00000
     39      -3.6819      2.00000
     40      -3.6442      2.00000
     41      -3.6143      2.00000
     42      -3.6081      2.00000
     43      -3.5807      2.00000
     44      -3.5651      2.00000
     45      -3.5463      2.00000
[...]
   -.220E+01 0.261E+01 -.227E+01   0.128E+01 -.196E+01 0.244E+01   -.431E-01 -.198E+01 -.490E+00   -.581E-06 0.201E-06 0.388E-06
   0.113E+01 0.359E+01 -.115E+02   -.138E+01 -.350E+01 0.107E+02   0.643E+00 -.136E+01 0.260E+01   0.171E-05 -.206E-06 -.152E-05
   -.357E+01 -.767E+01 -.860E+01   0.332E+01 0.625E+01 0.785E+01   0.422E+00 0.303E+01 0.227E+01   -.236E-07 0.635E-06 -.154E-06
   -.113E+02 0.259E+01 0.791E+00   0.100E+02 -.281E+01 -.758E+00   0.297E+01 -.358E+00 0.654E+00   -.157E-05 0.837E-06 0.527E-07
   0.553E+01 -.316E+01 0.486E+01   -.481E+01 0.235E+01 -.420E+01   -.178E+01 0.803E+00 -.173E+01   0.232E-06 -.228E-08 0.330E-06
   -.145E+01 -.298E+01 0.121E+01   0.132E+01 0.269E+01 -.127E+01   0.113E+01 0.786E+00 0.192E+00   0.103E-06 -.900E-06 0.111E-05
   0.877E+01 -.232E+01 0.116E+02   -.760E+01 0.125E+01 -.106E+02   -.290E+01 0.151E+01 -.310E+01   0.195E-05 0.258E-06 0.785E-06
   -.740E+01 -.494E+00 -.345E+00   0.646E+01 0.723E+00 0.711E-01   0.335E+01 -.168E+00 0.298E+00   0.219E-06 -.115E-06 0.992E-06
   -.209E+01 -.110E+02 0.154E+00   0.172E+01 0.107E+02 -.310E+00   0.177E+01 0.117E+01 0.407E+00   -.225E-06 -.226E-05 -.210E-06
   -.269E+01 0.157E+01 -.182E+01   0.253E+01 -.178E+01 0.130E+01   0.128E+01 -.825E-01 0.192E+01   -.107E-05 0.674E-06 0.529E-06
   0.351E+01 0.113E+02 -.470E+01   -.254E+01 -.107E+02 0.417E+01   -.160E+01 -.346E+01 0.674E+00   -.568E-06 0.859E-06 0.904E-07
   -.697E+01 -.739E+01 0.378E+01   0.592E+01 0.659E+01 -.376E+01   0.217E+01 0.233E+01 -.121E+01   -.128E-05 -.395E-06 0.287E-07
   0.508E+01 -.149E+02 0.846E+01   -.415E+01 0.139E+02 -.759E+01   -.173E+01 0.340E+01 -.146E+01   0.388E-06 -.196E-05 -.531E-07
   0.140E+01 -.789E+01 0.330E+01   -.141E+01 0.671E+01 -.344E+01   -.102E+00 0.179E+01 -.343E-01   0.438E-06 -.125E-05 0.161E-05
   -.876E+00 0.120E+01 0.152E+02   0.961E+00 -.163E+01 -.135E+02   -.271E+00 -.435E+00 -.432E+01   -.139E-05 0.171E-06 -.459E-07
   -.281E+01 -.575E+01 -.666E+00   0.277E+01 0.538E+01 0.538E+00   0.150E+00 0.247E+01 0.310E+00   -.676E-06 -.327E-06 0.449E-06
   0.617E+01 -.277E+01 0.180E+01   -.584E+01 0.309E+01 -.138E+01   -.655E+00 0.820E+00 -.155E+01   0.972E-06 -.130E-05 0.866E-06
   -.147E+02 -.247E+01 -.998E+01   0.136E+02 0.245E+01 0.935E+01   0.365E+01 0.527E+00 0.939E+00   -.167E-05 -.177E-05 -.197E-05
   -.428E+01 0.880E+01 -.135E+01   0.359E+01 -.842E+01 0.101E+01   -.385E+00 -.965E+00 0.287E+00   -.131E-05 0.865E-06 0.120E-05
   0.306E+01 0.915E+01 -.448E+01   -.266E+01 -.807E+01 0.398E+01   -.200E+01 -.245E+01 0.144E+01   0.152E-06 0.212E-05 -.404E-06
   0.134E+01 0.398E+01 0.272E+01   -.617E+00 -.328E+01 -.261E+01   -.642E+00 -.216E+01 -.184E+01   -.124E-05 -.255E-06 0.622E-06
   -.485E+01 0.137E+02 -.842E+00   0.481E+01 -.119E+02 0.108E+00   0.123E+01 -.487E+01 0.889E+00   0.102E-06 0.217E-05 -.104E-06
   -.286E+01 0.339E+01 0.327E+01   0.297E+01 -.284E+01 -.329E+01   0.114E+01 -.150E+01 -.622E+00   0.467E-06 -.107E-05 0.492E-06
   0.339E+01 -.683E+01 0.311E+00   -.287E+01 0.644E+01 -.247E+00   0.240E+00 0.205E+01 -.745E+00   0.610E-06 -.769E-06 0.117E-05
   0.577E+00 -.262E+01 -.674E+01   0.863E-02 0.217E+01 0.628E+01   0.105E+01 0.880E+00 0.385E+00   0.801E-06 -.967E-06 -.604E-06
   -.652E+01 0.191E+01 -.232E+01   0.551E+01 -.203E+01 0.244E+01   0.228E+01 -.721E+00 0.696E+00   -.504E-06 0.466E-06 0.473E-06
   0.776E+01 0.421E+01 -.462E+00   -.644E+01 -.407E+01 0.299E-01   -.224E+01 -.126E+01 -.262E+00   -.119E-05 0.543E-06 0.266E-06
   -.647E+01 -.687E+01 0.449E+01   0.610E+01 0.701E+01 -.385E+01   0.146E+01 0.163E+01 -.110E+01   -.222E-05 -.131E-06 -.411E-06
   0.457E+01 0.904E+00 0.666E+01   -.408E+01 -.113E+01 -.640E+01   -.532E+00 0.347E+00 -.234E+00   0.292E-07 -.799E-07 -.109E-05
   -.145E+01 -.255E+00 -.840E+01   0.184E+01 -.123E+00 0.717E+01   -.333E+00 0.758E-01 0.804E+00   0.838E-06 -.248E-07 -.764E-06
   0.584E+01 -.454E+01 0.125E+01   -.487E+01 0.438E+01 -.135E+01   -.226E+01 0.986E+00 -.726E+00   -.703E-07 0.515E-06 -.124E-05
   -.393E+01 -.977E+01 0.116E+02   0.337E+01 0.916E+01 -.109E+02   0.810E+00 0.293E+01 -.166E+01   0.131E-05 -.126E-05 0.160E-05
   -.162E+01 0.722E+01 -.109E+02   0.191E+01 -.688E+01 0.976E+01   0.119E+00 -.166E+01 0.430E+01   0.136E-05 0.503E-06 0.316E-06
   0.732E+01 0.145E+01 -.176E+01   -.659E+01 -.204E+01 0.176E+01   -.202E+01 0.139E+01 -.130E+01   0.206E-05 0.614E-06 -.141E-05
   -.241E+00 0.854E+01 0.596E-01   0.275E+00 -.770E+01 -.690E+00   -.552E+00 -.143E+01 0.666E+00   0.367E-06 0.984E-06 0.109E-05
   -.892E+01 0.400E+01 -.527E+01   0.802E+01 -.258E+01 0.502E+01   0.226E+01 -.224E+01 0.233E+01   -.176E-05 -.984E-07 -.346E-06
   -.198E+01 0.616E+01 -.335E+01   0.156E+01 -.557E+01 0.279E+01   0.135E+01 -.229E+01 -.477E+00   0.261E-06 0.986E-06 -.155E-05
   0.137E+02 -.704E+00 0.359E+01   -.128E+02 0.826E+00 -.339E+01   -.333E+01 -.107E+01 -.559E-01   0.802E-06 0.481E-06 -.156E-05
   -.401E+01 -.843E+01 0.711E+01   0.326E+01 0.759E+01 -.704E+01   0.970E+00 0.149E+01 -.868E+00   -.329E-06 -.828E-06 0.675E-06
   0.472E+01 0.373E+01 -.727E+01   -.412E+01 -.349E+01 0.674E+01   -.813E+00 -.134E+01 0.174E+01   -.672E-06 -.453E-06 -.327E-06
   -.164E+01 0.175E+01 -.238E+01   0.109E+01 -.206E+01 0.270E+01   0.456E+00 0.549E+00 -.478E+00   -.439E-06 0.159E-05 0.416E-06
   0.102E+01 -.148E+01 -.686E+00   -.644E+00 0.143E+01 0.298E+00   -.187E+01 -.273E+00 0.389E+00   0.856E-06 0.290E-07 -.702E-06
   0.713E+00 0.588E+00 -.394E+01   -.352E+00 -.380E+00 0.372E+01   -.392E+00 -.125E+00 0.207E+00   0.681E-06 -.638E-07 -.454E-06
   -.298E+01 -.251E+01 -.138E+02   0.289E+01 0.170E+01 0.121E+02   0.177E+01 0.214E+01 0.481E+01   0.335E-06 0.716E-06 0.391E-06
   -.736E+01 -.589E+01 0.727E+01   0.663E+01 0.512E+01 -.678E+01   0.231E+01 0.102E+01 -.118E+01   0.979E-06 0.154E-06 -.390E-06
   0.189E+01 0.142E+00 0.275E+01   -.138E+01 -.371E-01 -.248E+01   -.122E+01 -.519E+00 -.178E+01   0.105E-05 0.246E-07 -.136E-06
   0.126E+02 -.413E+01 -.948E+00   -.114E+02 0.435E+01 0.105E+01   -.397E+01 -.281E+00 0.531E+00   0.154E-06 -.563E-06 -.259E-06
   -.484E+01 0.340E+00 0.481E+00   0.446E+01 -.844E+00 -.107E+01   0.482E+00 0.872E+00 0.200E+01   -.423E-06 0.634E-06 0.306E-06
   -.753E+01 0.446E+00 -.261E+00   0.673E+01 -.583E+00 0.507E+00   0.129E+01 0.417E+00 -.137E+00   -.240E-06 -.101E-05 0.982E-06
   0.207E+01 -.114E+02 -.267E+01   -.192E+01 0.948E+01 0.295E+01   -.193E+00 0.301E+01 0.829E+00   0.202E-06 -.133E-05 -.437E-06
   -.581E+01 -.352E+01 0.634E+01   0.504E+01 0.291E+01 -.560E+01   0.133E+01 0.132E+01 -.471E+00   -.465E-06 -.815E-06 -.219E-06
   -.626E+01 0.103E+02 0.593E+01   0.519E+01 -.901E+01 -.515E+01   0.162E+01 -.346E+01 -.921E+00   -.120E-05 0.136E-05 0.121E-05
   0.113E+02 0.144E+01 -.190E-01   -.102E+02 -.141E+01 0.303E+00   -.313E+01 -.527E+00 -.679E+00   -.222E-06 0.127E-05 -.955E-06
 -----------------------------------------------------------------------------------------------
   0.228E-01 0.135E+00 0.539E+00   -.888E-14 -.195E-13 0.139E-12   -.228E-01 -.135E+00 -.539E+00   0.631E-06 0.471E-06 -.316E-06
 
 
 POSITION                                       TOTAL-FORCE (eV/Angst)
 -----------------------------------------------------------------------------------
     10.99731     21.77476     10.92300        -1.031553      1.210662     -1.323027
      0.00457      2.64064      2.64055         0.413394      0.308220      1.053193
     10.89774     16.27853      5.50043         0.508804      1.906294     -0.720841
     10.87344      8.21659     19.08028         0.669466     -1.323238      0.690433
      2.68200      0.08242      2.73564         1.043598     -0.595343     -0.759323
     13.69023     13.56606      5.44801         0.714056      0.688992      1.293581
      2.75039      5.59067      8.14629         0.536593      0.049896      0.441185
      2.79097      8.22135     10.87676        -1.132413      0.976360      1.819341
     16.39436     21.77436     16.40245         0.282089      1.126814      1.065878
     16.51311     13.56873      8.22771        -0.444546      2.228794     -0.508684
      5.49098      5.57594     11.00966         0.815814     -0.061510     -0.347380
     16.33607     19.14707     13.77851         1.787426      0.166319     -0.195147
     19.27098     21.79662     19.26009        -0.791001      0.414893     -0.665328
      8.27190      2.81724     11.04863        -1.785192     -1.135886     -1.399121
     19.19249     16.43974     13.81610        -0.070689     -0.491647     -2.375872
     19.15988     19.04922     16.40914         0.257462      1.998390      0.418717
      2.87845     13.68923     10.97486        -1.937684     -0.279489     -0.653127
      2.64221      5.45142      2.86727         0.936670      0.680175     -0.270062
     13.78193      8.29978     16.36900        -1.072411     -0.538766      0.190473
      2.71690     10.89241      8.19078        -1.323641      0.009625      0.663216
      5.59053     13.55559     13.80078        -0.766062      0.022924     -1.611196
      5.33456      5.49251      5.33952         2.497249     -0.375360      1.746900
      5.57575      8.21536      8.28756        -1.970767      0.236480     -0.444798
      5.41306     10.90767     10.93488         0.018107      0.679552     -0.594503
      8.25940      2.82704      5.53032        -1.186018     -0.575492     -0.550805
      8.11688      5.24256      8.24787         2.226553      3.574307     -1.572565
      8.24908      8.24504     10.90240        -0.069438      0.199110      0.556045
      8.10064     11.05007     13.55300         2.206965     -1.929527      1.302176
     10.96327     13.71653     19.08695        -0.584324      0.011212      0.435197
     10.86198      5.60081     10.86242         0.907967     -0.378305      1.464962
     10.91461      8.26692     13.77496         0.822470     -0.442999     -0.345669
     10.89428     10.92117     16.29612         0.993518      0.198162      1.701766
      5.44697      5.52931      0.08801        -0.052430     -0.947459      1.168744
      5.55702      8.16165      2.77867        -1.876948      1.747585      0.742429
      5.67567     10.96363      5.53516        -3.662333     -0.589005     -1.034729
      5.67693     13.63754      8.13426        -2.832341      0.517366      0.980209
      8.34772     16.42872     13.74393        -1.361724      0.065322     -1.429309
      8.18679      7.89706      5.47419         0.415863      3.233009      0.031100
      8.14963     10.99185      8.12704         0.756465     -2.152752      2.112692
      8.32157     13.71318     10.95805        -1.173920     -0.407751     -0.382344
     11.08850     16.39373     16.55792        -0.859798      0.192127     -1.473746
     11.00850      8.29665      7.99012        -0.655081     -0.148832      2.003264
     11.01063     11.03807     10.99041        -1.202014     -1.748421     -0.547876
     10.94567     13.62914     13.70739        -0.907592     -0.689719     -0.147549
     13.74345     16.38837     19.04989        -0.802941      0.343555      2.175554
     13.45554      8.29594     10.80663         2.581582     -1.289099      1.686531
     13.58049     10.96503     13.71280         1.700781     -0.491824     -1.289317
     13.68915     13.49707     16.45359        -0.507500      2.105918     -0.328603
     18.94502      8.20715     10.90200         2.355021      1.311175     -0.216943
     19.01890     10.97565     13.82568         0.599704     -0.570475     -0.830357
      8.20545     13.58808      5.56794        -0.137010      0.936884     -0.745840
     19.10948     16.40963     19.13223         0.177565     -0.584264      1.099283
     10.84698      8.24993      2.78424         0.667667      0.922090      0.332919
     10.89774     10.88938      5.43048         0.859493      0.145416     -0.141976
     11.10630     13.80976      8.11052        -2.826712     -2.230119     -0.723787
     10.96381     16.53064     11.08221        -0.372991     -0.947130     -1.652145
     13.67876     19.03325     16.29031         0.790387      1.193974      1.298471
     13.61635     10.94628      8.17211         1.220791      0.611922      0.487300
     13.63675     13.84080     10.98534        -0.380017     -1.359844     -1.506526
     13.60253     16.44390     13.71238         0.930243      0.227199     -1.884126
     16.39337      8.17190      8.23077         0.043601     -0.828180     -0.167192
     16.26128     10.95033     11.01280         1.270165     -0.601278     -0.679327
     16.36211     13.67833     13.75610         0.610681      1.031040     -1.405028
     16.38924     16.31997     16.30114        -0.161234      1.419545      1.919887
      1.33064      1.25309      1.24535         1.084404      1.343483      0.585166
      1.44511      4.04788      4.28727        -1.419548     -0.366432     -1.829855
      1.39517      6.86696      6.75422        -0.518416      0.248001     -0.105669
      1.28106      9.48464      9.54534         1.134456      0.036617     -0.283759
      4.08495      1.35227      4.11419         0.695460     -0.631820      0.092559
      4.11208      4.23469      6.77327        -0.294572     -2.037917      0.816311
      4.12179      6.91974      9.67011         0.587111     -1.186695     -1.435675
      4.25939      9.59917     12.35329        -2.304801     -0.261963      0.305953
      6.94639      1.35854      6.99671         0.285199     -0.918808     -1.801894
      6.84230      4.15066      9.53200        -1.784980     -1.835596      2.796846
      6.98716      6.98522     12.33601        -1.300315     -1.207210      0.922065
      6.96736      9.68533     15.08328        -0.957059     -1.329579     -0.324738
      9.54285      1.53880      9.45545         0.393504     -1.267055      1.812607
      9.65424      4.06744     12.24021         0.168157      1.613314      1.514638
      9.52710      6.87210     15.04870         1.741045     -0.577643      0.687591
      9.65521      9.58446     17.79182        -1.054389     -0.009214     -1.070859
      4.06465      4.05066      1.53182         0.998558      0.491908      0.132648
      4.18806      6.90458      4.18773        -1.727760      0.438215     -2.119209
      4.02147      9.60797      6.86768         2.416930      0.061370      0.023739
      4.03254     12.24407      9.49078         1.396038      0.872473      0.251878
      6.78217      4.20050      3.98486         1.113379     -0.287099      1.400184
      6.84254      6.92013      6.91411        -0.639764     -2.874185      0.142141
      6.75171      9.48826      9.72391         1.116461      1.520305     -1.190175
      6.85163     12.19750     12.20086        -0.798525      2.398368     -0.585042
      9.62727      4.09464      6.85384        -0.113674      0.612582     -0.182717
      9.58993      6.98320      9.62232        -0.186901     -0.869879     -2.586010
      9.59357      9.46052     12.30737         0.106734      2.101001      0.181615
      9.49593     12.25384     15.10892        -0.323257      1.137512     -1.129848
     12.10610      4.11847      9.56736         2.530268      0.509166      0.304448
     12.34847      6.91686     12.35092        -1.078695     -0.589229     -0.054719
     12.41905      9.67198     15.03385        -1.591348     -1.380532      0.938943
     12.28780     12.35587     17.90795         0.085369     -1.463282     -1.733655
      6.78530      7.03635      1.37653         1.191815     -3.010501      0.154964
      6.80179      9.51048      4.25031         1.252638     -0.946695     -0.640930
      6.84496     12.21545      6.88309         0.761803      1.657393     -0.680408
      6.71474     15.01479      9.65391         1.635922      0.433088     -0.080083
      9.61250      6.82742      4.12514         1.260122     -0.844255      0.813659
      9.55800      9.63876      6.80903        -0.924504     -1.123704     -0.694369
      9.51752     12.18264      9.58710         1.088360      1.774684     -0.456741
      9.64698     15.03050     12.34369        -0.039430      0.117821      0.023789
     12.42256      6.88550      6.85570         0.051578     -0.301561     -0.428195
     12.28253      9.63526      9.52368        -1.293216      0.830864     -0.819045
     12.30218     12.22615     12.39715         0.246116      2.314813     -0.927016
     12.19087     15.15710     14.80415         0.405056     -1.315176      3.151597
     15.07268      6.79390      9.69566        -1.301646      0.803043     -1.297361
     14.97372      9.56179     12.34158        -0.517660     -0.592440      0.035389
     14.90375     12.37652     14.87183         1.360179     -0.817295      2.077105
     15.04143     15.06329     17.78292         0.928429     -1.693899     -1.031563
      9.66070      9.72012      1.42715        -2.357322     -0.951599      0.141445
      9.53474     12.26976      4.16425         0.219663      0.652520     -0.795770
      9.52511     15.08976      6.79544        -0.217365     -1.102737      1.215335
      9.51472     17.77006      9.63466        -0.091311      0.234875     -0.158826
     12.44212      9.58763      4.09549        -1.484562     -0.324001      0.000963
     12.28039     12.27005      6.78333        -0.031594      0.083634     -0.009681
     12.21511     15.16377      9.35526         1.679070      1.333280      3.179149
     12.21299     17.87537     12.43070         1.571905      0.240391     -0.686630
     15.06004      9.54731      6.95431        -0.712098     -0.414171     -1.512241
     15.19537     12.34655      9.55206        -2.765072     -0.054323      0.629210
     15.04961     15.09444     12.24454         0.109845      0.367881      1.404375
     15.00566     17.67472     15.01346         0.497926      0.280093      0.108830
     17.69917      9.54009      9.49613        -0.044805      1.075091      1.114186
     17.68423     12.25788     12.33243         0.560788      0.712888      0.269462
     17.78398     15.13069     15.06678         0.540023     -2.187020     -0.138705
     17.88281     17.79616     17.79636        -2.019614     -0.500753     -0.394679
 -----------------------------------------------------------------------------------
    total drift:                               -0.000001      0.000007      0.000001


--------------------------------------------------------------------------------------------------------



  FREE ENERGIE OF THE ION-ELECTRON SYSTEM (eV)
  ---------------------------------------------------
  free  energy   TOTEN  =      -678.47300584 eV

  energy  without entropy=     -678.47300584  energy(sigma->0) =     -678.47300584
 


--------------------------------------------------------------------------------------------------------


    POTLOK:  cpu time    0.9896: real time    0.9904


--------------------------------------------------------------------------------------------------------


     LOOP+:  cpu time 1704.0857: real time 1704.5576
    4ORBIT:  cpu time    0.0000: real time    0.0000

 total amount of memory used by VASP MPI-rank0   221701. kBytes
=======================================================================

   base      :      30000. kBytes
   nonl-proj :      10690. kBytes
   fftplans  :      66746. kBytes
   grid      :      26864. kBytes
   one-center:         24. kBytes
   wavefun   :      87377. kBytes
 
  
  
 General timing and accounting informations for this job:
 ========================================================
  
                  Total CPU time used (sec):     1728.033
                            User time (sec):     1726.934
                          System time (sec):        1.100
                         Elapsed time (sec):     1729.513
  
                   Maximum memory used (kb):      337460.
                   Average memory used (kb):           0.
  
                          Minor page faults:       145047
                          Major page faults:            0
                 Voluntary context switches:         1275
