<?xml version="1.0" encoding="ISO-8859-1"?>
<modeling>
 <generator>
  <i name="program" type="string">vasp </i>
  <i name="version" type="string">5.4.4.18Apr17-6-g9f103f2a35  </i>
  <i name="subversion" type="string">(build Nov 08 2017 09:05:29) complex            parallel </i>
  <i name="platform" type="string">Intel_17.33 </i>
  <i name="date" type="string">2020 07 18 </i>
  <i name="time" type="string">20:15:57 </i>
 </generator>
 <incar>
  <i type="string" name="SYSTEM">potpaw_PBE@./ARUN.APL1ZEROSTATE</i>
  <i type="string" name="PREC">accurate</i>
  <i type="string" name="ALGO">Normal</i>
  <i type="int" name="NSIM">     4</i>
  <i type="logical" name="ADDGRID"> T  </i>
  <i type="int" name="NELM">   120</i>
  <i type="int" name="NELMIN">     4</i>
  <i name="EDIFF">      0.00000001</i>
  <i type="int" name="NSW">     0</i>
  <i type="int" name="ISYM">     2</i>
  <i name="ENMAX">    500.00000000</i>
  <i type="logical" name="LREAL"> F  </i>
  <i type="logical" name="LPLANE"> T  </i>
  <i type="int" name="ISMEAR">     0</i>
  <i name="SIGMA">      0.01000000</i>
  <i type="logical" name="LWAVE"> F  </i>
  <i type="logical" name="LCHARG"> F  </i>
  <i type="logical" name="LELF"> F  </i>
  <i type="logical" name="LAECHG"> F  </i>
  <v type="int" name="KPOINT_BSE">    -1     0     0     0</v>
  <i type="int" name="NELM">   120</i>
 </incar>
 <structure name="primitive_cell" >
  <crystal>
   <varray name="basis" >
    <v>       0.00000000      10.93733369      10.93733369 </v>
    <v>      10.93733369       0.00000000      10.93733369 </v>
    <v>      10.93733369      10.93733369       0.00000000 </v>
   </varray>
   <i name="volume">   2616.76295363 </i>
   <varray name="rec_basis" >
    <v>      -0.04571498       0.04571498       0.04571498 </v>
    <v>       0.04571498      -0.04571498       0.04571498 </v>
    <v>       0.04571498       0.04571498      -0.04571498 </v>
   </varray>
  </crystal>
  <varray name="positions" >
   <v>      -0.00796440       0.00665368      -0.00117039 </v>
   <v>       0.05338603       0.06047605       0.06118435 </v>
   <v>       0.06795834       0.06252602      -0.17924842 </v>
   <v>      -0.18860832       0.06133849       0.05578901 </v>
   <v>       0.06635044      -0.20183942       0.07434166 </v>
   <v>      -0.00406574      -0.23498520      -0.00307003 </v>
   <v>      -0.25451906       0.24898094       0.00619697 </v>
   <v>       0.00622020       0.24389966       0.00131559 </v>
   <v>      -0.25181565       0.00069859       0.24770789 </v>
   <v>       0.00855719       0.24600534      -0.25426636 </v>
   <v>       0.24122058       0.00020482       0.00021272 </v>
   <v>      -0.24920281      -0.00628778       0.00044576 </v>
   <v>       0.00750313      -0.01073343      -0.25712384 </v>
   <v>       0.25572823      -0.24555227       0.00185201 </v>
   <v>      -0.00157506      -0.25330580       0.25567681 </v>
   <v>      -0.00406977       0.00750063       0.25567563 </v>
   <v>       0.26434353      -0.00026259      -0.26083983 </v>
   <v>      -0.17287495       0.30941373      -0.19278084 </v>
   <v>      -0.17822625      -0.18445043       0.30792327 </v>
   <v>      -0.19073906       0.05848044       0.31021418 </v>
   <v>      -0.18215917       0.06305537      -0.19312473 </v>
   <v>      -0.18988162      -0.18341257       0.06618848 </v>
   <v>       0.05673232       0.31771862      -0.18013571 </v>
   <v>       0.07221727      -0.19747415       0.30433463 </v>
   <v>       0.30416039      -0.18503868       0.06772542 </v>
   <v>      -0.19116148       0.32062248       0.06881359 </v>
   <v>       0.31540006       0.06533714      -0.19357632 </v>
   <v>       0.06112308      -0.19289266      -0.18887316 </v>
   <v>       0.31571155      -0.18815798      -0.19497397 </v>
   <v>      -0.23888953       0.25213575      -0.24971500 </v>
   <v>      -0.24892634       0.24870232       0.24621384 </v>
   <v>       0.24787165       0.24863676      -0.25225648 </v>
   <v>      -0.25379376      -0.25625218       0.25231559 </v>
   <v>       0.26065988      -0.25376019      -0.25947133 </v>
   <v>       0.25606084      -0.26290990       0.25602067 </v>
   <v>      -0.43002269       0.31416075       0.06269459 </v>
   <v>      -0.43065737       0.05856922       0.30911329 </v>
   <v>       0.06440624      -0.42469738       0.05980534 </v>
   <v>       0.07440492       0.05145113      -0.43107163 </v>
   <v>      -0.44108856       0.05862660       0.06893404 </v>
   <v>       0.06126069       0.31590083      -0.43703007 </v>
   <v>       0.06315542       0.31300463       0.06048236 </v>
   <v>       0.06938779       0.07066641       0.30096417 </v>
   <v>       0.06039885      -0.43375297       0.31397372 </v>
   <v>       0.31270719      -0.44119638       0.06678788 </v>
   <v>       0.31813054       0.07047544      -0.44858817 </v>
   <v>       0.31497807       0.07700707       0.05511913 </v>
   <v>      -0.49774940       0.24256432       0.00890392 </v>
   <v>      -0.24324578       0.49696802      -0.25328933 </v>
   <v>      -0.01050851       0.49993057      -0.24928190 </v>
   <v>      -0.25660561      -0.23904330       0.49064202 </v>
   <v>      -0.00227404       0.25888122      -0.49564913 </v>
   <v>      -0.24161068      -0.49862088      -0.00777331 </v>
   <v>       0.24565177      -0.49154914       0.23367495 </v>
   <v>       0.24152749      -0.48926783      -0.00093927 </v>
   <v>      -0.24879412      -0.00194667      -0.25087389 </v>
   <v>       0.49953548       0.25819596       0.25159487 </v>
   <v>       0.49769216      -0.00107543       0.26115636 </v>
   <v>       0.24337948       0.25473165      -0.00303490 </v>
   <v>       0.24609784       0.00795618      -0.49987831 </v>
   <v>      -0.25491584      -0.24479735      -0.00341511 </v>
   <v>       0.00042547      -0.24788637      -0.25326876 </v>
   <v>       0.00447819      -0.49884162       0.25399800 </v>
   <v>       0.25950039       0.00265391       0.23892294 </v>
   <v>      -0.00822254      -0.25004691      -0.49338973 </v>
   <v>      -0.00497474       0.26677931       0.24436223 </v>
   <v>      -0.49939501       0.00847126      -0.25824763 </v>
   <v>       0.23700739       0.26349739       0.48502031 </v>
   <v>      -0.49382931      -0.24845132      -0.25556126 </v>
   <v>      -0.26422372       0.00793857      -0.48889689 </v>
   <v>      -0.49423889      -0.24255554      -0.00267627 </v>
   <v>      -0.43752637       0.29287786      -0.17605049 </v>
   <v>      -0.43037065       0.31942713       0.29788174 </v>
   <v>      -0.19040118      -0.18247802      -0.18249691 </v>
   <v>      -0.18960078       0.31818418      -0.43616106 </v>
   <v>       0.30643858      -0.43309365      -0.17759403 </v>
   <v>      -0.19164399      -0.43567616      -0.19235686 </v>
   <v>      -0.19785134       0.31337580       0.31306862 </v>
   <v>      -0.18321836      -0.43537411       0.30358673 </v>
   <v>       0.30962708       0.31057247      -0.18777710 </v>
   <v>      -0.43831030      -0.18714557       0.32261867 </v>
   <v>       0.31496691       0.30758262      -0.43369539 </v>
   <v>      -0.18605483      -0.18805347      -0.43670903 </v>
   <v>       0.31678858      -0.18839875      -0.44255454 </v>
   <v>      -0.43251769      -0.18992758      -0.18408397 </v>
   <v>       0.31631619      -0.18707184       0.31609197 </v>
   <v>       0.32071745      -0.44094908       0.31775612 </v>
   <v>      -0.49280917       0.49942231       0.00261743 </v>
   <v>       0.00778755       0.00025879       0.49775710 </v>
   <v>      -0.00052650      -0.48558308       0.49940444 </v>
   <v>       0.49477890       0.01130079      -0.49237440 </v>
   <v>      -0.00421545      -0.49610875      -0.00495536 </v>
   <v>       0.49743484       0.00546948      -0.00908990 </v>
   <v>      -0.18762754      -0.45882971      -0.42655960 </v>
   <v>      -0.43819183      -0.44229066      -0.18172436 </v>
   <v>      -0.17923495       0.06189191      -0.44796310 </v>
   <v>      -0.18621671      -0.43471994       0.07174584 </v>
   <v>      -0.43495903       0.05626580      -0.18538512 </v>
   <v>      -0.43982763       0.06914808      -0.44331406 </v>
   <v>      -0.43342206      -0.19067567       0.06173768 </v>
   <v>       0.06590203      -0.43006944      -0.19299188 </v>
   <v>      -0.43614796      -0.43597119       0.07480677 </v>
   <v>       0.06028178      -0.43346495      -0.43074071 </v>
   <v>       0.06477283      -0.17829893      -0.44360670 </v>
   <v>      -0.43566702      -0.20460225      -0.43274867 </v>
   <v>      -0.48847763       0.49286678      -0.24605899 </v>
   <v>       0.24129579       0.48924016      -0.48273369 </v>
   <v>       0.49436097       0.24718312      -0.23173495 </v>
   <v>      -0.24559187       0.48474198       0.25589930 </v>
   <v>      -0.49131664      -0.24923889       0.24716100 </v>
   <v>      -0.25257567       0.25446939      -0.49362890 </v>
   <v>      -0.49268561      -0.25355380       0.49521743 </v>
   <v>      -0.49854075       0.24159535      -0.49647472 </v>
   <v>       0.49821840       0.49858778       0.25562566 </v>
   <v>       0.25152544       0.49565012      -0.25070779 </v>
   <v>      -0.25069236      -0.49604148       0.49680397 </v>
   <v>       0.25815392      -0.27010453      -0.49965639 </v>
   <v>       0.31524504       0.30403460       0.07193244 </v>
   <v>       0.31962529       0.31253132       0.31308160 </v>
   <v>       0.06414650       0.30018893       0.31990480 </v>
   <v>       0.31562766       0.06725663       0.31565751 </v>
   <v>       0.25131638       0.23687550       0.25086322 </v>
   <v>      -0.25796036      -0.25162709      -0.24990563 </v>
   <v>      -0.43988997       0.31643856      -0.44625197 </v>
   <v>      -0.43674039      -0.42978892      -0.44542340 </v>
   <v>       0.31435500      -0.44360563      -0.43340310 </v>
   <v>      -0.44345101      -0.43128626       0.30842573 </v>
   <v>      -0.49631933      -0.49882812      -0.49447038 </v>
  </varray>
 </structure>
 <varray name="primitive_index" >
  <v type="int" >        1 </v>
  <v type="int" >       65 </v>
  <v type="int" >      113 </v>
  <v type="int" >       68 </v>
  <v type="int" >       77 </v>
  <v type="int" >       13 </v>
  <v type="int" >        8 </v>
  <v type="int" >        5 </v>
  <v type="int" >       20 </v>
  <v type="int" >       53 </v>
  <v type="int" >        2 </v>
  <v type="int" >        4 </v>
  <v type="int" >       49 </v>
  <v type="int" >       14 </v>
  <v type="int" >       29 </v>
  <v type="int" >       17 </v>
  <v type="int" >       50 </v>
  <v type="int" >      120 </v>
  <v type="int" >       96 </v>
  <v type="int" >       84 </v>
  <v type="int" >      116 </v>
  <v type="int" >       80 </v>
  <v type="int" >      117 </v>
  <v type="int" >       93 </v>
  <v type="int" >       78 </v>
  <v type="int" >       72 </v>
  <v type="int" >      114 </v>
  <v type="int" >      125 </v>
  <v type="int" >      126 </v>
  <v type="int" >       56 </v>
  <v type="int" >       24 </v>
  <v type="int" >       54 </v>
  <v type="int" >       32 </v>
  <v type="int" >       62 </v>
  <v type="int" >       30 </v>
  <v type="int" >       71 </v>
  <v type="int" >       83 </v>
  <v type="int" >       73 </v>
  <v type="int" >       97 </v>
  <v type="int" >       67 </v>
  <v type="int" >      101 </v>
  <v type="int" >       69 </v>
  <v type="int" >       81 </v>
  <v type="int" >       89 </v>
  <v type="int" >       74 </v>
  <v type="int" >       98 </v>
  <v type="int" >       66 </v>
  <v type="int" >        7 </v>
  <v type="int" >       60 </v>
  <v type="int" >       57 </v>
  <v type="int" >       48 </v>
  <v type="int" >       37 </v>
  <v type="int" >       12 </v>
  <v type="int" >       26 </v>
  <v type="int" >       10 </v>
  <v type="int" >       52 </v>
  <v type="int" >       23 </v>
  <v type="int" >       19 </v>
  <v type="int" >        6 </v>
  <v type="int" >       34 </v>
  <v type="int" >       16 </v>
  <v type="int" >       61 </v>
  <v type="int" >       25 </v>
  <v type="int" >       18 </v>
  <v type="int" >       45 </v>
  <v type="int" >       21 </v>
  <v type="int" >       51 </v>
  <v type="int" >       38 </v>
  <v type="int" >       63 </v>
  <v type="int" >       36 </v>
  <v type="int" >       15 </v>
  <v type="int" >      119 </v>
  <v type="int" >       87 </v>
  <v type="int" >      128 </v>
  <v type="int" >      104 </v>
  <v type="int" >      122 </v>
  <v type="int" >      124 </v>
  <v type="int" >       88 </v>
  <v type="int" >       92 </v>
  <v type="int" >      118 </v>
  <v type="int" >       95 </v>
  <v type="int" >      102 </v>
  <v type="int" >      112 </v>
  <v type="int" >      110 </v>
  <v type="int" >      127 </v>
  <v type="int" >       94 </v>
  <v type="int" >       90 </v>
  <v type="int" >       11 </v>
  <v type="int" >       33 </v>
  <v type="int" >       41 </v>
  <v type="int" >       35 </v>
  <v type="int" >        9 </v>
  <v type="int" >        3 </v>
  <v type="int" >      108 </v>
  <v type="int" >      123 </v>
  <v type="int" >      100 </v>
  <v type="int" >       76 </v>
  <v type="int" >      115 </v>
  <v type="int" >       99 </v>
  <v type="int" >       79 </v>
  <v type="int" >      121 </v>
  <v type="int" >       75 </v>
  <v type="int" >      105 </v>
  <v type="int" >      109 </v>
  <v type="int" >      111 </v>
  <v type="int" >       59 </v>
  <v type="int" >       42 </v>
  <v type="int" >       55 </v>
  <v type="int" >       28 </v>
  <v type="int" >       31 </v>
  <v type="int" >       40 </v>
  <v type="int" >       47 </v>
  <v type="int" >       39 </v>
  <v type="int" >       27 </v>
  <v type="int" >       58 </v>
  <v type="int" >       44 </v>
  <v type="int" >       46 </v>
  <v type="int" >       70 </v>
  <v type="int" >       86 </v>
  <v type="int" >       85 </v>
  <v type="int" >       82 </v>
  <v type="int" >       22 </v>
  <v type="int" >       64 </v>
  <v type="int" >      103 </v>
  <v type="int" >      107 </v>
  <v type="int" >      106 </v>
  <v type="int" >       91 </v>
  <v type="int" >       43 </v>
 </varray>
 <kpoints>
  <generation param="Gamma">
   <v type="int" name="divisions">       2        2        2 </v>
   <v name="usershift">      0.00000000       0.00000000       0.00000000 </v>
   <v name="genvec1">      0.50000000       0.00000000       0.00000000 </v>
   <v name="genvec2">      0.00000000       0.50000000       0.00000000 </v>
   <v name="genvec3">      0.00000000       0.00000000       0.50000000 </v>
   <v name="shift">      0.00000000       0.00000000       0.00000000 </v>
  </generation>
  <varray name="kpointlist" >
   <v>       0.00000000       0.00000000       0.00000000 </v>
   <v>       0.50000000       0.00000000       0.00000000 </v>
   <v>       0.00000000       0.50000000       0.00000000 </v>
   <v>       0.50000000       0.50000000       0.00000000 </v>
   <v>       0.00000000       0.00000000       0.50000000 </v>
   <v>       0.50000000       0.00000000       0.50000000 </v>
   <v>       0.00000000       0.50000000       0.50000000 </v>
   <v>       0.50000000       0.50000000       0.50000000 </v>
  </varray>
  <varray name="weights" >
   <v>       0.12500000 </v>
   <v>       0.12500000 </v>
   <v>       0.12500000 </v>
   <v>       0.12500000 </v>
   <v>       0.12500000 </v>
   <v>       0.12500000 </v>
   <v>       0.12500000 </v>
   <v>       0.12500000 </v>
  </varray>
 </kpoints>
 <parameters>
  <separator name="general" >
   <i type="string" name="SYSTEM">potpaw_PBE@./ARUN.APL1ZEROSTATE</i>
   <i type="logical" name="LCOMPAT"> F  </i>
  </separator>
  <separator name="electronic" >
   <i type="string" name="PREC">accura</i>
   <i name="ENMAX">    500.00000000</i>
   <i name="ENAUG">    322.06900000</i>
   <i name="EDIFF">      0.00000001</i>
   <i type="int" name="IALGO">    38</i>
   <i type="int" name="IWAVPR">    10</i>
   <i type="int" name="NBANDS">   322</i>
   <i name="NELECT">    512.00000000</i>
   <i type="int" name="TURBO">     0</i>
   <i type="int" name="IRESTART">     0</i>
   <i type="int" name="NREBOOT">     0</i>
   <i type="int" name="NMIN">     0</i>
   <i name="EREF">      0.00000000</i>
   <separator name="electronic smearing" >
    <i type="int" name="ISMEAR">     0</i>
    <i name="SIGMA">      0.01000000</i>
    <i name="KSPACING">      0.50000000</i>
    <i type="logical" name="KGAMMA"> T  </i>
   </separator>
   <separator name="electronic projectors" >
    <i type="logical" name="LREAL"> F  </i>
    <v name="ROPT">      0.00000000</v>
    <i type="int" name="LMAXPAW">  -100</i>
    <i type="int" name="LMAXMIX">     2</i>
    <i type="logical" name="NLSPLINE"> F  </i>
   </separator>
   <separator name="electronic startup" >
    <i type="int" name="ISTART">     0</i>
    <i type="int" name="ICHARG">     2</i>
    <i type="int" name="INIWAV">     1</i>
   </separator>
   <separator name="electronic spin" >
    <i type="int" name="ISPIN">     1</i>
    <i type="logical" name="LNONCOLLINEAR"> F  </i>
    <v name="MAGMOM">      1.00000000      1.00000000      1.00000000      1.00000000      1.00000000      1.00000000      1.00000000      1.00000000      1.00000000      1.00000000      1.00000000      1.00000000      1.00000000      1.00000000      1.00000000      1.00000000      1.00000000      1.00000000      1.00000000      1.00000000
      1.00000000      1.00000000      1.00000000      1.00000000      1.00000000      1.00000000      1.00000000      1.00000000      1.00000000      1.00000000      1.00000000      1.00000000      1.00000000      1.00000000      1.00000000      1.00000000      1.00000000      1.00000000      1.00000000      1.00000000
      1.00000000      1.00000000      1.00000000      1.00000000      1.00000000      1.00000000      1.00000000      1.00000000      1.00000000      1.00000000      1.00000000      1.00000000      1.00000000      1.00000000      1.00000000      1.00000000      1.00000000      1.00000000      1.00000000      1.00000000
      1.00000000      1.00000000      1.00000000      1.00000000      1.00000000      1.00000000      1.00000000      1.00000000      1.00000000      1.00000000      1.00000000      1.00000000      1.00000000      1.00000000      1.00000000      1.00000000      1.00000000      1.00000000      1.00000000      1.00000000
      1.00000000      1.00000000      1.00000000      1.00000000      1.00000000      1.00000000      1.00000000      1.00000000      1.00000000      1.00000000      1.00000000      1.00000000      1.00000000      1.00000000      1.00000000      1.00000000      1.00000000      1.00000000      1.00000000      1.00000000
      1.00000000      1.00000000      1.00000000      1.00000000      1.00000000      1.00000000      1.00000000      1.00000000      1.00000000      1.00000000      1.00000000      1.00000000      1.00000000      1.00000000      1.00000000      1.00000000      1.00000000      1.00000000      1.00000000      1.00000000
      1.00000000      1.00000000      1.00000000      1.00000000      1.00000000      1.00000000      1.00000000      1.00000000</v>
    <i name="NUPDOWN">     -1.00000000</i>
    <i type="logical" name="LSORBIT"> F  </i>
    <v name="SAXIS">      0.00000000      0.00000000      1.00000000</v>
    <i type="logical" name="LSPIRAL"> F  </i>
    <v name="QSPIRAL">      0.00000000      0.00000000      0.00000000</v>
    <i type="logical" name="LZEROZ"> F  </i>
   </separator>
   <separator name="electronic exchange-correlation" >
    <i type="logical" name="LASPH"> F  </i>
    <i type="logical" name="LMETAGGA"> F  </i>
   </separator>
   <separator name="electronic convergence" >
    <i type="int" name="NELM">   120</i>
    <i type="int" name="NELMDL">    -5</i>
    <i type="int" name="NELMIN">     4</i>
    <i name="ENINI">    500.00000000</i>
    <separator name="electronic convergence detail" >
     <i type="logical" name="LDIAG"> T  </i>
     <i type="logical" name="LSUBROT"> F  </i>
     <i name="WEIMIN">      0.00000000</i>
     <i name="EBREAK">      0.00000000</i>
     <i name="DEPER">      0.30000000</i>
     <i type="int" name="NRMM">     4</i>
     <i name="TIME">      0.40000000</i>
    </separator>
   </separator>
   <separator name="electronic mixer" >
    <i name="AMIX">      0.40000000</i>
    <i name="BMIX">      1.00000000</i>
    <i name="AMIN">      0.10000000</i>
    <i name="AMIX_MAG">      1.60000000</i>
    <i name="BMIX_MAG">      1.00000000</i>
    <separator name="electronic mixer details" >
     <i type="int" name="IMIX">     4</i>
     <i type="logical" name="MIXFIRST"> F  </i>
     <i type="int" name="MAXMIX">   -45</i>
     <i name="WC">    100.00000000</i>
     <i type="int" name="INIMIX">     1</i>
     <i type="int" name="MIXPRE">     1</i>
     <i type="int" name="MREMOVE">     5</i>
    </separator>
   </separator>
   <separator name="electronic dipolcorrection" >
    <i type="logical" name="LDIPOL"> F  </i>
    <i type="logical" name="LMONO"> F  </i>
    <i type="int" name="IDIPOL">     0</i>
    <i name="EPSILON">      1.00000000</i>
    <v name="DIPOL">   -100.00000000   -100.00000000   -100.00000000</v>
    <i name="EFIELD">      0.00000000</i>
   </separator>
  </separator>
  <separator name="grids" >
   <i type="int" name="NGX">   120</i>
   <i type="int" name="NGY">   120</i>
   <i type="int" name="NGZ">   120</i>
   <i type="int" name="NGXF">   240</i>
   <i type="int" name="NGYF">   240</i>
   <i type="int" name="NGZF">   240</i>
   <i type="logical" name="ADDGRID"> T  </i>
  </separator>
  <separator name="ionic" >
   <i type="int" name="NSW">     0</i>
   <i type="int" name="IBRION">    -1</i>
   <i type="int" name="MDALGO">     0</i>
   <i type="int" name="ISIF">     2</i>
   <i name="PSTRESS">      0.00000000</i>
   <i name="EDIFFG">      0.00000010</i>
   <i type="int" name="NFREE">     0</i>
   <i name="POTIM">      0.50000000</i>
   <i name="SMASS">     -3.00000000</i>
   <i name="SCALEE">      1.00000000</i>
  </separator>
  <separator name="ionic md" >
   <i name="TEBEG">      0.00010000</i>
   <i name="TEEND">      0.00010000</i>
   <i type="int" name="NBLOCK">     1</i>
   <i type="int" name="KBLOCK">     1</i>
   <i type="int" name="NPACO">   256</i>
   <i name="APACO">     16.00000000</i>
  </separator>
  <separator name="symmetry" >
   <i type="int" name="ISYM">     2</i>
   <i name="SYMPREC">      0.00001000</i>
  </separator>
  <separator name="dos" >
   <i type="int" name="LORBIT">     0</i>
   <v name="RWIGS">     -1.00000000</v>
   <i type="int" name="NEDOS">   301</i>
   <i name="EMIN">     10.00000000</i>
   <i name="EMAX">    -10.00000000</i>
   <i name="EFERMI">      0.00000000</i>
  </separator>
  <separator name="writing" >
   <i type="int" name="NWRITE">     2</i>
   <i type="logical" name="LWAVE"> F  </i>
   <i type="logical" name="LDOWNSAMPLE"> F  </i>
   <i type="logical" name="LCHARG"> F  </i>
   <i type="logical" name="LPARD"> F  </i>
   <i type="logical" name="LVTOT"> F  </i>
   <i type="logical" name="LVHAR"> F  </i>
   <i type="logical" name="LELF"> F  </i>
   <i type="logical" name="LOPTICS"> F  </i>
   <v name="STM">      0.00000000      0.00000000      0.00000000      0.00000000      0.00000000      0.00000000      0.00000000</v>
  </separator>
  <separator name="performance" >
   <i type="int" name="NPAR">     2</i>
   <i type="int" name="NSIM">     4</i>
   <i type="int" name="NBLK">    -1</i>
   <i type="logical" name="LPLANE"> T  </i>
   <i type="logical" name="LSCALAPACK"> T  </i>
   <i type="logical" name="LSCAAWARE"> F  </i>
   <i type="logical" name="LSCALU"> F  </i>
   <i type="logical" name="LASYNC"> F  </i>
   <i type="logical" name="LORBITALREAL"> F  </i>
  </separator>
  <separator name="miscellaneous" >
   <i type="int" name="IDIOT">     3</i>
   <i type="int" name="ISPECIAL">     0</i>
   <i type="logical" name="LMUSIC"> F  </i>
   <v name="POMASS">     28.08500000</v>
   <v name="DARWINR">      0.00000000</v>
   <v name="DARWINV">      1.00000000</v>
   <i type="logical" name="LCORR"> T  </i>
  </separator>
  <i type="logical" name="GGA_COMPAT"> T  </i>
  <i type="logical" name="LBERRY"> F  </i>
  <i type="int" name="ICORELEVEL">     0</i>
  <i type="logical" name="LDAU"> F  </i>
  <i type="int" name="I_CONSTRAINED_M">     0</i>
  <separator name="electronic exchange-correlation" >
   <i type="string" name="GGA">--</i>
   <i type="int" name="VOSKOWN">     0</i>
   <i type="logical" name="LHFCALC"> F  </i>
   <i type="string" name="PRECFOCK"></i>
   <i type="logical" name="LSYMGRAD"> F  </i>
   <i type="logical" name="LHFONE"> F  </i>
   <i type="logical" name="LRHFCALC"> F  </i>
   <i type="logical" name="LTHOMAS"> F  </i>
   <i type="logical" name="LMODELHF"> F  </i>
   <i name="ENCUT4O">     -1.00000000</i>
   <i type="int" name="EXXOEP">     0</i>
   <i type="int" name="FOURORBIT">     0</i>
   <i name="AEXX">      0.00000000</i>
   <i name="HFALPHA">      0.00000000</i>
   <i name="MCALPHA">      0.00000000</i>
   <i name="ALDAX">      1.00000000</i>
   <i name="AGGAX">      1.00000000</i>
   <i name="ALDAC">      1.00000000</i>
   <i name="AGGAC">      1.00000000</i>
   <i type="int" name="NKREDX">     1</i>
   <i type="int" name="NKREDY">     1</i>
   <i type="int" name="NKREDZ">     1</i>
   <i type="logical" name="SHIFTRED"> F  </i>
   <i type="logical" name="ODDONLY"> F  </i>
   <i type="logical" name="EVENONLY"> F  </i>
   <i type="int" name="LMAXFOCK">     0</i>
   <i type="int" name="NMAXFOCKAE">     0</i>
   <i type="logical" name="LFOCKAEDFT"> F  </i>
   <i name="HFSCREEN">      0.00000000</i>
   <i name="HFSCREENC">      0.00000000</i>
   <i type="int" name="NBANDSGWLOW">     0</i>
  </separator>
  <separator name="vdW DFT" >
   <i type="logical" name="LUSE_VDW"> F  </i>
   <i name="Zab_VDW">     -0.84910000</i>
   <i name="PARAM1">      0.12340000</i>
   <i name="PARAM2">      1.00000000</i>
   <i name="PARAM3">      0.00000000</i>
  </separator>
  <separator name="model GW" >
   <i type="int" name="MODEL_GW">     0</i>
   <i name="MODEL_EPS0">     12.26607635</i>
   <i name="MODEL_ALPHA">      1.00000000</i>
  </separator>
  <separator name="linear response parameters" >
   <i type="logical" name="LEPSILON"> F  </i>
   <i type="logical" name="LRPA"> F  </i>
   <i type="logical" name="LNABLA"> F  </i>
   <i type="logical" name="LVEL"> F  </i>
   <i type="int" name="KINTER">     0</i>
   <i name="CSHIFT">      0.10000000</i>
   <i name="OMEGAMAX">     -1.00000000</i>
   <i name="DEG_THRESHOLD">      0.00200000</i>
   <i name="RTIME">     -0.10000000</i>
   <i name="WPLASMAI">      0.00000000</i>
   <v name="DFIELD">      0.00000000      0.00000000      0.00000000</v>
   <v name="WPLASMA">      0.00000000      0.00000000      0.00000000      0.00000000      0.00000000      0.00000000      0.00000000      0.00000000      0.00000000</v>
  </separator>
  <separator name="orbital magnetization" >
   <i type="logical" name="NUCIND"> F  </i>
   <v name="MAGPOS">      0.00000000      0.00000000      0.00000000</v>
   <i type="logical" name="LNICSALL"> T  </i>
   <i type="logical" name="ORBITALMAG"> F  </i>
   <i type="logical" name="LMAGBLOCH"> F  </i>
   <i type="logical" name="LCHIMAG"> F  </i>
   <i type="logical" name="LGAUGE"> T  </i>
   <i type="int" name="MAGATOM">     0</i>
   <v name="MAGDIPOL">      0.00000000      0.00000000      0.00000000</v>
   <v name="AVECCONST">      0.00000000      0.00000000      0.00000000</v>
  </separator>
  <separator name="response functions" >
   <i type="logical" name="LADDER"> F  </i>
   <i type="logical" name="LRPAFORCE"> F  </i>
   <i type="logical" name="LFXC"> F  </i>
   <i type="logical" name="LHARTREE"> T  </i>
   <i type="int" name="IBSE">     0</i>
   <v type="int" name="KPOINT">    -1     0     0     0</v>
   <i type="logical" name="LTCTE"> F  </i>
   <i type="logical" name="LTETE"> F  </i>
   <i type="logical" name="LTRIPLET"> F  </i>
   <i type="logical" name="LFXCEPS"> F  </i>
   <i type="logical" name="LFXHEG"> F  </i>
   <i type="int" name="NATURALO">     2</i>
   <i type="logical" name="L2ORDER"> F  </i>
   <i type="logical" name="LMP2LT"> F  </i>
   <i type="logical" name="LUSEW"> F  </i>
   <i name="ENCUTGW">     -2.00000000</i>
   <i name="ENCUTGWSOFT">     -2.00000000</i>
   <i name="ENCUTLF">     -1.00000000</i>
   <i type="int" name="LMAXMP2">    -1</i>
   <i name="SCISSOR">      0.00000000</i>
   <i type="int" name="NOMEGA">     0</i>
   <i type="int" name="NOMEGAR">     0</i>
   <i type="int" name="NBANDSGW">    -1</i>
   <i type="int" name="NBANDSO">    -1</i>
   <i type="int" name="NBANDSV">    -1</i>
   <i type="int" name="NELM">   120</i>
   <i type="int" name="NELMHF">     1</i>
   <i type="int" name="DIM">     3</i>
   <i type="int" name="ANTIRES">     0</i>
   <i name="OMEGAMAX">    -30.00000000</i>
   <i name="OMEGAMIN">    -30.00000000</i>
   <i name="OMEGATL">   -200.00000000</i>
   <i type="int" name="OMEGAGRID">   140</i>
   <i name="CSHIFT">     -0.10000000</i>
   <i type="logical" name="SELFENERGY"> F  </i>
   <i type="logical" name="LSPECTRAL"> F  </i>
   <i type="logical" name="LSPECTRALGW"> F  </i>
   <i type="logical" name="LSINGLES"> F  </i>
   <i type="logical" name="LFERMIGW"> F  </i>
   <i type="logical" name="ODDONLYGW"> F  </i>
   <i type="logical" name="EVENONLYGW"> F  </i>
   <i type="int" name="NKREDLFX">     1</i>
   <i type="int" name="NKREDLFY">     1</i>
   <i type="int" name="NKREDLFZ">     1</i>
   <i type="int" name="MAXMEM">  2800</i>
   <i type="int" name="TELESCOPE">     0</i>
   <i type="int" name="TAUPAR">     1</i>
   <i type="int" name="OMEGAPAR">    -1</i>
   <i name="LAMBDA">      1.00000000</i>
  </separator>
  <separator name="External order field" >
   <i name="OFIELD_KAPPA">      0.00000000</i>
   <v name="OFIELD_K">      0.00000000      0.00000000      0.00000000</v>
   <i name="OFIELD_Q6_NEAR">      0.00000000</i>
   <i name="OFIELD_Q6_FAR">      0.00000000</i>
   <i name="OFIELD_A">      0.00000000</i>
  </separator>
 </parameters>
 <atominfo>
  <atoms>     128 </atoms>
  <types>       1 </types>
  <array name="atoms" >
   <dimension dim="1">ion</dimension>
   <field type="string">element</field>
   <field type="int">atomtype</field>
   <set>
    <rc><c>Si</c><c>   1</c></rc>
    <rc><c>Si</c><c>   1</c></rc>
    <rc><c>Si</c><c>   1</c></rc>
    <rc><c>Si</c><c>   1</c></rc>
    <rc><c>Si</c><c>   1</c></rc>
    <rc><c>Si</c><c>   1</c></rc>
    <rc><c>Si</c><c>   1</c></rc>
    <rc><c>Si</c><c>   1</c></rc>
    <rc><c>Si</c><c>   1</c></rc>
    <rc><c>Si</c><c>   1</c></rc>
    <rc><c>Si</c><c>   1</c></rc>
    <rc><c>Si</c><c>   1</c></rc>
    <rc><c>Si</c><c>   1</c></rc>
    <rc><c>Si</c><c>   1</c></rc>
    <rc><c>Si</c><c>   1</c></rc>
    <rc><c>Si</c><c>   1</c></rc>
    <rc><c>Si</c><c>   1</c></rc>
    <rc><c>Si</c><c>   1</c></rc>
    <rc><c>Si</c><c>   1</c></rc>
    <rc><c>Si</c><c>   1</c></rc>
    <rc><c>Si</c><c>   1</c></rc>
    <rc><c>Si</c><c>   1</c></rc>
    <rc><c>Si</c><c>   1</c></rc>
    <rc><c>Si</c><c>   1</c></rc>
    <rc><c>Si</c><c>   1</c></rc>
    <rc><c>Si</c><c>   1</c></rc>
    <rc><c>Si</c><c>   1</c></rc>
    <rc><c>Si</c><c>   1</c></rc>
    <rc><c>Si</c><c>   1</c></rc>
    <rc><c>Si</c><c>   1</c></rc>
    <rc><c>Si</c><c>   1</c></rc>
    <rc><c>Si</c><c>   1</c></rc>
    <rc><c>Si</c><c>   1</c></rc>
    <rc><c>Si</c><c>   1</c></rc>
    <rc><c>Si</c><c>   1</c></rc>
    <rc><c>Si</c><c>   1</c></rc>
    <rc><c>Si</c><c>   1</c></rc>
    <rc><c>Si</c><c>   1</c></rc>
    <rc><c>Si</c><c>   1</c></rc>
    <rc><c>Si</c><c>   1</c></rc>
    <rc><c>Si</c><c>   1</c></rc>
    <rc><c>Si</c><c>   1</c></rc>
    <rc><c>Si</c><c>   1</c></rc>
    <rc><c>Si</c><c>   1</c></rc>
    <rc><c>Si</c><c>   1</c></rc>
    <rc><c>Si</c><c>   1</c></rc>
    <rc><c>Si</c><c>   1</c></rc>
    <rc><c>Si</c><c>   1</c></rc>
    <rc><c>Si</c><c>   1</c></rc>
    <rc><c>Si</c><c>   1</c></rc>
    <rc><c>Si</c><c>   1</c></rc>
    <rc><c>Si</c><c>   1</c></rc>
    <rc><c>Si</c><c>   1</c></rc>
    <rc><c>Si</c><c>   1</c></rc>
    <rc><c>Si</c><c>   1</c></rc>
    <rc><c>Si</c><c>   1</c></rc>
    <rc><c>Si</c><c>   1</c></rc>
    <rc><c>Si</c><c>   1</c></rc>
    <rc><c>Si</c><c>   1</c></rc>
    <rc><c>Si</c><c>   1</c></rc>
    <rc><c>Si</c><c>   1</c></rc>
    <rc><c>Si</c><c>   1</c></rc>
    <rc><c>Si</c><c>   1</c></rc>
    <rc><c>Si</c><c>   1</c></rc>
    <rc><c>Si</c><c>   1</c></rc>
    <rc><c>Si</c><c>   1</c></rc>
    <rc><c>Si</c><c>   1</c></rc>
    <rc><c>Si</c><c>   1</c></rc>
    <rc><c>Si</c><c>   1</c></rc>
    <rc><c>Si</c><c>   1</c></rc>
    <rc><c>Si</c><c>   1</c></rc>
    <rc><c>Si</c><c>   1</c></rc>
    <rc><c>Si</c><c>   1</c></rc>
    <rc><c>Si</c><c>   1</c></rc>
    <rc><c>Si</c><c>   1</c></rc>
    <rc><c>Si</c><c>   1</c></rc>
    <rc><c>Si</c><c>   1</c></rc>
    <rc><c>Si</c><c>   1</c></rc>
    <rc><c>Si</c><c>   1</c></rc>
    <rc><c>Si</c><c>   1</c></rc>
    <rc><c>Si</c><c>   1</c></rc>
    <rc><c>Si</c><c>   1</c></rc>
    <rc><c>Si</c><c>   1</c></rc>
    <rc><c>Si</c><c>   1</c></rc>
    <rc><c>Si</c><c>   1</c></rc>
    <rc><c>Si</c><c>   1</c></rc>
    <rc><c>Si</c><c>   1</c></rc>
    <rc><c>Si</c><c>   1</c></rc>
    <rc><c>Si</c><c>   1</c></rc>
    <rc><c>Si</c><c>   1</c></rc>
    <rc><c>Si</c><c>   1</c></rc>
    <rc><c>Si</c><c>   1</c></rc>
    <rc><c>Si</c><c>   1</c></rc>
    <rc><c>Si</c><c>   1</c></rc>
    <rc><c>Si</c><c>   1</c></rc>
    <rc><c>Si</c><c>   1</c></rc>
    <rc><c>Si</c><c>   1</c></rc>
    <rc><c>Si</c><c>   1</c></rc>
    <rc><c>Si</c><c>   1</c></rc>
    <rc><c>Si</c><c>   1</c></rc>
    <rc><c>Si</c><c>   1</c></rc>
    <rc><c>Si</c><c>   1</c></rc>
    <rc><c>Si</c><c>   1</c></rc>
    <rc><c>Si</c><c>   1</c></rc>
    <rc><c>Si</c><c>   1</c></rc>
    <rc><c>Si</c><c>   1</c></rc>
    <rc><c>Si</c><c>   1</c></rc>
    <rc><c>Si</c><c>   1</c></rc>
    <rc><c>Si</c><c>   1</c></rc>
    <rc><c>Si</c><c>   1</c></rc>
    <rc><c>Si</c><c>   1</c></rc>
    <rc><c>Si</c><c>   1</c></rc>
    <rc><c>Si</c><c>   1</c></rc>
    <rc><c>Si</c><c>   1</c></rc>
    <rc><c>Si</c><c>   1</c></rc>
    <rc><c>Si</c><c>   1</c></rc>
    <rc><c>Si</c><c>   1</c></rc>
    <rc><c>Si</c><c>   1</c></rc>
    <rc><c>Si</c><c>   1</c></rc>
    <rc><c>Si</c><c>   1</c></rc>
    <rc><c>Si</c><c>   1</c></rc>
    <rc><c>Si</c><c>   1</c></rc>
    <rc><c>Si</c><c>   1</c></rc>
    <rc><c>Si</c><c>   1</c></rc>
    <rc><c>Si</c><c>   1</c></rc>
    <rc><c>Si</c><c>   1</c></rc>
    <rc><c>Si</c><c>   1</c></rc>
    <rc><c>Si</c><c>   1</c></rc>
   </set>
  </array>
  <array name="atomtypes" >
   <dimension dim="1">type</dimension>
   <field type="int">atomspertype</field>
   <field type="string">element</field>
   <field>mass</field>
   <field>valence</field>
   <field type="string">pseudopotential</field>
   <set>
    <rc><c> 128</c><c>Si</c><c>     28.08500000</c><c>      4.00000000</c><c> PAW_PBE Si 05Jan2001                   </c></rc>
   </set>
  </array>
 </atominfo>
 <structure name="initialpos" >
  <crystal>
   <varray name="basis" >
    <v>       0.00000000      10.93733369      10.93733369 </v>
    <v>      10.93733369       0.00000000      10.93733369 </v>
    <v>      10.93733369      10.93733369       0.00000000 </v>
   </varray>
   <i name="volume">   2616.76295363 </i>
   <varray name="rec_basis" >
    <v>      -0.04571498       0.04571498       0.04571498 </v>
    <v>       0.04571498      -0.04571498       0.04571498 </v>
    <v>       0.04571498       0.04571498      -0.04571498 </v>
   </varray>
  </crystal>
  <varray name="positions" >
   <v>       0.99203560       0.00665368       0.99882961 </v>
   <v>       0.24122058       0.00020482       0.00021272 </v>
   <v>       0.49743484       0.00546948       0.99091010 </v>
   <v>       0.75079719       0.99371222       0.00044576 </v>
   <v>       0.00622020       0.24389966       0.00131559 </v>
   <v>       0.24337948       0.25473165       0.99696510 </v>
   <v>       0.50225060       0.24256432       0.00890392 </v>
   <v>       0.74548094       0.24898094       0.00619697 </v>
   <v>       0.99578455       0.50389125       0.99504464 </v>
   <v>       0.24152749       0.51073217       0.99906073 </v>
   <v>       0.50719083       0.49942231       0.00261743 </v>
   <v>       0.75838932       0.50137912       0.99222669 </v>
   <v>       0.99593426       0.76501480       0.99692997 </v>
   <v>       0.25572823       0.75444773       0.00185201 </v>
   <v>       0.50576111       0.75744446       0.99732373 </v>
   <v>       0.74508416       0.75520265       0.99658489 </v>
   <v>       0.99593023       0.00750063       0.25567563 </v>
   <v>       0.25950039       0.00265391       0.23892294 </v>
   <v>       0.49769216       0.99892457       0.26115636 </v>
   <v>       0.74818435       0.00069859       0.24770789 </v>
   <v>       0.99502526       0.26677931       0.24436223 </v>
   <v>       0.25131638       0.23687550       0.25086322 </v>
   <v>       0.49953548       0.25819596       0.25159487 </v>
   <v>       0.75107366       0.24870232       0.24621384 </v>
   <v>       0.00447819       0.50115838       0.25399800 </v>
   <v>       0.24565177       0.50845086       0.23367495 </v>
   <v>       0.49821840       0.49858778       0.25562566 </v>
   <v>       0.75440813       0.48474198       0.25589930 </v>
   <v>       0.99842494       0.74669420       0.25567681 </v>
   <v>       0.25606084       0.73709010       0.25602067 </v>
   <v>       0.50868336       0.75076111       0.24716100 </v>
   <v>       0.74620624       0.74374782       0.25231559 </v>
   <v>       0.00778755       0.00025879       0.49775710 </v>
   <v>       0.24609784       0.00795618       0.50012169 </v>
   <v>       0.49477890       0.01130079       0.50762560 </v>
   <v>       0.73577628       0.00793857       0.51110311 </v>
   <v>       0.99772596       0.25888122       0.50435087 </v>
   <v>       0.23700739       0.26349739       0.48502031 </v>
   <v>       0.50145925       0.24159535       0.50352528 </v>
   <v>       0.74742433       0.25446939       0.50637110 </v>
   <v>       0.99947350       0.51441692       0.49940444 </v>
   <v>       0.24129579       0.48924016       0.51726631 </v>
   <v>       0.50368067       0.50117188       0.50552962 </v>
   <v>       0.74930764       0.50395852       0.49680397 </v>
   <v>       0.99177746       0.74995309       0.50661027 </v>
   <v>       0.25815392       0.72989547       0.50034361 </v>
   <v>       0.50731439       0.74644620       0.49521743 </v>
   <v>       0.74339439       0.76095670       0.49064202 </v>
   <v>       0.00750313       0.98926657       0.74287616 </v>
   <v>       0.26434353       0.99973741       0.73916017 </v>
   <v>       0.50060499       0.00847126       0.74175237 </v>
   <v>       0.75120588       0.99805333       0.74912611 </v>
   <v>       0.00855719       0.24600534       0.74573364 </v>
   <v>       0.24787165       0.24863676       0.74774352 </v>
   <v>       0.49436097       0.24718312       0.76826505 </v>
   <v>       0.76111047       0.25213575       0.75028500 </v>
   <v>       0.98949149       0.49993057       0.75071810 </v>
   <v>       0.25152544       0.49565012       0.74929221 </v>
   <v>       0.51152237       0.49286678       0.75394101 </v>
   <v>       0.75675422       0.49696802       0.74671067 </v>
   <v>       0.00042547       0.75211363       0.74673124 </v>
   <v>       0.26065988       0.74623981       0.74052867 </v>
   <v>       0.50617069       0.75154868       0.74443874 </v>
   <v>       0.74203964       0.74837291       0.75009437 </v>
   <v>       0.05338603       0.06047605       0.06118435 </v>
   <v>       0.31497807       0.07700707       0.05511913 </v>
   <v>       0.55891144       0.05862660       0.06893404 </v>
   <v>       0.81139168       0.06133849       0.05578901 </v>
   <v>       0.06315542       0.31300463       0.06048236 </v>
   <v>       0.31524504       0.30403460       0.07193244 </v>
   <v>       0.56997731       0.31416075       0.06269459 </v>
   <v>       0.80883852       0.32062248       0.06881359 </v>
   <v>       0.06440624       0.57530262       0.05980534 </v>
   <v>       0.31270719       0.55880362       0.06678788 </v>
   <v>       0.56385204       0.56402881       0.07480677 </v>
   <v>       0.81378329       0.56528006       0.07174584 </v>
   <v>       0.06635044       0.79816058       0.07434166 </v>
   <v>       0.30416039       0.81496132       0.06772542 </v>
   <v>       0.56657794       0.80932433       0.06173768 </v>
   <v>       0.81011838       0.81658743       0.06618848 </v>
   <v>       0.06938779       0.07066641       0.30096417 </v>
   <v>       0.31562766       0.06725663       0.31565751 </v>
   <v>       0.56934263       0.05856922       0.30911329 </v>
   <v>       0.80926094       0.05848044       0.31021418 </v>
   <v>       0.06414650       0.30018893       0.31990480 </v>
   <v>       0.31962529       0.31253132       0.31308160 </v>
   <v>       0.56962935       0.31942713       0.29788174 </v>
   <v>       0.80214866       0.31337580       0.31306862 </v>
   <v>       0.06039885       0.56624703       0.31397372 </v>
   <v>       0.32071745       0.55905092       0.31775612 </v>
   <v>       0.55654899       0.56871374       0.30842573 </v>
   <v>       0.81678164       0.56462589       0.30358673 </v>
   <v>       0.07221727       0.80252585       0.30433463 </v>
   <v>       0.31631619       0.81292816       0.31609197 </v>
   <v>       0.56168970       0.81285443       0.32261867 </v>
   <v>       0.82177375       0.81554957       0.30792327 </v>
   <v>       0.07440492       0.05145113       0.56892837 </v>
   <v>       0.31813054       0.07047544       0.55141183 </v>
   <v>       0.56017237       0.06914808       0.55668594 </v>
   <v>       0.82076505       0.06189191       0.55203690 </v>
   <v>       0.06126069       0.31590083       0.56296993 </v>
   <v>       0.31496691       0.30758262       0.56630461 </v>
   <v>       0.56011003       0.31643856       0.55374803 </v>
   <v>       0.81039922       0.31818418       0.56383894 </v>
   <v>       0.06028178       0.56653505       0.56925929 </v>
   <v>       0.31435500       0.55639437       0.56659690 </v>
   <v>       0.56325961       0.57021108       0.55457660 </v>
   <v>       0.81237246       0.54117029       0.57344040 </v>
   <v>       0.06477283       0.82170107       0.55639330 </v>
   <v>       0.31678858       0.81160125       0.55744546 </v>
   <v>       0.56433298       0.79539775       0.56725133 </v>
   <v>       0.81394517       0.81194653       0.56329097 </v>
   <v>       0.06795834       0.06252602       0.82075158 </v>
   <v>       0.31540006       0.06533714       0.80642368 </v>
   <v>       0.56504097       0.05626580       0.81461488 </v>
   <v>       0.81784083       0.06305537       0.80687527 </v>
   <v>       0.05673232       0.31771862       0.81986429 </v>
   <v>       0.30962708       0.31057247       0.81222290 </v>
   <v>       0.56247363       0.29287786       0.82394951 </v>
   <v>       0.82712505       0.30941373       0.80721916 </v>
   <v>       0.06590203       0.56993056       0.80700812 </v>
   <v>       0.30643858       0.56690635       0.82240597 </v>
   <v>       0.56180817       0.55770934       0.81827564 </v>
   <v>       0.80835601       0.56432384       0.80764314 </v>
   <v>       0.06112308       0.80710734       0.81112684 </v>
   <v>       0.31571155       0.81184202       0.80502603 </v>
   <v>       0.56748231       0.81007242       0.81591603 </v>
   <v>       0.80959882       0.81752198       0.81750309 </v>
  </varray>
 </structure>
 <calculation>
  <scstep>
   <time name="dav">   70.01   70.02</time>
   <time name="total">   71.00   71.02</time>
   <energy>
    <i name="alphaZ">    210.77028614 </i>
    <i name="ewald"> -14472.31361748 </i>
    <i name="hartreedc">   -753.07047241 </i>
    <i name="XCdc">  -1195.28379216 </i>
    <i name="pawpsdc">   4221.13331941 </i>
    <i name="pawaedc">  -1969.18571412 </i>
    <i name="eentropy">     -0.00025226 </i>
    <i name="bandstr">   2149.58895480 </i>
    <i name="atom">  13192.48085998 </i>
    <i name="e_fr_energy">   1384.11957191 </i>
    <i name="e_wo_entrp">   1384.11982417 </i>
    <i name="e_0_energy">   1384.11969804 </i>
   </energy>
  </scstep>
  <scstep>
   <time name="dav">   79.79   79.81</time>
   <time name="total">   79.80   79.81</time>
   <energy>
    <i name="e_fr_energy">   -536.33833006 </i>
    <i name="e_wo_entrp">   -536.33833006 </i>
    <i name="e_0_energy">   -536.33833006 </i>
   </energy>
  </scstep>
  <scstep>
   <time name="dav">   81.79   81.81</time>
   <time name="total">   81.79   81.81</time>
   <energy>
    <i name="e_fr_energy">   -686.07530225 </i>
    <i name="e_wo_entrp">   -686.07530225 </i>
    <i name="e_0_energy">   -686.07530225 </i>
   </energy>
  </scstep>
  <scstep>
   <time name="dav">   80.67   80.69</time>
   <time name="total">   80.67   80.69</time>
   <energy>
    <i name="e_fr_energy">   -690.25996869 </i>
    <i name="e_wo_entrp">   -690.25996869 </i>
    <i name="e_0_energy">   -690.25996869 </i>
   </energy>
  </scstep>
  <scstep>
   <time name="dav">   81.71   81.74</time>
   <time name="total">   84.95   84.98</time>
   <energy>
    <i name="e_fr_energy">   -690.40250876 </i>
    <i name="e_wo_entrp">   -690.40250876 </i>
    <i name="e_0_energy">   -690.40250876 </i>
   </energy>
  </scstep>
  <scstep>
   <time name="dav">   77.80   77.84</time>
   <time name="total">   82.03   82.07</time>
   <energy>
    <i name="e_fr_energy">   -681.93241322 </i>
    <i name="e_wo_entrp">   -681.93241322 </i>
    <i name="e_0_energy">   -681.93241322 </i>
   </energy>
  </scstep>
  <scstep>
   <time name="dav">   76.65   76.66</time>
   <time name="total">   80.88   80.89</time>
   <energy>
    <i name="e_fr_energy">   -678.39120990 </i>
    <i name="e_wo_entrp">   -678.39120990 </i>
    <i name="e_0_energy">   -678.39120990 </i>
   </energy>
  </scstep>
  <scstep>
   <time name="dav">   76.80   76.82</time>
   <time name="total">   81.04   81.06</time>
   <energy>
    <i name="e_fr_energy">   -678.44703106 </i>
    <i name="e_wo_entrp">   -678.44703106 </i>
    <i name="e_0_energy">   -678.44703106 </i>
   </energy>
  </scstep>
  <scstep>
   <time name="dav">   79.51   79.53</time>
   <time name="total">   83.74   83.77</time>
   <energy>
    <i name="e_fr_energy">   -678.46892733 </i>
    <i name="e_wo_entrp">   -678.46892733 </i>
    <i name="e_0_energy">   -678.46892733 </i>
   </energy>
  </scstep>
  <scstep>
   <time name="dav">   79.11   79.13</time>
   <time name="total">   83.36   83.37</time>
   <energy>
    <i name="e_fr_energy">   -678.47144675 </i>
    <i name="e_wo_entrp">   -678.47144675 </i>
    <i name="e_0_energy">   -678.47144675 </i>
   </energy>
  </scstep>
  <scstep>
   <time name="dav">   76.51   76.52</time>
   <time name="total">   80.76   80.77</time>
   <energy>
    <i name="e_fr_energy">   -678.47292022 </i>
    <i name="e_wo_entrp">   -678.47292022 </i>
    <i name="e_0_energy">   -678.47292022 </i>
   </energy>
  </scstep>
  <scstep>
   <time name="dav">   79.59   79.60</time>
   <time name="total">   83.83   83.85</time>
   <energy>
    <i name="e_fr_energy">   -678.47297064 </i>
    <i name="e_wo_entrp">   -678.47297064 </i>
    <i name="e_0_energy">   -678.47297064 </i>
   </energy>
  </scstep>
  <scstep>
   <time name="dav">   76.32   76.34</time>
   <time name="total">   80.57   80.60</time>
   <energy>
    <i name="e_fr_energy">   -678.47299903 </i>
    <i name="e_wo_entrp">   -678.47299903 </i>
    <i name="e_0_energy">   -678.47299903 </i>
   </energy>
  </scstep>
  <scstep>
   <time name="dav">   80.22   80.24</time>
   <time name="total">   84.48   84.50</time>
   <energy>
    <i name="e_fr_energy">   -678.47300242 </i>
    <i name="e_wo_entrp">   -678.47300242 </i>
    <i name="e_0_energy">   -678.47300242 </i>
   </energy>
  </scstep>
  <scstep>
   <time name="dav">   78.96   78.97</time>
   <time name="total">   83.21   83.23</time>
   <energy>
    <i name="e_fr_energy">   -678.47300641 </i>
    <i name="e_wo_entrp">   -678.47300641 </i>
    <i name="e_0_energy">   -678.47300641 </i>
   </energy>
  </scstep>
  <scstep>
   <time name="dav">   79.32   79.34</time>
   <time name="total">   83.49   83.51</time>
   <energy>
    <i name="e_fr_energy">   -678.47300591 </i>
    <i name="e_wo_entrp">   -678.47300591 </i>
    <i name="e_0_energy">   -678.47300591 </i>
   </energy>
  </scstep>
  <scstep>
   <time name="dav">   60.99   61.01</time>
   <time name="total">   65.16   65.18</time>
   <energy>
    <i name="e_fr_energy">   -678.47300572 </i>
    <i name="e_wo_entrp">   -678.47300572 </i>
    <i name="e_0_energy">   -678.47300572 </i>
   </energy>
  </scstep>
  <scstep>
   <time name="dav">   51.83   51.85</time>
   <time name="total">   56.01   56.02</time>
   <energy>
    <i name="e_fr_energy">   -678.47300587 </i>
    <i name="e_wo_entrp">   -678.47300587 </i>
    <i name="e_0_energy">   -678.47300587 </i>
   </energy>
  </scstep>
  <scstep>
   <time name="dav">   50.60   50.61</time>
   <time name="total">   54.76   54.78</time>
   <energy>
    <i name="e_fr_energy">   -678.47300583 </i>
    <i name="e_wo_entrp">   -678.47300583 </i>
    <i name="e_0_energy">   -678.47300583 </i>
   </energy>
  </scstep>
  <scstep>
   <time name="dav">   50.12   50.14</time>
   <time name="total">   54.29   54.31</time>
   <energy>
    <i name="e_fr_energy">   -678.47300584 </i>
    <i name="e_wo_entrp">   -678.47300584 </i>
    <i name="e_0_energy">   -678.47300584 </i>
   </energy>
  </scstep>
  <scstep>
   <time name="dav">   50.08   50.09</time>
   <time name="total">   51.07   51.09</time>
   <energy>
    <i name="alphaZ">    210.77028614 </i>
    <i name="ewald"> -14472.31361748 </i>
    <i name="hartreedc">   -998.72407289 </i>
    <i name="XCdc">  -1155.72004056 </i>
    <i name="pawpsdc">   4733.66883990 </i>
    <i name="pawaedc">  -2495.47632369 </i>
    <i name="eentropy">     -0.00000000 </i>
    <i name="bandstr">    306.84106275 </i>
    <i name="atom">  13192.48085998 </i>
    <i name="e_fr_energy">   -678.47300584 </i>
    <i name="e_wo_entrp">   -678.47300584 </i>
    <i name="e_0_energy">   -678.47300584 </i>
   </energy>
  </scstep>
  <structure>
   <crystal>
    <varray name="basis" >
     <v>       0.00000000      10.93733369      10.93733369 </v>
     <v>      10.93733369       0.00000000      10.93733369 </v>
     <v>      10.93733369      10.93733369       0.00000000 </v>
    </varray>
    <i name="volume">   2616.76295363 </i>
    <varray name="rec_basis" >
     <v>      -0.04571498       0.04571498       0.04571498 </v>
     <v>       0.04571498      -0.04571498       0.04571498 </v>
     <v>       0.04571498       0.04571498      -0.04571498 </v>
    </varray>
   </crystal>
   <varray name="positions" >
    <v>       0.99203560       0.00665368       0.99882961 </v>
    <v>       0.24122058       0.00020482       0.00021272 </v>
    <v>       0.49743484       0.00546948       0.99091010 </v>
    <v>       0.75079719       0.99371222       0.00044576 </v>
    <v>       0.00622020       0.24389966       0.00131559 </v>
    <v>       0.24337948       0.25473165       0.99696510 </v>
    <v>       0.50225060       0.24256432       0.00890392 </v>
    <v>       0.74548094       0.24898094       0.00619697 </v>
    <v>       0.99578455       0.50389125       0.99504464 </v>
    <v>       0.24152749       0.51073217       0.99906073 </v>
    <v>       0.50719083       0.49942231       0.00261743 </v>
    <v>       0.75838932       0.50137912       0.99222669 </v>
    <v>       0.99593426       0.76501480       0.99692997 </v>
    <v>       0.25572823       0.75444773       0.00185201 </v>
    <v>       0.50576111       0.75744446       0.99732373 </v>
    <v>       0.74508416       0.75520265       0.99658489 </v>
    <v>       0.99593023       0.00750063       0.25567563 </v>
    <v>       0.25950039       0.00265391       0.23892294 </v>
    <v>       0.49769216       0.99892457       0.26115636 </v>
    <v>       0.74818435       0.00069859       0.24770789 </v>
    <v>       0.99502526       0.26677931       0.24436223 </v>
    <v>       0.25131638       0.23687550       0.25086322 </v>
    <v>       0.49953548       0.25819596       0.25159487 </v>
    <v>       0.75107366       0.24870232       0.24621384 </v>
    <v>       0.00447819       0.50115838       0.25399800 </v>
    <v>       0.24565177       0.50845086       0.23367495 </v>
    <v>       0.49821840       0.49858778       0.25562566 </v>
    <v>       0.75440813       0.48474198       0.25589930 </v>
    <v>       0.99842494       0.74669420       0.25567681 </v>
    <v>       0.25606084       0.73709010       0.25602067 </v>
    <v>       0.50868336       0.75076111       0.24716100 </v>
    <v>       0.74620624       0.74374782       0.25231559 </v>
    <v>       0.00778755       0.00025879       0.49775710 </v>
    <v>       0.24609784       0.00795618       0.50012169 </v>
    <v>       0.49477890       0.01130079       0.50762560 </v>
    <v>       0.73577628       0.00793857       0.51110311 </v>
    <v>       0.99772596       0.25888122       0.50435087 </v>
    <v>       0.23700739       0.26349739       0.48502031 </v>
    <v>       0.50145925       0.24159535       0.50352528 </v>
    <v>       0.74742433       0.25446939       0.50637110 </v>
    <v>       0.99947350       0.51441692       0.49940444 </v>
    <v>       0.24129579       0.48924016       0.51726631 </v>
    <v>       0.50368067       0.50117188       0.50552962 </v>
    <v>       0.74930764       0.50395852       0.49680397 </v>
    <v>       0.99177746       0.74995309       0.50661027 </v>
    <v>       0.25815392       0.72989547       0.50034361 </v>
    <v>       0.50731439       0.74644620       0.49521743 </v>
    <v>       0.74339439       0.76095670       0.49064202 </v>
    <v>       0.00750313       0.98926657       0.74287616 </v>
    <v>       0.26434353       0.99973741       0.73916017 </v>
    <v>       0.50060499       0.00847126       0.74175237 </v>
    <v>       0.75120588       0.99805333       0.74912611 </v>
    <v>       0.00855719       0.24600534       0.74573364 </v>
    <v>       0.24787165       0.24863676       0.74774352 </v>
    <v>       0.49436097       0.24718312       0.76826505 </v>
    <v>       0.76111047       0.25213575       0.75028500 </v>
    <v>       0.98949149       0.49993057       0.75071810 </v>
    <v>       0.25152544       0.49565012       0.74929221 </v>
    <v>       0.51152237       0.49286678       0.75394101 </v>
    <v>       0.75675422       0.49696802       0.74671067 </v>
    <v>       0.00042547       0.75211363       0.74673124 </v>
    <v>       0.26065988       0.74623981       0.74052867 </v>
    <v>       0.50617069       0.75154868       0.74443874 </v>
    <v>       0.74203964       0.74837291       0.75009437 </v>
    <v>       0.05338603       0.06047605       0.06118435 </v>
    <v>       0.31497807       0.07700707       0.05511913 </v>
    <v>       0.55891144       0.05862660       0.06893404 </v>
    <v>       0.81139168       0.06133849       0.05578901 </v>
    <v>       0.06315542       0.31300463       0.06048236 </v>
    <v>       0.31524504       0.30403460       0.07193244 </v>
    <v>       0.56997731       0.31416075       0.06269459 </v>
    <v>       0.80883852       0.32062248       0.06881359 </v>
    <v>       0.06440624       0.57530262       0.05980534 </v>
    <v>       0.31270719       0.55880362       0.06678788 </v>
    <v>       0.56385204       0.56402881       0.07480677 </v>
    <v>       0.81378329       0.56528006       0.07174584 </v>
    <v>       0.06635044       0.79816058       0.07434166 </v>
    <v>       0.30416039       0.81496132       0.06772542 </v>
    <v>       0.56657794       0.80932433       0.06173768 </v>
    <v>       0.81011838       0.81658743       0.06618848 </v>
    <v>       0.06938779       0.07066641       0.30096417 </v>
    <v>       0.31562766       0.06725663       0.31565751 </v>
    <v>       0.56934263       0.05856922       0.30911329 </v>
    <v>       0.80926094       0.05848044       0.31021418 </v>
    <v>       0.06414650       0.30018893       0.31990480 </v>
    <v>       0.31962529       0.31253132       0.31308160 </v>
    <v>       0.56962935       0.31942713       0.29788174 </v>
    <v>       0.80214866       0.31337580       0.31306862 </v>
    <v>       0.06039885       0.56624703       0.31397372 </v>
    <v>       0.32071745       0.55905092       0.31775612 </v>
    <v>       0.55654899       0.56871374       0.30842573 </v>
    <v>       0.81678164       0.56462589       0.30358673 </v>
    <v>       0.07221727       0.80252585       0.30433463 </v>
    <v>       0.31631619       0.81292816       0.31609197 </v>
    <v>       0.56168970       0.81285443       0.32261867 </v>
    <v>       0.82177375       0.81554957       0.30792327 </v>
    <v>       0.07440492       0.05145113       0.56892837 </v>
    <v>       0.31813054       0.07047544       0.55141183 </v>
    <v>       0.56017237       0.06914808       0.55668594 </v>
    <v>       0.82076505       0.06189191       0.55203690 </v>
    <v>       0.06126069       0.31590083       0.56296993 </v>
    <v>       0.31496691       0.30758262       0.56630461 </v>
    <v>       0.56011003       0.31643856       0.55374803 </v>
    <v>       0.81039922       0.31818418       0.56383894 </v>
    <v>       0.06028178       0.56653505       0.56925929 </v>
    <v>       0.31435500       0.55639437       0.56659690 </v>
    <v>       0.56325961       0.57021108       0.55457660 </v>
    <v>       0.81237246       0.54117029       0.57344040 </v>
    <v>       0.06477283       0.82170107       0.55639330 </v>
    <v>       0.31678858       0.81160125       0.55744546 </v>
    <v>       0.56433298       0.79539775       0.56725133 </v>
    <v>       0.81394517       0.81194653       0.56329097 </v>
    <v>       0.06795834       0.06252602       0.82075158 </v>
    <v>       0.31540006       0.06533714       0.80642368 </v>
    <v>       0.56504097       0.05626580       0.81461488 </v>
    <v>       0.81784083       0.06305537       0.80687527 </v>
    <v>       0.05673232       0.31771862       0.81986429 </v>
    <v>       0.30962708       0.31057247       0.81222290 </v>
    <v>       0.56247363       0.29287786       0.82394951 </v>
    <v>       0.82712505       0.30941373       0.80721916 </v>
    <v>       0.06590203       0.56993056       0.80700812 </v>
    <v>       0.30643858       0.56690635       0.82240597 </v>
    <v>       0.56180817       0.55770934       0.81827564 </v>
    <v>       0.80835601       0.56432384       0.80764314 </v>
    <v>       0.06112308       0.80710734       0.81112684 </v>
    <v>       0.31571155       0.81184202       0.80502603 </v>
    <v>       0.56748231       0.81007242       0.81591603 </v>
    <v>       0.80959882       0.81752198       0.81750309 </v>
   </varray>
  </structure>
  <varray name="forces" >
   <v>      -1.03155284       1.21066167      -1.32302679 </v>
   <v>       0.41339407       0.30821950       1.05319346 </v>
   <v>       0.50880352       1.90629390      -0.72084054 </v>
   <v>       0.66946630      -1.32323822       0.69043344 </v>
   <v>       1.04359795      -0.59534306      -0.75932343 </v>
   <v>       0.71405601       0.68899163       1.29358058 </v>
   <v>       0.53659316       0.04989632       0.44118481 </v>
   <v>      -1.13241288       0.97635962       1.81934140 </v>
   <v>       0.28208874       1.12681363       1.06587781 </v>
   <v>      -0.44454593       2.22879444      -0.50868364 </v>
   <v>       0.81581415      -0.06151021      -0.34738001 </v>
   <v>       1.78742566       0.16631906      -0.19514693 </v>
   <v>      -0.79100096       0.41489283      -0.66532808 </v>
   <v>      -1.78519207      -1.13588592      -1.39912149 </v>
   <v>      -0.07068930      -0.49164662      -2.37587192 </v>
   <v>       0.25746235       1.99838997       0.41871721 </v>
   <v>      -1.93768354      -0.27948863      -0.65312720 </v>
   <v>       0.93667004       0.68017535      -0.27006160 </v>
   <v>      -1.07241072      -0.53876568       0.19047251 </v>
   <v>      -1.32364092       0.00962463       0.66321639 </v>
   <v>      -0.76606206       0.02292428      -1.61119581 </v>
   <v>       2.49724921      -0.37535986       1.74690037 </v>
   <v>      -1.97076681       0.23647999      -0.44479839 </v>
   <v>       0.01810693       0.67955217      -0.59450292 </v>
   <v>      -1.18601783      -0.57549181      -0.55080492 </v>
   <v>       2.22655320       3.57430742      -1.57256460 </v>
   <v>      -0.06943825       0.19911035       0.55604500 </v>
   <v>       2.20696478      -1.92952730       1.30217643 </v>
   <v>      -0.58432448       0.01121225       0.43519659 </v>
   <v>       0.90796717      -0.37830535       1.46496189 </v>
   <v>       0.82246966      -0.44299883      -0.34566930 </v>
   <v>       0.99351839       0.19816195       1.70176574 </v>
   <v>      -0.05242978      -0.94745851       1.16874371 </v>
   <v>      -1.87694773       1.74758513       0.74242874 </v>
   <v>      -3.66233261      -0.58900507      -1.03472919 </v>
   <v>      -2.83234097       0.51736583       0.98020868 </v>
   <v>      -1.36172413       0.06532182      -1.42930886 </v>
   <v>       0.41586322       3.23300850       0.03110030 </v>
   <v>       0.75646465      -2.15275222       2.11269243 </v>
   <v>      -1.17391986      -0.40775061      -0.38234415 </v>
   <v>      -0.85979800       0.19212655      -1.47374609 </v>
   <v>      -0.65508069      -0.14883162       2.00326391 </v>
   <v>      -1.20201365      -1.74842092      -0.54787592 </v>
   <v>      -0.90759203      -0.68971860      -0.14754911 </v>
   <v>      -0.80294095       0.34355501       2.17555432 </v>
   <v>       2.58158237      -1.28909873       1.68653118 </v>
   <v>       1.70078094      -0.49182447      -1.28931650 </v>
   <v>      -0.50749964       2.10591794      -0.32860296 </v>
   <v>       2.35502072       1.31117539      -0.21694314 </v>
   <v>       0.59970360      -0.57047492      -0.83035740 </v>
   <v>      -0.13701006       0.93688437      -0.74583969 </v>
   <v>       0.17756477      -0.58426393       1.09928274 </v>
   <v>       0.66766739       0.92208999       0.33291867 </v>
   <v>       0.85949329       0.14541637      -0.14197610 </v>
   <v>      -2.82671187      -2.23011866      -0.72378737 </v>
   <v>      -0.37299142      -0.94713021      -1.65214491 </v>
   <v>       0.79038734       1.19397391       1.29847074 </v>
   <v>       1.22079082       0.61192150       0.48730008 </v>
   <v>      -0.38001737      -1.35984421      -1.50652624 </v>
   <v>       0.93024348       0.22719886      -1.88412605 </v>
   <v>       0.04360111      -0.82817966      -0.16719165 </v>
   <v>       1.27016520      -0.60127755      -0.67932705 </v>
   <v>       0.61068140       1.03104006      -1.40502792 </v>
   <v>      -0.16123442       1.41954520       1.91988712 </v>
   <v>       1.08440426       1.34348297       0.58516564 </v>
   <v>      -1.41954793      -0.36643201      -1.82985465 </v>
   <v>      -0.51841573       0.24800146      -0.10566863 </v>
   <v>       1.13445644       0.03661684      -0.28375944 </v>
   <v>       0.69545995      -0.63181952       0.09255879 </v>
   <v>      -0.29457153      -2.03791702       0.81631057 </v>
   <v>       0.58711115      -1.18669545      -1.43567540 </v>
   <v>      -2.30480136      -0.26196310       0.30595298 </v>
   <v>       0.28519925      -0.91880782      -1.80189376 </v>
   <v>      -1.78497967      -1.83559620       2.79684598 </v>
   <v>      -1.30031470      -1.20721003       0.92206493 </v>
   <v>      -0.95705915      -1.32957938      -0.32473754 </v>
   <v>       0.39350414      -1.26705494       1.81260706 </v>
   <v>       0.16815685       1.61331373       1.51463795 </v>
   <v>       1.74104464      -0.57764320       0.68759059 </v>
   <v>      -1.05438886      -0.00921429      -1.07085865 </v>
   <v>       0.99855789       0.49190782       0.13264753 </v>
   <v>      -1.72776040       0.43821497      -2.11920914 </v>
   <v>       2.41693015       0.06136963       0.02373932 </v>
   <v>       1.39603754       0.87247301       0.25187752 </v>
   <v>       1.11337920      -0.28709883       1.40018384 </v>
   <v>      -0.63976418      -2.87418533       0.14214096 </v>
   <v>       1.11646141       1.52030514      -1.19017488 </v>
   <v>      -0.79852515       2.39836759      -0.58504194 </v>
   <v>      -0.11367394       0.61258224      -0.18271740 </v>
   <v>      -0.18690050      -0.86987885      -2.58600979 </v>
   <v>       0.10673437       2.10100070       0.18161489 </v>
   <v>      -0.32325699       1.13751230      -1.12984823 </v>
   <v>       2.53026839       0.50916595       0.30444839 </v>
   <v>      -1.07869463      -0.58922859      -0.05471889 </v>
   <v>      -1.59134811      -1.38053240       0.93894253 </v>
   <v>       0.08536904      -1.46328176      -1.73365549 </v>
   <v>       1.19181513      -3.01050086       0.15496432 </v>
   <v>       1.25263765      -0.94669508      -0.64093032 </v>
   <v>       0.76180317       1.65739320      -0.68040760 </v>
   <v>       1.63592226       0.43308769      -0.08008264 </v>
   <v>       1.26012225      -0.84425546       0.81365917 </v>
   <v>      -0.92450380      -1.12370373      -0.69436899 </v>
   <v>       1.08836040       1.77468442      -0.45674084 </v>
   <v>      -0.03942957       0.11782092       0.02378882 </v>
   <v>       0.05157810      -0.30156136      -0.42819527 </v>
   <v>      -1.29321604       0.83086390      -0.81904535 </v>
   <v>       0.24611601       2.31481256      -0.92701555 </v>
   <v>       0.40505588      -1.31517573       3.15159653 </v>
   <v>      -1.30164595       0.80304319      -1.29736066 </v>
   <v>      -0.51766045      -0.59243991       0.03538865 </v>
   <v>       1.36017853      -0.81729544       2.07710512 </v>
   <v>       0.92842944      -1.69389931      -1.03156338 </v>
   <v>      -2.35732151      -0.95159894       0.14144510 </v>
   <v>       0.21966334       0.65252046      -0.79577005 </v>
   <v>      -0.21736466      -1.10273684       1.21533518 </v>
   <v>      -0.09131107       0.23487463      -0.15882607 </v>
   <v>      -1.48456242      -0.32400140       0.00096271 </v>
   <v>      -0.03159415       0.08363386      -0.00968114 </v>
   <v>       1.67906980       1.33327975       3.17914947 </v>
   <v>       1.57190527       0.24039127      -0.68662973 </v>
   <v>      -0.71209775      -0.41417065      -1.51224069 </v>
   <v>      -2.76507186      -0.05432288       0.62920971 </v>
   <v>       0.10984464       0.36788065       1.40437509 </v>
   <v>       0.49792623       0.28009349       0.10883025 </v>
   <v>      -0.04480546       1.07509064       1.11418594 </v>
   <v>       0.56078839       0.71288833       0.26946196 </v>
   <v>       0.54002269      -2.18701992      -0.13870517 </v>
   <v>      -2.01961411      -0.50075313      -0.39467864 </v>
  </varray>
  <varray name="stress" >
   <v>      12.76610725      -0.73726990      -4.02511976 </v>
   <v>      -0.73726989      13.88077831       0.18096178 </v>
   <v>      -4.02511976       0.18096177      14.80526065 </v>
  </varray>
  <energy>
   <i name="e_fr_energy">   -678.47300584 </i>
   <i name="e_wo_entrp">   -678.47300584 </i>
   <i name="e_0_energy">     -0.00000000 </i>
  </energy>
  <time name="totalsc"> 1704.09 1704.56</time>
  <eigenvalues>
   <array>
    <dimension dim="1">band</dimension>
    <dimension dim="2">kpoint</dimension>
    <dimension dim="3">spin</dimension>
    <field>eigene</field>
    <field>occ</field>
    <set>
     <set comment="spin 1">
      <set comment="kpoint 1">
       <r>   -6.2950    1.0000 </r>
       <r>   -5.6610    1.0000 </r>
       <r>   -5.6279    1.0000 </r>
       <r>   -5.5826    1.0000 </r>
       <r>   -5.5591    1.0000 </r>
       <r>   -5.5352    1.0000 </r>
       <r>   -5.4986    1.0000 </r>
       <r>   -5.4595    1.0000 </r>
       <r>   -5.3701    1.0000 </r>
       <r>   -5.2920    1.0000 </r>
       <r>   -5.2470    1.0000 </r>
       <r>   -5.2205    1.0000 </r>
       <r>   -5.1863    1.0000 </r>
       <r>   -5.1453    1.0000 </r>
       <r>   -5.0945    1.0000 </r>
       <r>   -4.5219    1.0000 </r>
       <r>   -4.4589    1.0000 </r>
       <r>   -4.4441    1.0000 </r>
       <r>   -4.3704    1.0000 </r>
       <r>   -4.3507    1.0000 </r>
       <r>   -4.3124    1.0000 </r>
       <r>   -4.2727    1.0000 </r>
       <r>   -4.2647    1.0000 </r>
       <r>   -4.2582    1.0000 </r>
       <r>   -4.2115    1.0000 </r>
       <r>   -4.1669    1.0000 </r>
       <r>   -4.1339    1.0000 </r>
       <r>   -4.0724    1.0000 </r>
       <r>   -4.0356    1.0000 </r>
       <r>   -3.9478    1.0000 </r>
       <r>   -3.9322    1.0000 </r>
       <r>   -3.8843    1.0000 </r>
       <r>   -3.7856    1.0000 </r>
       <r>   -3.7706    1.0000 </r>
       <r>   -3.7436    1.0000 </r>
       <r>   -3.7140    1.0000 </r>
       <r>   -3.6991    1.0000 </r>
       <r>   -3.6889    1.0000 </r>
       <r>   -3.6819    1.0000 </r>
       <r>   -3.6442    1.0000 </r>
       <r>   -3.6143    1.0000 </r>
       <r>   -3.6081    1.0000 </r>
       <r>   -3.5807    1.0000 </r>
       <r>   -3.5651    1.0000 </r>
       <r>   -3.5463    1.0000 </r>
       <r>   -3.5239    1.0000 </r>
       <r>   -3.4956    1.0000 </r>
       <r>   -3.4756    1.0000 </r>
       <r>   -3.4313    1.0000 </r>
       <r>   -3.4249    1.0000 </r>
       <r>   -3.3963    1.0000 </r>
       <r>   -3.3781    1.0000 </r>
       <r>   -3.3621    1.0000 </r>
       <r>   -3.3172    1.0000 </r>
       <r>   -3.2027    1.0000 </r>
       <r>   -2.3979    1.0000 </r>
       <r>   -2.3334    1.0000 </r>
       <r>   -2.3149    1.0000 </r>
       <r>   -2.2770    1.0000 </r>
       <r>   -2.2400    1.0000 </r>
       <r>   -2.2063    1.0000 </r>
       <r>   -2.1766    1.0000 </r>
       <r>   -2.0961    1.0000 </r>
       <r>   -2.0620    1.0000 </r>
       <r>   -2.0451    1.0000 </r>
       <r>   -2.0235    1.0000 </r>
       <r>   -1.9927    1.0000 </r>
       <r>   -1.9382    1.0000 </r>
       <r>   -1.9174    1.0000 </r>
       <r>   -1.9064    1.0000 </r>
       <r>   -1.8636    1.0000 </r>
       <r>   -1.8393    1.0000 </r>
       <r>   -1.7351    1.0000 </r>
       <r>   -1.4175    1.0000 </r>
       <r>   -1.3565    1.0000 </r>
       <r>   -1.2855    1.0000 </r>
       <r>   -1.2613    1.0000 </r>
       <r>   -1.0204    1.0000 </r>
       <r>   -1.0028    1.0000 </r>
       <r>   -0.9560    1.0000 </r>
       <r>   -0.9491    1.0000 </r>
       <r>   -0.9277    1.0000 </r>
       <r>   -0.8946    1.0000 </r>
       <r>   -0.8755    1.0000 </r>
       <r>   -0.8544    1.0000 </r>
       <r>   -0.8358    1.0000 </r>
       <r>   -0.7782    1.0000 </r>
       <r>   -0.7628    1.0000 </r>
       <r>   -0.7279    1.0000 </r>
       <r>   -0.7006    1.0000 </r>
       <r>   -0.6603    1.0000 </r>
       <r>   -0.6504    1.0000 </r>
       <r>   -0.6422    1.0000 </r>
       <r>   -0.6174    1.0000 </r>
       <r>   -0.5821    1.0000 </r>
       <r>   -0.5553    1.0000 </r>
       <r>   -0.4932    1.0000 </r>
       <r>   -0.4760    1.0000 </r>
       <r>   -0.4307    1.0000 </r>
       <r>   -0.4101    1.0000 </r>
       <r>   -0.3309    1.0000 </r>
       <r>   -0.0249    1.0000 </r>
       <r>    0.0623    1.0000 </r>
       <r>    0.0854    1.0000 </r>
       <r>    0.1094    1.0000 </r>
       <r>    0.1633    1.0000 </r>
       <r>    0.1750    1.0000 </r>
       <r>    0.2108    1.0000 </r>
       <r>    0.2324    1.0000 </r>
       <r>    0.2555    1.0000 </r>
       <r>    0.2858    1.0000 </r>
       <r>    0.3058    1.0000 </r>
       <r>    0.3735    1.0000 </r>
       <r>    1.3972    1.0000 </r>
       <r>    1.4482    1.0000 </r>
       <r>    1.4673    1.0000 </r>
       <r>    1.5414    1.0000 </r>
       <r>    1.5602    1.0000 </r>
       <r>    1.5788    1.0000 </r>
       <r>    1.5995    1.0000 </r>
       <r>    1.6144    1.0000 </r>
       <r>    1.6240    1.0000 </r>
       <r>    1.6537    1.0000 </r>
       <r>    1.6742    1.0000 </r>
       <r>    1.6850    1.0000 </r>
       <r>    1.7078    1.0000 </r>
       <r>    1.7414    1.0000 </r>
       <r>    1.7586    1.0000 </r>
       <r>    1.7677    1.0000 </r>
       <r>    1.7769    1.0000 </r>
       <r>    1.7953    1.0000 </r>
       <r>    1.8038    1.0000 </r>
       <r>    1.8245    1.0000 </r>
       <r>    1.8311    1.0000 </r>
       <r>    1.8512    1.0000 </r>
       <r>    1.8685    1.0000 </r>
       <r>    1.8750    1.0000 </r>
       <r>    1.9014    1.0000 </r>
       <r>    1.9159    1.0000 </r>
       <r>    1.9236    1.0000 </r>
       <r>    1.9440    1.0000 </r>
       <r>    1.9526    1.0000 </r>
       <r>    1.9606    1.0000 </r>
       <r>    1.9702    1.0000 </r>
       <r>    1.9776    1.0000 </r>
       <r>    1.9914    1.0000 </r>
       <r>    2.0042    1.0000 </r>
       <r>    2.0206    1.0000 </r>
       <r>    2.0426    1.0000 </r>
       <r>    2.0607    1.0000 </r>
       <r>    2.0714    1.0000 </r>
       <r>    2.0747    1.0000 </r>
       <r>    2.0994    1.0000 </r>
       <r>    2.1112    1.0000 </r>
       <r>    2.1153    1.0000 </r>
       <r>    2.1385    1.0000 </r>
       <r>    2.1641    1.0000 </r>
       <r>    2.1710    1.0000 </r>
       <r>    2.1873    1.0000 </r>
       <r>    2.1994    1.0000 </r>
       <r>    2.2050    1.0000 </r>
       <r>    2.2194    1.0000 </r>
       <r>    2.2290    1.0000 </r>
       <r>    2.2452    1.0000 </r>
       <r>    2.2784    1.0000 </r>
       <r>    2.2819    1.0000 </r>
       <r>    2.2971    1.0000 </r>
       <r>    2.3097    1.0000 </r>
       <r>    2.3357    1.0000 </r>
       <r>    2.3368    1.0000 </r>
       <r>    2.3530    1.0000 </r>
       <r>    2.3678    1.0000 </r>
       <r>    2.4210    1.0000 </r>
       <r>    2.4430    1.0000 </r>
       <r>    2.4512    1.0000 </r>
       <r>    2.7655    1.0000 </r>
       <r>    2.7883    1.0000 </r>
       <r>    2.7933    1.0000 </r>
       <r>    2.8248    1.0000 </r>
       <r>    2.8486    1.0000 </r>
       <r>    2.9112    1.0000 </r>
       <r>    3.2024    1.0000 </r>
       <r>    3.2209    1.0000 </r>
       <r>    3.2504    1.0000 </r>
       <r>    3.2622    1.0000 </r>
       <r>    3.2965    1.0000 </r>
       <r>    3.3135    1.0000 </r>
       <r>    3.3329    1.0000 </r>
       <r>    3.3478    1.0000 </r>
       <r>    3.3780    1.0000 </r>
       <r>    3.3930    1.0000 </r>
       <r>    3.4069    1.0000 </r>
       <r>    3.4096    1.0000 </r>
       <r>    3.4383    1.0000 </r>
       <r>    3.4593    1.0000 </r>
       <r>    3.4762    1.0000 </r>
       <r>    3.4904    1.0000 </r>
       <r>    3.5040    1.0000 </r>
       <r>    3.5249    1.0000 </r>
       <r>    3.5378    1.0000 </r>
       <r>    3.5659    1.0000 </r>
       <r>    3.5827    1.0000 </r>
       <r>    3.6181    1.0000 </r>
       <r>    3.6339    1.0000 </r>
       <r>    3.6592    1.0000 </r>
       <r>    3.6809    1.0000 </r>
       <r>    3.7023    1.0000 </r>
       <r>    3.7175    1.0000 </r>
       <r>    3.7363    1.0000 </r>
       <r>    3.7545    1.0000 </r>
       <r>    3.7749    1.0000 </r>
       <r>    3.8097    1.0000 </r>
       <r>    3.8201    1.0000 </r>
       <r>    3.8375    1.0000 </r>
       <r>    3.8420    1.0000 </r>
       <r>    3.8872    1.0000 </r>
       <r>    3.9679    1.0000 </r>
       <r>    4.1283    1.0000 </r>
       <r>    4.1761    1.0000 </r>
       <r>    4.1972    1.0000 </r>
       <r>    4.2055    1.0000 </r>
       <r>    4.2603    1.0000 </r>
       <r>    4.2779    1.0000 </r>
       <r>    4.2929    1.0000 </r>
       <r>    4.3293    1.0000 </r>
       <r>    4.3461    1.0000 </r>
       <r>    4.3748    1.0000 </r>
       <r>    4.4012    1.0000 </r>
       <r>    4.4159    1.0000 </r>
       <r>    4.4473    1.0000 </r>
       <r>    4.4535    1.0000 </r>
       <r>    4.4767    1.0000 </r>
       <r>    4.5233    1.0000 </r>
       <r>    4.5617    1.0000 </r>
       <r>    4.6127    1.0000 </r>
       <r>    4.6341    1.0000 </r>
       <r>    4.6505    1.0000 </r>
       <r>    4.6701    1.0000 </r>
       <r>    4.7381    1.0000 </r>
       <r>    4.7491    1.0000 </r>
       <r>    4.7834    1.0000 </r>
       <r>    4.8911    1.0000 </r>
       <r>    4.9099    1.0000 </r>
       <r>    4.9467    1.0000 </r>
       <r>    4.9573    1.0000 </r>
       <r>    5.0291    1.0000 </r>
       <r>    5.0504    1.0000 </r>
       <r>    5.0840    1.0000 </r>
       <r>    5.1186    1.0000 </r>
       <r>    5.1912    1.0000 </r>
       <r>    5.2027    1.0000 </r>
       <r>    5.2645    1.0000 </r>
       <r>    5.3050    1.0000 </r>
       <r>    5.6586    1.0000 </r>
       <r>    5.7857    1.0000 </r>
       <r>    5.8855    1.0000 </r>
       <r>    6.1633    0.0000 </r>
       <r>    6.1957    0.0000 </r>
       <r>    6.2188    0.0000 </r>
       <r>    6.2522    0.0000 </r>
       <r>    6.2908    0.0000 </r>
       <r>    6.3358    0.0000 </r>
       <r>    6.5248    0.0000 </r>
       <r>    6.5543    0.0000 </r>
       <r>    6.5893    0.0000 </r>
       <r>    6.6479    0.0000 </r>
       <r>    6.6963    0.0000 </r>
       <r>    6.7582    0.0000 </r>
       <r>    6.8104    0.0000 </r>
       <r>    6.8343    0.0000 </r>
       <r>    6.8754    0.0000 </r>
       <r>    6.8926    0.0000 </r>
       <r>    6.9007    0.0000 </r>
       <r>    6.9121    0.0000 </r>
       <r>    6.9447    0.0000 </r>
       <r>    6.9535    0.0000 </r>
       <r>    6.9568    0.0000 </r>
       <r>    6.9798    0.0000 </r>
       <r>    6.9877    0.0000 </r>
       <r>    6.9927    0.0000 </r>
       <r>    7.0014    0.0000 </r>
       <r>    7.0249    0.0000 </r>
       <r>    7.0563    0.0000 </r>
       <r>    7.0726    0.0000 </r>
       <r>    7.0981    0.0000 </r>
       <r>    7.1158    0.0000 </r>
       <r>    7.1250    0.0000 </r>
       <r>    7.1731    0.0000 </r>
       <r>    7.1821    0.0000 </r>
       <r>    7.1962    0.0000 </r>
       <r>    7.2240    0.0000 </r>
       <r>    7.2450    0.0000 </r>
       <r>    7.2645    0.0000 </r>
       <r>    7.3214    0.0000 </r>
       <r>    7.3285    0.0000 </r>
       <r>    7.3568    0.0000 </r>
       <r>    7.4583    0.0000 </r>
       <r>    7.4834    0.0000 </r>
       <r>    7.5050    0.0000 </r>
       <r>    7.5097    0.0000 </r>
       <r>    7.5187    0.0000 </r>
       <r>    7.5413    0.0000 </r>
       <r>    7.5712    0.0000 </r>
       <r>    7.6230    0.0000 </r>
       <r>    7.8375    0.0000 </r>
       <r>    7.8718    0.0000 </r>
       <r>    7.8970    0.0000 </r>
       <r>    7.9137    0.0000 </r>
       <r>    7.9314    0.0000 </r>
       <r>    7.9329    0.0000 </r>
       <r>    7.9496    0.0000 </r>
       <r>    7.9895    0.0000 </r>
       <r>    8.0161    0.0000 </r>
       <r>    8.0239    0.0000 </r>
       <r>    8.0425    0.0000 </r>
       <r>    8.0874    0.0000 </r>
       <r>    8.1473    0.0000 </r>
       <r>    8.1838    0.0000 </r>
       <r>    8.2186    0.0000 </r>
       <r>    8.5307    0.0000 </r>
       <r>    8.5729    0.0000 </r>
       <r>    8.6006    0.0000 </r>
      </set>
      <set comment="kpoint 2">
       <r>   -6.1430    1.0000 </r>
       <r>   -6.0538    1.0000 </r>
       <r>   -5.6926    1.0000 </r>
       <r>   -5.6446    1.0000 </r>
       <r>   -5.5957    1.0000 </r>
       <r>   -5.5746    1.0000 </r>
       <r>   -5.5258    1.0000 </r>
[...]
       <r>    -3.1074    42.3578   101.1653 </r>
       <r>    -3.0527    60.1442   104.4502 </r>
       <r>    -2.9981    46.9863   107.0165 </r>
       <r>    -2.9435    25.5434   108.4117 </r>
       <r>    -2.8889    39.5881   110.5739 </r>
       <r>    -2.8343    31.9520   112.3191 </r>
       <r>    -2.7797    31.8793   114.0602 </r>
       <r>    -2.7250    27.1099   115.5409 </r>
       <r>    -2.6704    36.5656   117.5381 </r>
       <r>    -2.6158    33.3887   119.3617 </r>
       <r>    -2.5612    45.4785   121.8456 </r>
       <r>    -2.5066     9.7761   122.3796 </r>
       <r>    -2.4520     6.7820   122.7500 </r>
       <r>    -2.3973     2.4427   122.8834 </r>
       <r>    -2.3427     7.0111   123.2663 </r>
       <r>    -2.2881     9.1234   123.7646 </r>
       <r>    -2.2335    20.7334   124.8971 </r>
       <r>    -2.1789    15.6896   125.7540 </r>
       <r>    -2.1243    31.4215   127.4702 </r>
       <r>    -2.0696    14.8813   128.2830 </r>
       <r>    -2.0150    32.3600   130.0504 </r>
       <r>    -1.9604    25.4042   131.4380 </r>
       <r>    -1.9058    12.5154   132.1215 </r>
       <r>    -1.8512     6.9640   132.5019 </r>
       <r>    -1.7965     9.1201   133.0000 </r>
       <r>    -1.7419     0.7691   133.0420 </r>
       <r>    -1.6873     8.0743   133.4830 </r>
       <r>    -1.6327    19.6559   134.5566 </r>
       <r>    -1.5781    35.6990   136.5064 </r>
       <r>    -1.5235    30.6335   138.1795 </r>
       <r>    -1.4688    37.4998   140.2276 </r>
       <r>    -1.4142    35.3427   142.1579 </r>
       <r>    -1.3596    49.6321   144.8688 </r>
       <r>    -1.3050    52.6697   147.7455 </r>
       <r>    -1.2504    74.3205   151.8047 </r>
       <r>    -1.1958    60.5246   155.1104 </r>
       <r>    -1.1411    46.6373   157.6576 </r>
       <r>    -1.0865    63.2264   161.1109 </r>
       <r>    -1.0319    56.9639   164.2222 </r>
       <r>    -0.9773    69.6595   168.0268 </r>
       <r>    -0.9227    64.9366   171.5735 </r>
       <r>    -0.8681    64.8827   175.1173 </r>
       <r>    -0.8134    58.4221   178.3082 </r>
       <r>    -0.7588    44.6550   180.7472 </r>
       <r>    -0.7042    53.6328   183.6765 </r>
       <r>    -0.6496    46.5150   186.2170 </r>
       <r>    -0.5950    28.7333   187.7864 </r>
       <r>    -0.5403    20.2755   188.8938 </r>
       <r>    -0.4857    20.0813   189.9906 </r>
       <r>    -0.4311    20.2635   191.0973 </r>
       <r>    -0.3765    37.9585   193.1705 </r>
       <r>    -0.3219    41.3165   195.4272 </r>
       <r>    -0.2673    58.0186   198.5960 </r>
       <r>    -0.2126    49.1466   201.2803 </r>
       <r>    -0.1580    43.3971   203.6506 </r>
       <r>    -0.1034    47.5228   206.2462 </r>
       <r>    -0.0488    42.8063   208.5842 </r>
       <r>     0.0058    53.3524   211.4981 </r>
       <r>     0.0604    20.1224   212.5972 </r>
       <r>     0.1151    20.1441   213.6974 </r>
       <r>     0.1697     5.7357   214.0107 </r>
       <r>     0.2243    12.7183   214.7053 </r>
       <r>     0.2789    24.1844   216.0262 </r>
       <r>     0.3335    25.1542   217.4001 </r>
       <r>     0.3882    19.4639   218.4631 </r>
       <r>     0.4428    26.8841   219.9315 </r>
       <r>     0.4974    19.5694   221.0003 </r>
       <r>     0.5520    25.9113   222.4156 </r>
       <r>     0.6066    17.2932   223.3601 </r>
       <r>     0.6612    26.9375   224.8313 </r>
       <r>     0.7159    27.3421   226.3247 </r>
       <r>     0.7705    13.6091   227.0680 </r>
       <r>     0.8251     7.9199   227.5005 </r>
       <r>     0.8797     4.5713   227.7502 </r>
       <r>     0.9343    23.6652   229.0427 </r>
       <r>     0.9889    17.9018   230.0205 </r>
       <r>     1.0436    20.9304   231.1637 </r>
       <r>     1.0982    32.8172   232.9561 </r>
       <r>     1.1528    28.2653   234.4999 </r>
       <r>     1.2074    24.2104   235.8222 </r>
       <r>     1.2620    23.6323   237.1130 </r>
       <r>     1.3166    30.2810   238.7669 </r>
       <r>     1.3713    28.2831   240.3116 </r>
       <r>     1.4259    29.7923   241.9388 </r>
       <r>     1.4805    80.3108   246.3252 </r>
       <r>     1.5351    92.3895   251.3713 </r>
       <r>     1.5897    83.8249   255.9496 </r>
       <r>     1.6444    89.6589   260.8466 </r>
       <r>     1.6990    64.2094   264.3536 </r>
       <r>     1.7536    58.0435   267.5238 </r>
       <r>     1.8082    50.0347   270.2566 </r>
       <r>     1.8628    34.6409   272.1486 </r>
       <r>     1.9174    19.0965   273.1916 </r>
       <r>     1.9721    22.8996   274.4423 </r>
       <r>     2.0267    24.8490   275.7995 </r>
       <r>     2.0813    77.9204   280.0553 </r>
       <r>     2.1359    98.0600   285.4111 </r>
       <r>     2.1905   104.3859   291.1124 </r>
       <r>     2.2451   127.8130   298.0933 </r>
       <r>     2.2998   112.8141   304.2550 </r>
       <r>     2.3544   109.9775   310.2617 </r>
       <r>     2.4090   102.9369   315.8839 </r>
       <r>     2.4636    91.8589   320.9010 </r>
       <r>     2.5182    37.9942   322.9761 </r>
       <r>     2.5728    18.6684   323.9958 </r>
       <r>     2.6275    39.0337   326.1277 </r>
       <r>     2.6821    70.8749   329.9987 </r>
       <r>     2.7367    82.0349   334.4793 </r>
       <r>     2.7913   110.2606   340.5015 </r>
       <r>     2.8459    75.6257   344.6320 </r>
       <r>     2.9006    88.9586   349.4908 </r>
       <r>     2.9552   102.0486   355.0644 </r>
       <r>     3.0098   111.4860   361.1535 </r>
       <r>     3.0644    92.1620   366.1872 </r>
       <r>     3.1190    66.5289   369.8209 </r>
       <r>     3.1736    75.6477   373.9526 </r>
       <r>     3.2283    86.8679   378.6971 </r>
       <r>     3.2829    88.6125   383.5369 </r>
       <r>     3.3375   101.3364   389.0717 </r>
       <r>     3.3921    94.9971   394.2602 </r>
       <r>     3.4467    89.3734   399.1416 </r>
       <r>     3.5013    94.1665   404.2848 </r>
       <r>     3.5560    78.1127   408.5511 </r>
       <r>     3.6106    82.0560   413.0328 </r>
       <r>     3.6652    68.4146   416.7695 </r>
       <r>     3.7198    70.7778   420.6352 </r>
       <r>     3.7744    85.5729   425.3090 </r>
       <r>     3.8291    93.4723   430.4142 </r>
       <r>     3.8837    95.2262   435.6153 </r>
       <r>     3.9383    72.9089   439.5974 </r>
       <r>     3.9929    54.4010   442.5686 </r>
       <r>     4.0475    60.2502   445.8593 </r>
       <r>     4.1021    66.8168   449.5087 </r>
       <r>     4.1568    66.5985   453.1462 </r>
       <r>     4.2114    75.3539   457.2619 </r>
       <r>     4.2660    76.1001   461.4183 </r>
       <r>     4.3206    65.0898   464.9734 </r>
       <r>     4.3752    77.9759   469.2322 </r>
       <r>     4.4298    78.9526   473.5444 </r>
       <r>     4.4845    63.1759   476.9950 </r>
       <r>     4.5391    48.3783   479.6373 </r>
       <r>     4.5937    66.6339   483.2767 </r>
       <r>     4.6483    65.0344   486.8287 </r>
       <r>     4.7029    45.0158   489.2874 </r>
       <r>     4.7575    29.3796   490.8920 </r>
       <r>     4.8122    20.4218   492.0074 </r>
       <r>     4.8668    20.1858   493.1099 </r>
       <r>     4.9214    42.4666   495.4294 </r>
       <r>     4.9760    36.5422   497.4252 </r>
       <r>     5.0306    38.0544   499.5036 </r>
       <r>     5.0853    27.1385   500.9859 </r>
       <r>     5.1399    31.7033   502.7174 </r>
       <r>     5.1945     6.9218   503.0955 </r>
       <r>     5.2491    12.0514   503.7537 </r>
       <r>     5.3037    10.6470   504.3352 </r>
       <r>     5.3583    15.3742   505.1749 </r>
       <r>     5.4130    25.2196   506.5524 </r>
       <r>     5.4676    19.8140   507.6345 </r>
       <r>     5.5222    24.7832   508.9881 </r>
       <r>     5.5768    14.0340   509.7546 </r>
       <r>     5.6314    12.7849   510.4529 </r>
       <r>     5.6860    19.0483   511.4933 </r>
       <r>     5.7407     0.1219   511.5000 </r>
       <r>     5.7953     4.1791   511.7283 </r>
       <r>     5.8499     0.3981   511.7500 </r>
       <r>     5.9045     4.5610   511.9991 </r>
       <r>     5.9591     0.0163   512.0000 </r>
       <r>     6.0137     0.0000   512.0000 </r>
       <r>     6.0684     0.0000   512.0000 </r>
       <r>     6.1230     5.2341   512.2859 </r>
       <r>     6.1776    13.0265   512.9973 </r>
       <r>     6.2322    22.3013   514.2154 </r>
       <r>     6.2868     8.7303   514.6922 </r>
       <r>     6.3415    24.8813   516.0512 </r>
       <r>     6.3961    20.1093   517.1495 </r>
       <r>     6.4507    25.0823   518.5194 </r>
       <r>     6.5053    29.5291   520.1322 </r>
       <r>     6.5599    20.3164   521.2419 </r>
       <r>     6.6145     9.3020   521.7500 </r>
       <r>     6.6692    16.7139   522.6628 </r>
       <r>     6.7238    25.6173   524.0620 </r>
       <r>     6.7784    44.7215   526.5046 </r>
       <r>     6.8330    26.6420   527.9597 </r>
       <r>     6.8876    26.8011   529.4235 </r>
       <r>     6.9422    32.9127   531.2211 </r>
       <r>     6.9969    55.1416   534.2328 </r>
       <r>     7.0515    44.9831   536.6897 </r>
       <r>     7.1061    32.4776   538.4636 </r>
       <r>     7.1607    23.6696   539.7563 </r>
       <r>     7.2153    32.8198   541.5489 </r>
       <r>     7.2700    56.8557   544.6542 </r>
       <r>     7.3246    76.4685   548.8307 </r>
       <r>     7.3792    83.8716   553.4116 </r>
       <r>     7.4338    77.6909   557.6548 </r>
       <r>     7.4884    81.6276   562.1132 </r>
       <r>     7.5430    82.9538   566.6439 </r>
       <r>     7.5977    87.2931   571.4116 </r>
       <r>     7.6523    81.1195   575.8422 </r>
       <r>     7.7069    89.8583   580.7501 </r>
       <r>     7.7615    88.4666   585.5819 </r>
       <r>     7.8161   101.5826   591.1301 </r>
       <r>     7.8707    98.4390   596.5067 </r>
       <r>     7.9254    95.6678   601.7318 </r>
       <r>     7.9800    82.5945   606.2430 </r>
       <r>     8.0346    98.5196   611.6239 </r>
       <r>     8.0892    79.0176   615.9396 </r>
       <r>     8.1438    69.7575   619.7496 </r>
       <r>     8.1984    84.0678   624.3412 </r>
       <r>     8.2531    93.5814   629.4524 </r>
       <r>     8.3077    72.1214   633.3915 </r>
       <r>     8.3623    86.2594   638.1028 </r>
       <r>     8.4169    72.5276   642.0640 </r>
       <r>     8.4715    21.7023   643.2494 </r>
       <r>     8.5262     1.1961   643.3147 </r>
       <r>     8.5808     7.3702   643.7172 </r>
       <r>     8.6354     5.1771   644.0000 </r>
       <r>     8.6900     0.0000   644.0000 </r>
       <r>     8.7446     0.0000   644.0000 </r>
       <r>     8.7992     0.0000   644.0000 </r>
       <r>     8.8539     0.0000   644.0000 </r>
       <r>     8.9085     0.0000   644.0000 </r>
       <r>     8.9631     0.0000   644.0000 </r>
       <r>     9.0177     0.0000   644.0000 </r>
       <r>     9.0723     0.0000   644.0000 </r>
       <r>     9.1269     0.0000   644.0000 </r>
       <r>     9.1816     0.0000   644.0000 </r>
       <r>     9.2362     0.0000   644.0000 </r>
       <r>     9.2908     0.0000   644.0000 </r>
       <r>     9.3454     0.0000   644.0000 </r>
      </set>
     </set>
    </array>
   </total>
  </dos>
 </calculation>
 <structure name="finalpos" >
  <crystal>
   <varray name="basis" >
    <v>       0.00000000      10.93733369      10.93733369 </v>
    <v>      10.93733369       0.00000000      10.93733369 </v>
    <v>      10.93733369      10.93733369       0.00000000 </v>
   </varray>
   <i name="volume">   2616.76295363 </i>
   <varray name="rec_basis" >
    <v>      -0.04571498       0.04571498       0.04571498 </v>
    <v>       0.04571498      -0.04571498       0.04571498 </v>
    <v>       0.04571498       0.04571498      -0.04571498 </v>
   </varray>
  </crystal>
  <varray name="positions" >
   <v>       0.99203560       0.00665368       0.99882961 </v>
   <v>       0.24122058       0.00020482       0.00021272 </v>
   <v>       0.49743484       0.00546948       0.99091010 </v>
   <v>       0.75079719       0.99371222       0.00044576 </v>
   <v>       0.00622020       0.24389966       0.00131559 </v>
   <v>       0.24337948       0.25473165       0.99696510 </v>
   <v>       0.50225060       0.24256432       0.00890392 </v>
   <v>       0.74548094       0.24898094       0.00619697 </v>
   <v>       0.99578455       0.50389125       0.99504464 </v>
   <v>       0.24152749       0.51073217       0.99906073 </v>
   <v>       0.50719083       0.49942231       0.00261743 </v>
   <v>       0.75838932       0.50137912       0.99222669 </v>
   <v>       0.99593426       0.76501480       0.99692997 </v>
   <v>       0.25572823       0.75444773       0.00185201 </v>
   <v>       0.50576111       0.75744446       0.99732373 </v>
   <v>       0.74508416       0.75520265       0.99658489 </v>
   <v>       0.99593023       0.00750063       0.25567563 </v>
   <v>       0.25950039       0.00265391       0.23892294 </v>
   <v>       0.49769216       0.99892457       0.26115636 </v>
   <v>       0.74818435       0.00069859       0.24770789 </v>
   <v>       0.99502526       0.26677931       0.24436223 </v>
   <v>       0.25131638       0.23687550       0.25086322 </v>
   <v>       0.49953548       0.25819596       0.25159487 </v>
   <v>       0.75107366       0.24870232       0.24621384 </v>
   <v>       0.00447819       0.50115838       0.25399800 </v>
   <v>       0.24565177       0.50845086       0.23367495 </v>
   <v>       0.49821840       0.49858778       0.25562566 </v>
   <v>       0.75440813       0.48474198       0.25589930 </v>
   <v>       0.99842494       0.74669420       0.25567681 </v>
   <v>       0.25606084       0.73709010       0.25602067 </v>
   <v>       0.50868336       0.75076111       0.24716100 </v>
   <v>       0.74620624       0.74374782       0.25231559 </v>
   <v>       0.00778755       0.00025879       0.49775710 </v>
   <v>       0.24609784       0.00795618       0.50012169 </v>
   <v>       0.49477890       0.01130079       0.50762560 </v>
   <v>       0.73577628       0.00793857       0.51110311 </v>
   <v>       0.99772596       0.25888122       0.50435087 </v>
   <v>       0.23700739       0.26349739       0.48502031 </v>
   <v>       0.50145925       0.24159535       0.50352528 </v>
   <v>       0.74742433       0.25446939       0.50637110 </v>
   <v>       0.99947350       0.51441692       0.49940444 </v>
   <v>       0.24129579       0.48924016       0.51726631 </v>
   <v>       0.50368067       0.50117188       0.50552962 </v>
   <v>       0.74930764       0.50395852       0.49680397 </v>
   <v>       0.99177746       0.74995309       0.50661027 </v>
   <v>       0.25815392       0.72989547       0.50034361 </v>
   <v>       0.50731439       0.74644620       0.49521743 </v>
   <v>       0.74339439       0.76095670       0.49064202 </v>
   <v>       0.00750313       0.98926657       0.74287616 </v>
   <v>       0.26434353       0.99973741       0.73916017 </v>
   <v>       0.50060499       0.00847126       0.74175237 </v>
   <v>       0.75120588       0.99805333       0.74912611 </v>
   <v>       0.00855719       0.24600534       0.74573364 </v>
   <v>       0.24787165       0.24863676       0.74774352 </v>
   <v>       0.49436097       0.24718312       0.76826505 </v>
   <v>       0.76111047       0.25213575       0.75028500 </v>
   <v>       0.98949149       0.49993057       0.75071810 </v>
   <v>       0.25152544       0.49565012       0.74929221 </v>
   <v>       0.51152237       0.49286678       0.75394101 </v>
   <v>       0.75675422       0.49696802       0.74671067 </v>
   <v>       0.00042547       0.75211363       0.74673124 </v>
   <v>       0.26065988       0.74623981       0.74052867 </v>
   <v>       0.50617069       0.75154868       0.74443874 </v>
   <v>       0.74203964       0.74837291       0.75009437 </v>
   <v>       0.05338603       0.06047605       0.06118435 </v>
   <v>       0.31497807       0.07700707       0.05511913 </v>
   <v>       0.55891144       0.05862660       0.06893404 </v>
   <v>       0.81139168       0.06133849       0.05578901 </v>
   <v>       0.06315542       0.31300463       0.06048236 </v>
   <v>       0.31524504       0.30403460       0.07193244 </v>
   <v>       0.56997731       0.31416075       0.06269459 </v>
   <v>       0.80883852       0.32062248       0.06881359 </v>
   <v>       0.06440624       0.57530262       0.05980534 </v>
   <v>       0.31270719       0.55880362       0.06678788 </v>
   <v>       0.56385204       0.56402881       0.07480677 </v>
   <v>       0.81378329       0.56528006       0.07174584 </v>
   <v>       0.06635044       0.79816058       0.07434166 </v>
   <v>       0.30416039       0.81496132       0.06772542 </v>
   <v>       0.56657794       0.80932433       0.06173768 </v>
   <v>       0.81011838       0.81658743       0.06618848 </v>
   <v>       0.06938779       0.07066641       0.30096417 </v>
   <v>       0.31562766       0.06725663       0.31565751 </v>
   <v>       0.56934263       0.05856922       0.30911329 </v>
   <v>       0.80926094       0.05848044       0.31021418 </v>
   <v>       0.06414650       0.30018893       0.31990480 </v>
   <v>       0.31962529       0.31253132       0.31308160 </v>
   <v>       0.56962935       0.31942713       0.29788174 </v>
   <v>       0.80214866       0.31337580       0.31306862 </v>
   <v>       0.06039885       0.56624703       0.31397372 </v>
   <v>       0.32071745       0.55905092       0.31775612 </v>
   <v>       0.55654899       0.56871374       0.30842573 </v>
   <v>       0.81678164       0.56462589       0.30358673 </v>
   <v>       0.07221727       0.80252585       0.30433463 </v>
   <v>       0.31631619       0.81292816       0.31609197 </v>
   <v>       0.56168970       0.81285443       0.32261867 </v>
   <v>       0.82177375       0.81554957       0.30792327 </v>
   <v>       0.07440492       0.05145113       0.56892837 </v>
   <v>       0.31813054       0.07047544       0.55141183 </v>
   <v>       0.56017237       0.06914808       0.55668594 </v>
   <v>       0.82076505       0.06189191       0.55203690 </v>
   <v>       0.06126069       0.31590083       0.56296993 </v>
   <v>       0.31496691       0.30758262       0.56630461 </v>
   <v>       0.56011003       0.31643856       0.55374803 </v>
   <v>       0.81039922       0.31818418       0.56383894 </v>
   <v>       0.06028178       0.56653505       0.56925929 </v>
   <v>       0.31435500       0.55639437       0.56659690 </v>
   <v>       0.56325961       0.57021108       0.55457660 </v>
   <v>       0.81237246       0.54117029       0.57344040 </v>
   <v>       0.06477283       0.82170107       0.55639330 </v>
   <v>       0.31678858       0.81160125       0.55744546 </v>
   <v>       0.56433298       0.79539775       0.56725133 </v>
   <v>       0.81394517       0.81194653       0.56329097 </v>
   <v>       0.06795834       0.06252602       0.82075158 </v>
   <v>       0.31540006       0.06533714       0.80642368 </v>
   <v>       0.56504097       0.05626580       0.81461488 </v>
   <v>       0.81784083       0.06305537       0.80687527 </v>
   <v>       0.05673232       0.31771862       0.81986429 </v>
   <v>       0.30962708       0.31057247       0.81222290 </v>
   <v>       0.56247363       0.29287786       0.82394951 </v>
   <v>       0.82712505       0.30941373       0.80721916 </v>
   <v>       0.06590203       0.56993056       0.80700812 </v>
   <v>       0.30643858       0.56690635       0.82240597 </v>
   <v>       0.56180817       0.55770934       0.81827564 </v>
   <v>       0.80835601       0.56432384       0.80764314 </v>
   <v>       0.06112308       0.80710734       0.81112684 </v>
   <v>       0.31571155       0.81184202       0.80502603 </v>
   <v>       0.56748231       0.81007242       0.81591603 </v>
   <v>       0.80959882       0.81752198       0.81750309 </v>
  </varray>
 </structure>
</modeling>
