potpaw_PBE@./ARUN.APL1ZEROSTATE         
           1
     0.000000   10.937334   10.937334
    10.937334    0.000000   10.937334
    10.937334   10.937334    0.000000
   Si
 128
Direct configuration=     1
   0.99203560  0.00665368  0.99882961
   0.24122058  0.00020482  0.00021272
   0.49743484  0.00546948  0.99091010
   0.75079719  0.99371222  0.00044576
   0.00622020  0.24389966  0.00131559
   0.24337948  0.25473165  0.99696510
   0.50225060  0.24256432  0.00890392
   0.74548094  0.24898094  0.00619697
   0.99578455  0.50389125  0.99504464
   0.24152749  0.51073217  0.99906073
   0.50719083  0.49942231  0.00261743
   0.75838932  0.50137912  0.99222669
   0.99593426  0.76501480  0.99692997
   0.25572823  0.75444773  0.00185201
   0.50576111  0.75744446  0.99732373
   0.74508416  0.75520265  0.99658489
   0.99593023  0.00750063  0.25567563
   0.25950039  0.00265391  0.23892294
   0.49769216  0.99892457  0.26115636
   0.74818435  0.00069859  0.24770789
   0.99502526  0.26677931  0.24436223
   0.25131638  0.23687550  0.25086322
   0.49953548  0.25819596  0.25159487
   0.75107366  0.24870232  0.24621384
   0.00447819  0.50115838  0.25399800
   0.24565177  0.50845086  0.23367495
   0.49821840  0.49858778  0.25562566
   0.75440813  0.48474198  0.25589930
   0.99842494  0.74669420  0.25567681
   0.25606084  0.73709010  0.25602067
   0.50868336  0.75076111  0.24716100
   0.74620624  0.74374782  0.25231559
   0.00778755  0.00025879  0.49775710
   0.24609784  0.00795618  0.50012169
   0.49477890  0.01130079  0.50762560
   0.73577628  0.00793857  0.51110311
   0.99772596  0.25888122  0.50435087
   0.23700739  0.26349739  0.48502031
   0.50145925  0.24159535  0.50352528
   0.74742433  0.25446939  0.50637110
   0.99947350  0.51441692  0.49940444
   0.24129579  0.48924016  0.51726631
   0.50368067  0.50117188  0.50552962
   0.74930764  0.50395852  0.49680397
   0.99177746  0.74995309  0.50661027
   0.25815392  0.72989547  0.50034361
   0.50731439  0.74644620  0.49521743
   0.74339439  0.76095670  0.49064202
   0.00750313  0.98926657  0.74287616
   0.26434353  0.99973741  0.73916017
   0.50060499  0.00847126  0.74175237
   0.75120588  0.99805333  0.74912611
   0.00855719  0.24600534  0.74573364
   0.24787165  0.24863676  0.74774352
   0.49436097  0.24718312  0.76826505
   0.76111047  0.25213575  0.75028500
   0.98949149  0.49993057  0.75071810
   0.25152544  0.49565012  0.74929221
   0.51152237  0.49286678  0.75394101
   0.75675422  0.49696802  0.74671067
   0.00042547  0.75211363  0.74673124
   0.26065988  0.74623981  0.74052867
   0.50617069  0.75154868  0.74443874
   0.74203964  0.74837291  0.75009437
   0.05338603  0.06047605  0.06118435
   0.31497807  0.07700707  0.05511913
   0.55891144  0.05862660  0.06893404
   0.81139168  0.06133849  0.05578901
   0.06315542  0.31300463  0.06048236
   0.31524504  0.30403460  0.07193244
   0.56997731  0.31416075  0.06269459
   0.80883852  0.32062248  0.06881359
   0.06440624  0.57530262  0.05980534
   0.31270719  0.55880362  0.06678788
   0.56385204  0.56402881  0.07480677
   0.81378329  0.56528006  0.07174584
   0.06635044  0.79816058  0.07434166
   0.30416039  0.81496132  0.06772542
   0.56657794  0.80932433  0.06173768
   0.81011838  0.81658743  0.06618848
   0.06938779  0.07066641  0.30096417
   0.31562766  0.06725663  0.31565751
   0.56934263  0.05856922  0.30911329
   0.80926094  0.05848044  0.31021418
   0.06414650  0.30018893  0.31990480
   0.31962529  0.31253132  0.31308160
   0.56962935  0.31942713  0.29788174
   0.80214866  0.31337580  0.31306862
   0.06039885  0.56624703  0.31397372
   0.32071745  0.55905092  0.31775612
   0.55654899  0.56871374  0.30842573
   0.81678164  0.56462589  0.30358673
   0.07221727  0.80252585  0.30433463
   0.31631619  0.81292816  0.31609197
   0.56168970  0.81285443  0.32261867
   0.82177375  0.81554957  0.30792327
   0.07440492  0.05145113  0.56892837
   0.31813054  0.07047544  0.55141183
   0.56017237  0.06914808  0.55668594
   0.82076505  0.06189191  0.55203690
   0.06126069  0.31590083  0.56296993
   0.31496691  0.30758262  0.56630461
   0.56011003  0.31643856  0.55374803
   0.81039922  0.31818418  0.56383894
   0.06028178  0.56653505  0.56925929
   0.31435500  0.55639437  0.56659690
   0.56325961  0.57021108  0.55457660
   0.81237246  0.54117029  0.57344040
   0.06477283  0.82170107  0.55639330
   0.31678858  0.81160125  0.55744546
   0.56433298  0.79539775  0.56725133
   0.81394517  0.81194653  0.56329097
   0.06795834  0.06252602  0.82075158
   0.31540006  0.06533714  0.80642368
   0.56504097  0.05626580  0.81461488
   0.81784083  0.06305537  0.80687527
   0.05673232  0.31771862  0.81986429
   0.30962708  0.31057247  0.81222290
   0.56247363  0.29287786  0.82394951
   0.82712505  0.30941373  0.80721916
   0.06590203  0.56993056  0.80700812
   0.30643858  0.56690635  0.82240597
   0.56180817  0.55770934  0.81827564
   0.80835601  0.56432384  0.80764314
   0.06112308  0.80710734  0.81112684
   0.31571155  0.81184202  0.80502603
   0.56748231  0.81007242  0.81591603
   0.80959882  0.81752198  0.81750309
