 128 128   0   0
  0.2044346E+02  0.1546773E-08  0.1546773E-08  0.1546773E-08  0.5000000E-15
  1.000000000000000E-004
  CAR 
 potpaw_PBE@./ARUN.APL1ZEROSTATE         
      9.36033353     -7.02638603  301      5.92595022      1.00000000
     -7.026  0.0000E+00  0.0000E+00
     -6.972  0.0000E+00  0.0000E+00
     -6.917  0.0000E+00  0.0000E+00
     -6.863  0.0000E+00  0.0000E+00
     -6.808  0.0000E+00  0.0000E+00
     -6.753  0.0000E+00  0.0000E+00
     -6.699  0.0000E+00  0.0000E+00
     -6.644  0.0000E+00  0.0000E+00
     -6.589  0.0000E+00  0.0000E+00
     -6.535  0.0000E+00  0.0000E+00
     -6.480  0.0000E+00  0.0000E+00
     -6.426  0.0000E+00  0.0000E+00
     -6.371  0.0000E+00  0.0000E+00
     -6.316  0.2024E-05  0.1105E-06
     -6.262  0.4566E+01  0.2494E+00
     -6.207  0.1137E-01  0.2500E+00
     -6.152  0.1594E-02  0.2501E+00
     -6.098  0.1759E+02  0.1211E+01
     -6.043  0.2513E+02  0.2584E+01
     -5.989  0.1938E+02  0.3642E+01
     -5.934  0.1971E+01  0.3750E+01
     -5.879  0.0000E+00  0.3750E+01
     -5.825  0.1403E+01  0.3827E+01
     -5.770  0.1849E+02  0.4836E+01
     -5.715  0.2128E+02  0.5999E+01
     -5.661  0.2400E+02  0.7310E+01
     -5.606  0.2646E+02  0.8756E+01
     -5.552  0.3330E+02  0.1057E+02
     -5.497  0.4008E+02  0.1276E+02
     -5.442  0.2726E+02  0.1425E+02
     -5.388  0.8945E+01  0.1474E+02
     -5.333  0.1581E+00  0.1475E+02
     -5.278  0.3088E+01  0.1492E+02
     -5.224  0.6079E+01  0.1525E+02
     -5.169  0.1734E+02  0.1620E+02
     -5.115  0.5283E+02  0.1908E+02
     -5.060  0.3982E+02  0.2126E+02
     -5.005  0.4673E+02  0.2381E+02
     -4.951  0.5688E+02  0.2692E+02
     -4.896  0.2158E+02  0.2810E+02
     -4.841  0.1566E+02  0.2895E+02
     -4.787  0.1912E+02  0.3000E+02
     -4.732  0.3346E+02  0.3182E+02
     -4.678  0.4398E+02  0.3423E+02
     -4.623  0.2852E+02  0.3578E+02
     -4.568  0.4344E+02  0.3816E+02
     -4.514  0.2565E+02  0.3956E+02
     -4.459  0.3626E+02  0.4154E+02
     -4.405  0.2145E+02  0.4271E+02
     -4.350  0.1016E+02  0.4327E+02
     -4.295  0.2385E+02  0.4457E+02
     -4.241  0.4959E+02  0.4728E+02
     -4.186  0.5959E+02  0.5053E+02
     -4.131  0.6676E+02  0.5418E+02
     -4.077  0.5604E+02  0.5724E+02
     -4.022  0.6058E+02  0.6055E+02
     -3.968  0.5002E+02  0.6328E+02
     -3.913  0.4949E+02  0.6598E+02
     -3.858  0.5834E+02  0.6917E+02
     -3.804  0.6414E+02  0.7267E+02
     -3.749  0.4809E+02  0.7530E+02
     -3.694  0.3814E+02  0.7738E+02
     -3.640  0.2899E+02  0.7897E+02
     -3.585  0.2519E+02  0.8034E+02
     -3.531  0.3740E+02  0.8239E+02
     -3.476  0.4393E+02  0.8479E+02
     -3.421  0.5773E+02  0.8794E+02
     -3.367  0.6572E+02  0.9153E+02
     -3.312  0.5061E+02  0.9429E+02
     -3.257  0.3171E+02  0.9603E+02
     -3.203  0.2216E+02  0.9724E+02
     -3.148  0.4792E+02  0.9985E+02
     -3.094  0.4469E+02  0.1023E+03
     -3.039  0.3862E+02  0.1044E+03
     -2.984  0.4994E+02  0.1071E+03
     -2.930  0.2983E+02  0.1088E+03
     -2.875  0.3273E+02  0.1106E+03
     -2.820  0.3541E+02  0.1125E+03
     -2.766  0.4051E+02  0.1147E+03
     -2.711  0.2697E+02  0.1162E+03
     -2.657  0.4419E+02  0.1186E+03
     -2.602  0.3543E+02  0.1205E+03
     -2.547  0.2583E+02  0.1219E+03
     -2.493  0.1022E+02  0.1225E+03
     -2.438  0.4785E+01  0.1227E+03
     -2.383  0.2948E-04  0.1228E+03
     -2.329  0.5976E+01  0.1231E+03
     -2.274  0.6733E+01  0.1234E+03
     -2.220  0.2199E+02  0.1246E+03
     -2.165  0.3006E+02  0.1263E+03
     -2.110  0.1831E+02  0.1273E+03
     -2.056  0.2812E+02  0.1288E+03
     -2.001  0.3043E+02  0.1305E+03
     -1.947  0.2468E+02  0.1318E+03
     -1.892  0.9249E+01  0.1323E+03
     -1.837  0.7607E+01  0.1328E+03
     -1.783  0.8230E+01  0.1332E+03
     -1.728  0.2848E+01  0.1334E+03
     -1.673  0.8619E+01  0.1338E+03
     -1.619  0.1276E+02  0.1345E+03
     -1.564  0.2690E+02  0.1360E+03
     -1.510  0.4726E+02  0.1386E+03
     -1.455  0.3468E+02  0.1405E+03
     -1.400  0.3738E+02  0.1425E+03
     -1.346  0.5178E+02  0.1453E+03
     -1.291  0.5052E+02  0.1481E+03
     -1.236  0.6934E+02  0.1519E+03
     -1.182  0.5470E+02  0.1549E+03
     -1.127  0.6462E+02  0.1584E+03
     -1.073  0.6061E+02  0.1617E+03
     -1.018  0.5750E+02  0.1649E+03
     -0.963  0.6394E+02  0.1684E+03
     -0.909  0.7286E+02  0.1723E+03
     -0.854  0.6984E+02  0.1761E+03
     -0.799  0.5913E+02  0.1794E+03
     -0.745  0.4845E+02  0.1820E+03
     -0.690  0.3900E+02  0.1842E+03
     -0.636  0.4178E+02  0.1864E+03
     -0.581  0.3422E+02  0.1883E+03
     -0.526  0.2603E+02  0.1897E+03
     -0.472  0.1536E+02  0.1906E+03
     -0.417  0.2583E+02  0.1920E+03
     -0.362  0.4067E+02  0.1942E+03
     -0.308  0.4061E+02  0.1964E+03
     -0.253  0.5505E+02  0.1994E+03
     -0.199  0.4883E+02  0.2021E+03
     -0.144  0.5346E+02  0.2050E+03
     -0.089  0.3978E+02  0.2072E+03
     -0.035  0.4478E+02  0.2096E+03
      0.020  0.3083E+02  0.2113E+03
      0.075  0.2644E+02  0.2128E+03
      0.129  0.1463E+02  0.2136E+03
      0.184  0.1266E+02  0.2142E+03
      0.238  0.5450E+01  0.2145E+03
      0.293  0.2154E+02  0.2157E+03
      0.348  0.2476E+02  0.2171E+03
      0.402  0.2361E+02  0.2184E+03
      0.457  0.3049E+02  0.2200E+03
      0.512  0.2293E+02  0.2213E+03
      0.566  0.2840E+02  0.2228E+03
      0.621  0.2102E+02  0.2240E+03
      0.675  0.2312E+02  0.2252E+03
      0.730  0.1089E+02  0.2258E+03
      0.785  0.1948E+02  0.2269E+03
      0.839  0.1098E+02  0.2275E+03
      0.894  0.5741E+01  0.2278E+03
      0.948  0.1958E+02  0.2289E+03
      1.003  0.1985E+02  0.2300E+03
      1.058  0.3311E+02  0.2318E+03
      1.112  0.1679E+02  0.2327E+03
      1.167  0.3271E+02  0.2345E+03
      1.222  0.1572E+02  0.2353E+03
      1.276  0.3744E+02  0.2374E+03
      1.331  0.2754E+02  0.2389E+03
      1.385  0.3670E+02  0.2409E+03
      1.440  0.4159E+02  0.2432E+03
      1.495  0.7149E+02  0.2471E+03
      1.549  0.9193E+02  0.2521E+03
      1.604  0.1005E+03  0.2576E+03
      1.659  0.7809E+02  0.2618E+03
      1.713  0.5778E+02  0.2650E+03
      1.768  0.5843E+02  0.2682E+03
      1.822  0.4398E+02  0.2706E+03
      1.877  0.4026E+02  0.2728E+03
      1.932  0.1921E+02  0.2738E+03
      1.986  0.1587E+02  0.2747E+03
      2.041  0.2765E+02  0.2762E+03
      2.096  0.6710E+02  0.2799E+03
      2.150  0.1058E+03  0.2857E+03
      2.205  0.1312E+03  0.2928E+03
      2.259  0.1182E+03  0.2993E+03
      2.314  0.1223E+03  0.3060E+03
      2.369  0.1221E+03  0.3126E+03
      2.423  0.1006E+03  0.3181E+03
      2.478  0.5763E+02  0.3213E+03
      2.533  0.3742E+02  0.3233E+03
      2.587  0.2358E+02  0.3246E+03
      2.642  0.3958E+02  0.3268E+03
      2.696  0.6442E+02  0.3303E+03
      2.751  0.8774E+02  0.3351E+03
      2.806  0.8883E+02  0.3399E+03
      2.860  0.1064E+03  0.3458E+03
      2.915  0.9791E+02  0.3511E+03
      2.970  0.9864E+02  0.3565E+03
      3.024  0.1132E+03  0.3627E+03
      3.079  0.1038E+03  0.3683E+03
      3.133  0.5823E+02  0.3715E+03
      3.188  0.6073E+02  0.3748E+03
      3.243  0.7650E+02  0.3790E+03
      3.297  0.1070E+03  0.3849E+03
      3.352  0.1025E+03  0.3905E+03
      3.406  0.9506E+02  0.3957E+03
      3.461  0.8770E+02  0.4004E+03
      3.516  0.9766E+02  0.4058E+03
      3.570  0.7830E+02  0.4101E+03
      3.625  0.6868E+02  0.4138E+03
      3.680  0.7465E+02  0.4179E+03
      3.734  0.8109E+02  0.4223E+03
      3.789  0.8802E+02  0.4271E+03
      3.843  0.8326E+02  0.4317E+03
      3.898  0.8897E+02  0.4365E+03
      3.953  0.7863E+02  0.4408E+03
      4.007  0.6172E+02  0.4442E+03
      4.062  0.6488E+02  0.4477E+03
      4.117  0.4936E+02  0.4504E+03
      4.171  0.7140E+02  0.4543E+03
      4.226  0.8239E+02  0.4588E+03
      4.280  0.7501E+02  0.4629E+03
      4.335  0.6351E+02  0.4664E+03
      4.390  0.8067E+02  0.4708E+03
      4.444  0.6189E+02  0.4742E+03
      4.499  0.7523E+02  0.4783E+03
      4.554  0.6698E+02  0.4820E+03
      4.608  0.5778E+02  0.4851E+03
      4.663  0.5148E+02  0.4879E+03
      4.717  0.3320E+02  0.4897E+03
      4.772  0.2620E+02  0.4912E+03
      4.827  0.2510E+02  0.4925E+03
      4.881  0.3081E+02  0.4942E+03
      4.936  0.4309E+02  0.4966E+03
      4.991  0.4561E+02  0.4991E+03
      5.045  0.5708E+02  0.5022E+03
      5.100  0.1349E+02  0.5029E+03
      5.154  0.1160E+02  0.5036E+03
      5.209  0.7726E+01  0.5040E+03
      5.264  0.1855E+01  0.5041E+03
      5.318  0.8182E+01  0.5045E+03
      5.373  0.1655E+02  0.5054E+03
      5.428  0.2705E+02  0.5069E+03
      5.482  0.3257E+02  0.5087E+03
      5.537  0.1479E+02  0.5095E+03
      5.591  0.1828E+02  0.5105E+03
      5.646  0.3922E+00  0.5105E+03
      5.701  0.1712E+02  0.5115E+03
      5.755  0.8962E+00  0.5115E+03
      5.810  0.4510E+01  0.5117E+03
      5.865  0.4450E+01  0.5120E+03
      5.919  0.1266E+00  0.5120E+03
      5.974  0.0000E+00  0.5120E+03
      6.028  0.0000E+00  0.5120E+03
      6.083  0.0000E+00  0.5120E+03
      6.138  0.1022E+01  0.5121E+03
      6.192  0.1832E+02  0.5131E+03
      6.247  0.1801E+02  0.5140E+03
      6.301  0.1260E+02  0.5147E+03
      6.356  0.1829E+02  0.5157E+03
      6.411  0.3192E+02  0.5175E+03
      6.465  0.1961E+02  0.5185E+03
      6.520  0.2665E+02  0.5200E+03
      6.575  0.2219E+02  0.5212E+03
      6.629  0.9896E+01  0.5217E+03
      6.684  0.1975E+02  0.5228E+03
      6.738  0.3442E+02  0.5247E+03
      6.793  0.3622E+02  0.5267E+03
      6.848  0.2624E+02  0.5281E+03
      6.902  0.3130E+02  0.5298E+03
      6.957  0.3257E+02  0.5316E+03
      7.012  0.4348E+02  0.5340E+03
      7.066  0.4751E+02  0.5366E+03
      7.121  0.3600E+02  0.5385E+03
      7.175  0.3054E+02  0.5402E+03
      7.230  0.3023E+02  0.5419E+03
      7.285  0.6451E+02  0.5454E+03
      7.339  0.6405E+02  0.5489E+03
      7.394  0.7554E+02  0.5530E+03
      7.449  0.9141E+02  0.5580E+03
      7.503  0.8830E+02  0.5628E+03
      7.558  0.8115E+02  0.5673E+03
      7.612  0.9102E+02  0.5722E+03
      7.667  0.6962E+02  0.5760E+03
      7.722  0.8869E+02  0.5809E+03
      7.776  0.1004E+03  0.5864E+03
      7.831  0.9736E+02  0.5917E+03
      7.886  0.9233E+02  0.5967E+03
      7.940  0.9838E+02  0.6021E+03
      7.995  0.9377E+02  0.6072E+03
      8.049  0.7792E+02  0.6115E+03
      8.104  0.7944E+02  0.6158E+03
      8.159  0.8777E+02  0.6206E+03
      8.213  0.9175E+02  0.6256E+03
      8.268  0.8639E+02  0.6303E+03
      8.323  0.7603E+02  0.6345E+03
      8.377  0.7033E+02  0.6383E+03
      8.432  0.6989E+02  0.6422E+03
      8.486  0.1979E+02  0.6432E+03
      8.541  0.7321E+00  0.6433E+03
      8.596  0.6140E+01  0.6436E+03
      8.650  0.7068E+01  0.6440E+03
      8.705  0.0000E+00  0.6440E+03
      8.759  0.0000E+00  0.6440E+03
      8.814  0.0000E+00  0.6440E+03
      8.869  0.0000E+00  0.6440E+03
      8.923  0.0000E+00  0.6440E+03
      8.978  0.0000E+00  0.6440E+03
      9.033  0.0000E+00  0.6440E+03
      9.087  0.0000E+00  0.6440E+03
      9.142  0.0000E+00  0.6440E+03
      9.196  0.0000E+00  0.6440E+03
      9.251  0.0000E+00  0.6440E+03
      9.306  0.0000E+00  0.6440E+03
      9.360  0.0000E+00  0.6440E+03
