 vasp.5.4.4.18Apr17-6-g9f103f2a35 (build Nov 08 2017 09:05:29) complex          
  
 executed on          Intel_17.33 date 2020.07.18  18:19:50
 running on   32 total cores
 distrk:  each k-point on   32 cores,    1 groups
 distr:  one band on NCORES_PER_BAND=  16 cores,    2 groups


--------------------------------------------------------------------------------------------------------


 INCAR:
 POTCAR:   PAW_PBE Si 05Jan2001                   

 ----------------------------------------------------------------------------- 
|                                                                             |
|           W    W    AA    RRRRR   N    N  II  N    N   GGGG   !!!           |
|           W    W   A  A   R    R  NN   N  II  NN   N  G    G  !!!           |
|           W    W  A    A  R    R  N N  N  II  N N  N  G       !!!           |
|           W WW W  AAAAAA  RRRRR   N  N N  II  N  N N  G  GGG   !            |
|           WW  WW  A    A  R   R   N   NN  II  N   NN  G    G                |
|           W    W  A    A  R    R  N    N  II  N    N   GGGG   !!!           |
|                                                                             |
|      For optimal performance we recommend to set                            |
|        NCORE= 4 - approx SQRT( number of cores)                             |
|      NCORE specifies how many cores store one orbital (NPAR=cpu/NCORE).     |
|      This setting can  greatly improve the performance of VASP for DFT.     |
|      The default,   NCORE=1            might be grossly inefficient         |
|      on modern multi-core architectures or massively parallel machines.     |
|      Do your own testing !!!!                                               |
|      Unfortunately you need to use the default for GW and RPA calculations. |
|      (for HF NCORE is supported but not extensively tested yet)             |
|                                                                             |
 ----------------------------------------------------------------------------- 

 POTCAR:   PAW_PBE Si 05Jan2001                   
   VRHFIN =Si: s2p2                                                             
   LEXCH  = PE                                                                  
   EATOM  =   103.0669 eV,    7.5752 Ry                                         
                                                                                
   TITEL  = PAW_PBE Si 05Jan2001                                                
   LULTRA =        F    use ultrasoft PP ?                                      
   IUNSCR =        1    unscreen: 0-lin 1-nonlin 2-no                           
   RPACOR =    1.500    partial core radius                                     
   POMASS =   28.085; ZVAL   =    4.000    mass and valenz                      
   RCORE  =    1.900    outmost cutoff radius                                   
   RWIGS  =    2.480; RWIGS  =    1.312    wigner-seitz radius (au A)           
   ENMAX  =  245.345; ENMIN  =  184.009 eV                                      
   ICORE  =        2    local potential                                         
   LCOR   =        T    correct aug charges                                     
   LPAW   =        T    paw PP                                                  
   EAUG   =  322.069                                                            
   DEXC   =    -.007                                                            
   RMAX   =    2.944    core radius for proj-oper                               
   RAUG   =    1.300    factor for augmentation sphere                          
   RDEP   =    1.993    radius for radial grids                                 
   QCUT   =   -4.246; QGAM   =    8.493    optimization parameters              
                                                                                
   Description                                                                  
     l     E      TYP  RCUT    TYP  RCUT                                        
     0   .000     23  1.900                                                     
     0   .000     23  1.900                                                     
     1   .000     23  1.900                                                     
     1   .000     23  1.900                                                     
     2   .000      7  1.900                                                     
  local pseudopotential read in
  partial core-charges read in
  atomic valenz-charges read in
  non local Contribution for L=           0  read in
    real space projection operators read in
  non local Contribution for L=           0  read in
    real space projection operators read in
  non local Contribution for L=           1  read in
    real space projection operators read in
  non local Contribution for L=           1  read in
    real space projection operators read in
    PAW grid and wavefunctions read in
 
   number of l-projection  operators is LMAX  =           4
   number of lm-projection operators is LMMAX =           8
 

 ----------------------------------------------------------------------------- 
|                                                                             |
|  ADVICE TO THIS USER RUNNING 'VASP/VAMP'   (HEAR YOUR MASTER'S VOICE ...):  |
|                                                                             |
|      You have a (more or less) 'large supercell' and for larger cells       |
|      it might be more efficient to use real space projection operators      |
|      So try LREAL= Auto  in the INCAR   file.                               |
|      Mind: If you want to do a very accurate calculations keep the          |
|      reciprocal projection scheme          (i.e. LREAL=.FALSE.)             |
|                                                                             |
 ----------------------------------------------------------------------------- 

 PAW_PBE Si 05Jan2001                   :
 energy of atom  1       EATOM= -103.0669
 kinetic energy error for atom=    0.0006 (will be added to EATOM!!)
 
 
 POSCAR: kk                                      
  positions in direct lattice
  No initial velocities read in
 exchange correlation table for  LEXCH =        8
   RHO(1)=    0.500       N(1)  =     2000
   RHO(2)=  100.500       N(2)  =     4000
 


--------------------------------------------------------------------------------------------------------


 ion  position               nearest neighbor table
   1  0.008  0.995  0.002-  65 2.18  68 2.39  77 2.40 113 2.41
   2  0.250  0.997  0.009-  78 2.33  66 2.33  65 2.42 114 2.65
   3  0.501  0.010  0.993-  67 2.27 115 2.27  66 2.31  79 2.61
   4  0.758  0.999  0.998-  68 2.29 116 2.36  80 2.38  67 2.50
   5  0.007  0.250  0.998-  69 2.32 117 2.36  65 2.39  72 2.48
   6  0.255  0.244  0.000-  66 2.28  69 2.32  70 2.35 118 2.37
   7  0.485  0.255  0.005-  70 2.28 119 2.36  71 2.47  67 2.60
   8  0.744  0.241  0.996- 120 2.30  71 2.38  68 2.38  72 2.44
   9  0.998  0.494  0.996-  69 2.30 121 2.38  76 2.44  73 2.48
  10  0.250  0.496  0.998-  70 2.35  74 2.35 122 2.36  73 2.37
  11  0.494  0.496  0.993- 123 2.23  71 2.28  74 2.30  75 2.61
  12  0.745  0.504  0.001-  75 2.27  76 2.30 124 2.38  72 2.50
  13  0.005  0.743  0.990- 125 2.21  73 2.22  77 2.45  80 2.48
  14  0.249  0.738  0.009-  74 2.28  78 2.30  77 2.35 126 2.41
  15  0.494  0.756  0.000-  79 2.16  78 2.29 127 2.42  75 2.55
  16  0.747  0.747  0.999-  79 2.34  76 2.37 128 2.40  80 2.53
  17  0.012  0.985  0.255-  93 2.25  81 2.39  65 2.51  84 2.61
  18  0.256  0.986  0.258-  94 2.19  82 2.30  81 2.51  66 2.55
  19  0.504  0.003  0.251-  83 2.23  67 2.27  95 2.37  82 2.54
  20  0.751  0.996  0.253-  96 2.18  83 2.28  84 2.34  68 2.38
  21  0.002  0.253  0.246-  88 2.34  85 2.40  81 2.41  69 2.42
  22  0.246  0.239  0.253-  82 2.25  85 2.25  70 2.31  86 2.49
  23  0.495  0.251  0.252-  86 2.21  71 2.34  83 2.37  87 2.54
  24  0.765  0.250  0.234-  72 2.23  84 2.37  88 2.41  87 2.54
  25  0.003  0.493  0.249-  85 2.25  92 2.36  73 2.48  89 2.64
  26  0.241  0.506  0.249-  89 2.30  74 2.38  90 2.44  86 2.49
  27  0.503  0.499  0.247-  75 2.26  90 2.34  91 2.35  87 2.37
  28  0.742  0.493  0.267-  92 2.21  91 2.31  88 2.36  76 2.54
  29  0.997  0.751  0.253-  89 2.29  93 2.34  96 2.39  77 2.42
  30  0.251  0.746  0.255-  94 2.30  93 2.37  90 2.41  78 2.59
  31  0.499  0.744  0.256-  91 2.33  94 2.37  95 2.40  79 2.52
  32  0.753  0.739  0.252-  80 2.28  92 2.37  95 2.47  96 2.61
  33  0.997  0.017  0.492-  81 2.18  97 2.24 100 2.29 109 2.48
  34  0.242  0.005  0.498-  97 2.24  82 2.30  98 2.32 110 2.54
  35  0.511  0.995  0.498-  99 2.30 111 2.33  83 2.51  98 2.60
  36  0.752  0.008  0.490-  84 2.21 100 2.43  99 2.47 112 2.62
  37  0.006  0.252  0.492-  85 2.34 101 2.38 104 2.46  97 2.50
  38  0.254  0.249  0.506-  98 2.23 102 2.43  86 2.53 101 2.54
  39  0.493  0.245  0.514- 102 2.28 103 2.31  99 2.32  87 2.44
  40  0.750  0.251  0.504- 104 2.34 103 2.35 100 2.35  88 2.40
  41  0.999  0.501  0.502- 101 2.21 105 2.22  89 2.26 108 2.47
  42  0.256  0.507  0.492-  90 2.25 106 2.31 102 2.38 105 2.56
  43  0.497  0.490  0.507- 106 2.26 103 2.29  91 2.41 107 2.42
  44  0.748  0.501  0.496- 107 2.34  92 2.37 108 2.39 104 2.48
  45  0.998  0.739  0.502- 112 2.25 105 2.25  93 2.35 109 2.60
  46  0.245  0.748  0.505- 109 2.30 106 2.44  94 2.47 110 2.47
  47  0.493  0.740  0.507- 107 2.25 110 2.26  95 2.43 111 2.45
  48  0.744  0.751  0.510- 112 2.36 108 2.37 111 2.42  96 2.43
  49  1.000  0.002  0.757- 125 2.26 116 2.27 113 2.34  97 2.46
  50  0.241  0.004  0.746- 113 2.21 126 2.41  98 2.49 114 2.53
  51  0.493  0.014  0.739-  99 2.19 114 2.23 115 2.36 127 2.58
  52  0.749  0.008  0.739- 128 2.27 100 2.27 115 2.35 116 2.45
  53  0.999  0.259  0.738- 101 2.27 117 2.33 113 2.45 120 2.49
  54  0.251  0.253  0.746- 102 2.23 114 2.24 117 2.37 118 2.56
  55  0.495  0.258  0.755- 118 2.16 119 2.24 103 2.46 115 2.57
  56  0.736  0.257  0.753- 119 2.17 104 2.28 120 2.50 116 2.52
  57  0.996  0.512  0.751- 121 2.25 124 2.30 105 2.37 117 2.62
  58  0.248  0.492  0.747- 118 2.25 106 2.31 121 2.40 122 2.58
  59  0.495  0.509  0.742- 122 2.24 107 2.31 123 2.40 119 2.64
  60  0.759  0.492  0.756- 120 2.12 108 2.38 124 2.41 123 2.48
  61  0.000  0.744  0.747- 121 2.20 109 2.39 128 2.46 125 2.51
  62  0.252  0.739  0.762- 122 2.24 110 2.37 126 2.42 125 2.58
  63  0.497  0.753  0.748- 111 2.26 127 2.29 126 2.34 123 2.50
  64  0.746  0.766  0.745- 112 2.25 127 2.35 128 2.38 124 2.47
  65  0.059  0.061  0.057-   1 2.18   5 2.39   2 2.42  17 2.51
  66  0.319  0.063  0.056-   6 2.28   3 2.31   2 2.33  18 2.55
  67  0.561  0.050  0.072-  19 2.27   3 2.27   4 2.50   7 2.60
  68  0.818  0.053  0.065-   4 2.29   8 2.38  20 2.38   1 2.39
  69  0.072  0.312  0.055-   9 2.30   5 2.32   6 2.32  21 2.42
  70  0.305  0.310  0.070-   7 2.28  22 2.31  10 2.35   6 2.35
  71  0.557  0.316  0.067-  11 2.28  23 2.34   8 2.38   7 2.47
  72  0.811  0.306  0.058-  24 2.23   8 2.44   5 2.48  12 2.50
  73  0.063  0.568  0.053-  13 2.22  10 2.37   9 2.48  25 2.48
  74  0.312  0.558  0.061-  14 2.28  11 2.30  10 2.35  26 2.38
  75  0.566  0.555  0.068-  27 2.26  12 2.27  15 2.55  11 2.61
  76  0.806  0.560  0.066-  12 2.30  16 2.37   9 2.44  28 2.54
  77  0.063  0.806  0.062-  14 2.35   1 2.40  29 2.42  13 2.45
  78  0.314  0.814  0.050-  15 2.29  14 2.30   2 2.33  30 2.59
  79  0.561  0.804  0.056-  15 2.16  16 2.34  31 2.52   3 2.61
  80  0.810  0.812  0.072-  32 2.28   4 2.38  13 2.48  16 2.53
  81  0.057  0.062  0.320-  33 2.18  17 2.39  21 2.41  18 2.51
  82  0.304  0.061  0.316-  22 2.25  34 2.30  18 2.30  19 2.54
  83  0.571  0.064  0.299-  19 2.23  20 2.28  23 2.37  35 2.51
  84  0.806  0.064  0.315-  36 2.21  20 2.34  24 2.37  17 2.61
  85  0.068  0.315  0.307-  25 2.25  22 2.25  37 2.34  21 2.40
  86  0.320  0.309  0.305-  23 2.21  22 2.49  26 2.49  38 2.53
  87  0.565  0.312  0.321-  27 2.37  39 2.44  23 2.54  24 2.54
  88  0.817  0.307  0.315-  21 2.34  28 2.36  40 2.40  24 2.41
  89  0.060  0.570  0.324-  41 2.26  29 2.29  26 2.30  25 2.64
  90  0.318  0.555  0.314-  42 2.25  27 2.34  30 2.41  26 2.44
  91  0.560  0.559  0.316-  28 2.31  31 2.33  27 2.35  43 2.41
  92  0.816  0.551  0.309-  28 2.21  25 2.36  44 2.37  32 2.37
  93  0.063  0.807  0.316-  17 2.25  29 2.34  45 2.35  30 2.37
  94  0.312  0.813  0.310-  18 2.19  30 2.30  31 2.37  46 2.47
  95  0.558  0.816  0.315-  19 2.37  31 2.40  47 2.43  32 2.47
  96  0.808  0.823  0.318-  20 2.18  29 2.39  48 2.43  32 2.61
  97  0.065  0.055  0.563-  34 2.24  33 2.24  49 2.46  37 2.50
  98  0.306  0.074  0.549-  38 2.23  34 2.32  50 2.49  35 2.60
  99  0.556  0.062  0.566-  51 2.19  35 2.30  39 2.32  36 2.47
 100  0.816  0.066  0.560-  52 2.27  33 2.29  40 2.35  36 2.43
 101  0.054  0.326  0.558-  41 2.21  53 2.27  37 2.38  38 2.54
 102  0.312  0.319  0.570-  54 2.23  39 2.28  42 2.38  38 2.43
 103  0.565  0.309  0.561-  43 2.29  39 2.31  40 2.35  55 2.46
 104  0.813  0.306  0.573-  56 2.28  40 2.34  37 2.46  44 2.48
 105  0.054  0.560  0.564-  41 2.22  45 2.25  57 2.37  42 2.56
 106  0.318  0.555  0.564-  43 2.26  58 2.31  42 2.31  46 2.44
 107  0.563  0.563  0.559-  47 2.25  59 2.31  44 2.34  43 2.42
 108  0.804  0.563  0.568-  48 2.37  60 2.38  44 2.39  41 2.47
 109  0.064  0.821  0.559-  46 2.30  61 2.39  33 2.48  45 2.60
 110  0.314  0.805  0.575-  47 2.26  62 2.37  46 2.47  34 2.54
 111  0.553  0.811  0.570-  63 2.26  35 2.33  48 2.42  47 2.45
 112  0.821  0.801  0.569-  45 2.25  64 2.25  48 2.36  36 2.62
 113  0.066  0.066  0.811-  50 2.21  49 2.34   1 2.41  53 2.45
 114  0.316  0.076  0.799-  51 2.23  54 2.24  50 2.53   2 2.65
 115  0.563  0.055  0.813-   3 2.27  52 2.35  51 2.36  55 2.57
 116  0.821  0.058  0.811-  49 2.27   4 2.36  52 2.45  56 2.52
 117  0.064  0.305  0.812-  53 2.33   5 2.36  54 2.37  57 2.62
 118  0.324  0.316  0.813-  55 2.16  58 2.25   6 2.37  54 2.56
 119  0.565  0.300  0.819-  56 2.17  55 2.24   7 2.36  59 2.64
 120  0.803  0.325  0.817-  60 2.12   8 2.30  53 2.49  56 2.50
 121  0.059  0.569  0.808-  61 2.20  57 2.25   9 2.38  58 2.40
 122  0.318  0.562  0.812-  59 2.24  62 2.24  10 2.36  58 2.58
 123  0.562  0.555  0.817-  11 2.23  59 2.40  60 2.48  63 2.50
 124  0.814  0.570  0.813-  57 2.30  12 2.38  60 2.41  64 2.47
 125  0.049  0.824  0.816-  13 2.21  49 2.26  61 2.51  62 2.58
 126  0.311  0.814  0.819-  63 2.34  14 2.41  50 2.41  62 2.42
 127  0.561  0.810  0.809-  63 2.29  64 2.35  15 2.42  51 2.58
 128  0.807  0.828  0.810-  52 2.27  64 2.38  16 2.40  61 2.46
 
  LATTYP: Found a face centered cubic cell.
 ALAT       =    21.8746673814
  
  Lattice vectors:
  
 A1 = (   0.0000000000,  10.9373336907,  10.9373336907)
 A2 = (  10.9373336907,   0.0000000000,  10.9373336907)
 A3 = (  10.9373336907,  10.9373336907,   0.0000000000)


Analysis of symmetry for initial positions (statically):
=====================================================================
 Subroutine PRICEL returns:
 Original cell was already a primitive cell.
 

 Routine SETGRP: Setting up the symmetry group for a 
 face centered cubic supercell.


 Subroutine GETGRP returns: Found  1 space group operations
 (whereof  1 operations were pure point group operations)
 out of a pool of 48 trial point group operations.


The static configuration has the point symmetry C_1 .


Analysis of symmetry for dynamics (positions and initial velocities):
=====================================================================
 Subroutine PRICEL returns:
 Original cell was already a primitive cell.
 

 Routine SETGRP: Setting up the symmetry group for a 
 face centered cubic supercell.


 Subroutine GETGRP returns: Found  1 space group operations
 (whereof  1 operations were pure point group operations)
 out of a pool of 48 trial point group operations.


The dynamic configuration has the point symmetry C_1 .


 Subroutine INISYM returns: Found  1 space group operations
 (whereof  1 operations are pure point group operations),
 and found     1 'primitive' translations

 
 
 KPOINTS: KPOINTS File, automatically generated by

Automatic generation of k-mesh.
Space group operators:
 irot       det(A)        alpha          n_x          n_y          n_z        tau_x        tau_y        tau_z
    1     1.000000     0.000001     1.000000     0.000000     0.000000     0.000000     0.000000     0.000000
 
 Subroutine IBZKPT returns following result:
 ===========================================
 
 Found      8 irreducible k-points:
 
 Following reciprocal coordinates:
            Coordinates               Weight
  0.000000  0.000000  0.000000      1.000000
  0.500000  0.000000  0.000000      1.000000
  0.000000  0.500000  0.000000      1.000000
  0.500000  0.500000  0.000000      1.000000
  0.000000  0.000000  0.500000      1.000000
  0.500000  0.000000  0.500000      1.000000
  0.000000  0.500000  0.500000      1.000000
  0.500000  0.500000  0.500000      1.000000
 
 Following cartesian coordinates:
            Coordinates               Weight
  0.000000  0.000000  0.000000      1.000000
 -0.022857  0.022857  0.022857      1.000000
  0.022857 -0.022857  0.022857      1.000000
  0.000000  0.000000  0.045715      1.000000
  0.022857  0.022857 -0.022857      1.000000
  0.000000  0.045715  0.000000      1.000000
  0.045715  0.000000  0.000000      1.000000
  0.022857  0.022857  0.022857      1.000000
 


--------------------------------------------------------------------------------------------------------




 Dimension of arrays:
   k-points           NKPTS =      8   k-points in BZ     NKDIM =      8   number of bands    NBANDS=    322
   number of dos      NEDOS =    301   number of ions     NIONS =    128
   non local maximal  LDIM  =      4   non local SUM 2l+1 LMDIM =      8
   total plane-waves  NPLWV = ******
   max r-space proj   IRMAX =      1   max aug-charges    IRDMAX= 176811
   dimension x,y,z NGX =   120 NGY =  120 NGZ =  120
   dimension x,y,z NGXF=   240 NGYF=  240 NGZF=  240
   support grid    NGXF=   480 NGYF=  480 NGZF=  480
   ions per type =             128
   NGX,Y,Z   is equivalent  to a cutoff of  12.90, 12.90, 12.90 a.u.
   NGXF,Y,Z  is equivalent  to a cutoff of  25.80, 25.80, 25.80 a.u.

 SYSTEM =  potpaw_PBE@./ARUN.APL1ZEROSTATE         
 POSCAR =  kk                                      

 Startparameter for this run:
   NWRITE =      2    write-flag & timer
   PREC   = accura    normal or accurate (medium, high low for compatibility)
   ISTART =      0    job   : 0-new  1-cont  2-samecut
   ICHARG =      2    charge: 1-file 2-atom 10-const
   ISPIN  =      1    spin polarized calculation?
   LNONCOLLINEAR =      F non collinear calculations
   LSORBIT =      F    spin-orbit coupling
   INIWAV =      1    electr: 0-lowe 1-rand  2-diag
   LASPH  =      F    aspherical Exc in radial PAW
   METAGGA=      F    non-selfconsistent MetaGGA calc.

 Electronic Relaxation 1
   ENCUT  =  500.0 eV  36.75 Ry    6.06 a.u.  28.20 28.20 28.20*2*pi/ulx,y,z
   ENINI  =  500.0     initial cutoff
   ENAUG  =  322.1 eV  augmentation charge cutoff
   NELM   =    120;   NELMIN=  4; NELMDL= -5     # of ELM steps 
   EDIFF  = 0.1E-07   stopping-criterion for ELM
   LREAL  =      F    real-space projection
   NLSPLINE    = F    spline interpolate recip. space projectors
   LCOMPAT=      F    compatible to vasp.4.4
   GGA_COMPAT  = T    GGA compatible to vasp.4.4-vasp.4.6
   LMAXPAW     = -100 max onsite density
   LMAXMIX     =    2 max onsite mixed and CHGCAR
   VOSKOWN=      0    Vosko Wilk Nusair interpolation
   ROPT   =    0.00000
 Ionic relaxation
   EDIFFG = 0.1E-06   stopping-criterion for IOM
   NSW    =      0    number of steps for IOM
   NBLOCK =      1;   KBLOCK =      1    inner block; outer block 
   IBRION =     -1    ionic relax: 0-MD 1-quasi-New 2-CG
   NFREE  =      0    steps in history (QN), initial steepest desc. (CG)
   ISIF   =      2    stress and relaxation
   IWAVPR =     10    prediction:  0-non 1-charg 2-wave 3-comb
   ISYM   =      2    0-nonsym 1-usesym 2-fastsym
   LCORR  =      T    Harris-Foulkes like correction to forces

   POTIM  = 0.5000    time-step for ionic-motion
   TEIN   =    0.0    initial temperature
   TEBEG  =    0.0;   TEEND  =   0.0 temperature during run
   SMASS  =  -3.00    Nose mass-parameter (am)
   estimated Nose-frequenzy (Omega)   =  0.10E-29 period in steps =****** mass=  -0.547E-26a.u.
   SCALEE = 1.0000    scale energy and forces
   NPACO  =    256;   APACO  = 16.0  distance and # of slots for P.C.
   PSTRESS=    0.0 pullay stress

  Mass of Ions in am
   POMASS =  28.09
  Ionic Valenz
   ZVAL   =   4.00
  Atomic Wigner-Seitz radii
   RWIGS  =  -1.00
  virtual crystal weights 
   VCA    =   1.00
   NELECT =     512.0000    total number of electrons
   NUPDOWN=      -1.0000    fix difference up-down

 DOS related values:
   EMIN   =  10.00;   EMAX   =-10.00  energy-range for DOS
   EFERMI =   0.00
   ISMEAR =     0;   SIGMA  =   0.01  broadening in eV -4-tet -1-fermi 0-gaus

 Electronic relaxation 2 (details)
   IALGO  =     38    algorithm
   LDIAG  =      T    sub-space diagonalisation (order eigenvalues)
   LSUBROT=      F    optimize rotation matrix (better conditioning)
   TURBO    =      0    0=normal 1=particle mesh
   IRESTART =      0    0=no restart 2=restart with 2 vectors
   NREBOOT  =      0    no. of reboots
   NMIN     =      0    reboot dimension
   EREF     =   0.00    reference energy to select bands
   IMIX   =      4    mixing-type and parameters
     AMIX     =   0.40;   BMIX     =  1.00
     AMIX_MAG =   1.60;   BMIX_MAG =  1.00
     AMIN     =   0.10
     WC   =   100.;   INIMIX=   1;  MIXPRE=   1;  MAXMIX= -45

 Intra band minimization:
   WEIMIN = 0.0000     energy-eigenvalue tresh-hold
   EBREAK =  0.78E-11  absolut break condition
   DEPER  =   0.30     relativ break condition  

   TIME   =   0.40     timestep for ELM

  volume/ion in A,a.u.               =      20.44       137.96
  Fermi-wavevector in a.u.,A,eV,Ry     =   0.950408  1.796010 12.289804  0.903275
  Thomas-Fermi vector in A             =   2.078782
 
 Write flags
   LWAVE        =      F    write WAVECAR
   LDOWNSAMPLE  =      F    k-point downsampling of WAVECAR
   LCHARG       =      F    write CHGCAR
   LVTOT        =      F    write LOCPOT, total local potential
   LVHAR        =      F    write LOCPOT, Hartree potential only
   LELF         =      F    write electronic localiz. function (ELF)
   LORBIT       =      0    0 simple, 1 ext, 2 COOP (PROOUT), +10 PAW based schemes


 Dipole corrections
   LMONO  =      F    monopole corrections only (constant potential shift)
   LDIPOL =      F    correct potential (dipole corrections)
   IDIPOL =      0    1-x, 2-y, 3-z, 4-all directions 
   EPSILON=  1.0000000 bulk dielectric constant

 Exchange correlation treatment:
   GGA     =    --    GGA type
   LEXCH   =     8    internal setting for exchange type
   VOSKOWN=      0    Vosko Wilk Nusair interpolation
   LHFCALC =     F    Hartree Fock is set to
   LHFONE  =     F    Hartree Fock one center treatment
   AEXX    =    0.0000 exact exchange contribution

 Linear response parameters
   LEPSILON=     F    determine dielectric tensor
   LRPA    =     F    only Hartree local field effects (RPA)
   LNABLA  =     F    use nabla operator in PAW spheres
   LVEL    =     F    velocity operator in full k-point grid
   LINTERFAST=   F  fast interpolation
   KINTER  =     0    interpolate to denser k-point grid
   CSHIFT  =0.1000    complex shift for real part using Kramers Kronig
   OMEGAMAX=  -1.0    maximum frequency
   DEG_THRESHOLD= 0.2000000E-02 threshold for treating states as degnerate
   RTIME   =   -0.100 relaxation time in fs
  (WPLASMAI=    0.000 imaginary part of plasma frequency in eV, 0.658/RTIME)
   DFIELD  = 0.0000000 0.0000000 0.0000000 field for delta impulse in time
 
 Orbital magnetization related:
   ORBITALMAG=     F  switch on orbital magnetization
   LCHIMAG   =     F  perturbation theory with respect to B field
   DQ        =  0.001000  dq finite difference perturbation B field
   LLRAUG    =     F  two centre corrections for induced B field



--------------------------------------------------------------------------------------------------------


 Static calculation
 charge density and potential will be updated during run
 non-spin polarized calculation
 Variant of blocked Davidson
 Davidson routine will perform the subspace rotation
 perform sub-space diagonalisation
    after iterative eigenvector-optimisation
 modified Broyden-mixing scheme, WC =      100.0
 initial mixing is a Kerker type mixing with AMIX =  0.4000 and BMIX =      1.0000
 Hartree-type preconditioning will be used
 using additional bands           66
 reciprocal scheme for non local part
 use partial core corrections
 calculate Harris-corrections to forces 
   (improved forces if not selfconsistent)
 use gradient corrections 
 use of overlap-Matrix (Vanderbilt PP)
 Gauss-broadening in eV      SIGMA  =   0.01


--------------------------------------------------------------------------------------------------------


  energy-cutoff  :      500.00
  volume of cell :     2616.76
      direct lattice vectors                 reciprocal lattice vectors
     0.000000000 10.937333691 10.937333691    -0.045714981  0.045714981  0.045714981
    10.937333691  0.000000000 10.937333691     0.045714981 -0.045714981  0.045714981
    10.937333691 10.937333691  0.000000000     0.045714981  0.045714981 -0.045714981

  length of vectors
    15.467725642 15.467725642 15.467725642     0.079180669  0.079180669  0.079180669


 
 k-points in units of 2pi/SCALE and weight: KPOINTS File, automatically generated by
   0.00000000  0.00000000  0.00000000       0.125
  -0.02285749  0.02285749  0.02285749       0.125
   0.02285749 -0.02285749  0.02285749       0.125
   0.00000000  0.00000000  0.04571498       0.125
   0.02285749  0.02285749 -0.02285749       0.125
   0.00000000  0.04571498  0.00000000       0.125
   0.04571498  0.00000000  0.00000000       0.125
   0.02285749  0.02285749  0.02285749       0.125
 
 k-points in reciprocal lattice and weights: KPOINTS File, automatically generated by
   0.00000000  0.00000000  0.00000000       0.125
   0.50000000  0.00000000  0.00000000       0.125
   0.00000000  0.50000000  0.00000000       0.125
   0.50000000  0.50000000  0.00000000       0.125
   0.00000000  0.00000000  0.50000000       0.125
   0.50000000  0.00000000  0.50000000       0.125
   0.00000000  0.50000000  0.50000000       0.125
   0.50000000  0.50000000  0.50000000       0.125
 
 position of ions in fractional coordinates (direct lattice) 
   0.00777669  0.99532681  0.00220485
   0.24953911  0.99662133  0.00869474
   0.50148530  0.01022068  0.99263791
   0.75795764  0.99917117  0.99792779
   0.00672740  0.25039940  0.99802714
   0.25543779  0.24356337  0.00002096
   0.48545968  0.25521405  0.00500955
   0.74425352  0.24081004  0.99649007
   0.99841969  0.49350170  0.99605499
   0.25030876  0.49558296  0.99820298
   0.49366084  0.49601805  0.99332433
   0.74527502  0.50352818  0.00086930
   0.00485270  0.74292424  0.98952903
   0.24934581  0.73837959  0.00931843
   0.49436614  0.75634632  0.00040906
   0.74656014  0.74723282  0.99926464
   0.01225746  0.98455637  0.25499227
   0.25555669  0.98616745  0.25786047
   0.50426571  0.00308305  0.25089365
   0.75100387  0.99566732  0.25340387
   0.00151250  0.25258220  0.24639690
   0.24572473  0.23868121  0.25273650
   0.49460805  0.25058636  0.25211178
   0.76525567  0.24980235  0.23385576
   0.00310204  0.49299855  0.24930983
   0.24057547  0.50579843  0.24878498
   0.50257919  0.49938875  0.24712424
   0.74235926  0.49318768  0.26675361
   0.99687866  0.75084224  0.25283606
   0.25084696  0.74593675  0.25549758
   0.49894795  0.74352324  0.25571246
   0.75288968  0.73859271  0.25179002
   0.99710426  0.01726258  0.49207349
   0.24217224  0.00517308  0.49813670
   0.51083505  0.99452352  0.49768219
   0.75158530  0.00810361  0.48962773
   0.00635905  0.25249396  0.49206532
   0.25405885  0.24906884  0.50556157
   0.49255755  0.24545087  0.51375197
   0.75030172  0.25147831  0.50444440
   0.99921697  0.50107698  0.50239218
   0.25580006  0.50677214  0.49198313
   0.49667239  0.49010643  0.50670071
   0.74833326  0.50135960  0.49623994
   0.99817133  0.73857582  0.50169411
   0.24503074  0.74796807  0.50533340
   0.49256195  0.74032225  0.50663860
   0.74388394  0.75067846  0.50977358
   0.99968318  0.00213637  0.75658338
   0.24095281  0.00416711  0.74601780
   0.49273817  0.01377025  0.73918502
   0.74886790  0.00752139  0.73946139
   0.99928942  0.25931548  0.73814999
   0.25131459  0.25337870  0.74611237
   0.49535877  0.25788304  0.75485159
   0.73633898  0.25716129  0.75262224
   0.99578388  0.51172757  0.75088563
   0.24837634  0.49172358  0.74679607
   0.49452009  0.50887634  0.74171174
   0.75881710  0.49218234  0.75582088
   0.00032899  0.74371276  0.74685254
   0.25207109  0.73927013  0.76236589
   0.49665748  0.75301898  0.74847138
   0.74590878  0.76575921  0.74526547
   0.05879698  0.06145677  0.05724416
   0.31903673  0.06328907  0.05619076
   0.56101536  0.04979749  0.07193720
   0.81847310  0.05313247  0.06471010
   0.07174072  0.31169660  0.05504289
   0.30482182  0.31004487  0.06995171
   0.55712632  0.31645127  0.06723382
   0.81061415  0.30621427  0.05814943
   0.06326561  0.56753543  0.05296215
   0.31175211  0.55803736  0.06069098
   0.56619458  0.55464907  0.06823415
   0.80555111  0.55987544  0.06603213
   0.06341363  0.80576942  0.06167197
   0.31379671  0.81379346  0.05016859
   0.56133036  0.80427008  0.05613843
   0.80980732  0.81157097  0.07191651
   0.05704808  0.06218539  0.32033075
   0.30385524  0.06092869  0.31618418
   0.57144116  0.06403180  0.29919152
   0.80624897  0.06414702  0.31504062
   0.06830568  0.31534742  0.30688401
   0.31956343  0.30899663  0.30540955
   0.56529813  0.31212356  0.32080496
   0.81670510  0.30683649  0.31487066
   0.05985196  0.57009315  0.32400038
   0.31772160  0.55536493  0.31437607
   0.55951549  0.55941606  0.31627056
   0.81636885  0.55078192  0.30884467
   0.06338146  0.80669497  0.31560192
   0.31165182  0.81307252  0.30960529
   0.55769261  0.81587868  0.31471446
   0.80787373  0.82338046  0.31793342
   0.06505716  0.05481012  0.56260822
   0.30611995  0.07381425  0.54898899
   0.55615441  0.06230831  0.56600978
   0.81638487  0.06554422  0.55954878
   0.05389636  0.32621332  0.55835647
   0.31237330  0.31922785  0.56961600
   0.56454081  0.30897708  0.56065390
   0.81256120  0.30585521  0.57316828
   0.05363144  0.56009463  0.56442061
   0.31789062  0.55472840  0.56436027
   0.56327425  0.56260983  0.55907143
   0.80350569  0.56299414  0.56839369
   0.06376059  0.82124744  0.55875082
   0.31406497  0.80470724  0.57511322
   0.55279770  0.81118241  0.56965072
   0.82062312  0.80075164  0.56876555
   0.06610018  0.06590575  0.81131538
   0.31589053  0.07595533  0.79940995
   0.56325826  0.05462324  0.81344366
   0.82052548  0.05833191  0.81071170
   0.06378915  0.30487231  0.81175128
   0.32427526  0.31553877  0.81336046
   0.56530369  0.29989190  0.81910198
   0.80257198  0.32479168  0.81657418
   0.05935681  0.56918715  0.80812194
   0.31757346  0.56197306  0.81157199
   0.56226038  0.55502855  0.81728569
   0.81355907  0.57021167  0.81284967
   0.04857406  0.82385973  0.81617529
   0.31147765  0.81398164  0.81921470
   0.56073974  0.80977202  0.80922162
   0.80706261  0.82797997  0.81043777
 
 position of ions in cartesian coordinates  (Angst):
  10.91033665  0.10917150 10.97127769
  10.99547723  2.82438973 13.62967252
  10.96859900 16.34172412  5.59669905
  21.84293766 19.20470487 19.21830413
  13.65445768 10.98933573  2.81228162
   2.66416305  2.79403762  5.45774222
   2.84615229  5.36442557  8.10099567
  13.53276426 19.03909359 10.77396895
  16.29177855 21.81423512 16.31764201
  16.33803526 13.65538943  8.15806663
  16.28943456 16.26365298 10.82444827
   5.51676359  8.16082943 13.65857739
  18.94841950 10.87588479  8.17868585
   8.17782280  2.82909716 10.80308236
   8.27688610  5.41152149 13.67945958
  19.10202541 19.09466817 16.33811205
  13.55735711  2.92299949 10.90248552
  13.60634844  5.61541481 13.58115128
   2.77782795  8.25942989  5.54904270
  13.66150841 10.98554261 19.10392557
   5.45750088  2.71146781  2.77911849
   5.37479942  5.45183680  5.29810938
   5.49817735  8.16712395  8.15043995
   5.28993014 10.92761511 11.10202824
   8.11887446  2.76071291  5.42601769
   8.25313064  5.35229854  8.16334040
   8.16486166  8.19975649 10.95885769
   8.31173147 11.03700416 13.51358916
  10.97756449 13.66854689 19.11540673
  10.95302144  5.53805922 10.90215605
  10.92897429  8.25397276 13.58932199
  10.83214638 10.98851711 16.31284055
   5.57077849 16.28763398 11.09446859
   5.50486704  8.09700596  2.70529838
  16.32075185 11.03048957 16.46460899
   5.44385372 13.57556109  8.30897110
   8.14349330  5.45143360  2.83116178
   8.25364458  8.30822195  5.50287544
   8.30365486 11.00634306  8.07184442
   8.26777894 13.72357705 10.95680251
  10.97527712 16.42360037 16.40921562
  10.92371960  8.17875426  8.34050663
  10.90241231 10.97422640 10.79272923
  10.91107903 13.61231240 13.66830781
  13.56524611 16.40452880 18.99538311
  13.70777631  8.20698295 10.86075931
  13.63842700 10.92858986 13.48446590
  13.78598454 13.71167066 16.34652771
   8.29837116 19.20887347 10.95723477
   8.20502273 10.79482693  2.68095845
   8.23532309 13.47395509  5.53985163
   8.16999991 16.27835404  8.27288205
  10.90961274 19.00295462 13.76578185
  10.93176732 10.90919151  5.51999889
  11.07661657 13.67396796  8.23845701
  11.04433948 16.28526578 10.86624401
  13.80962187 19.10390724 16.48815572
  13.54610271 10.88453273  8.09471985
  13.67809913 13.52108003 10.97448165
  13.64982764 16.56610100 13.68259837
  16.30281005  8.17217371  8.13783295
  16.42389424 11.09523568 10.84262971
  16.42230103 13.61838980 13.66812845
  16.52658118 16.30947042 16.53361729
   1.29827168  1.26918068  1.31525547
   1.30679078  4.10398822  4.18162485
   1.33145282  6.92281335  6.68066396
   1.28888345  9.65966930  9.53304093
   4.01115219  1.38667467  4.19378192
   4.15614947  4.09902316  6.72500217
   4.19649191  6.82883522  9.55460962
   3.98516739  9.50195722 12.21512511
   6.78658909  1.27122179  6.89928149
   6.76723835  4.07353434  9.51317765
   6.81268170  6.93895882 12.25904109
   6.84576005  9.53279677 14.93412585
   9.48749589  1.36810289  9.50654496
   9.44944129  3.98080993 12.33282995
   9.41057493  6.75346221 14.93602773
   9.66299738  9.64370771 17.73355539
   4.18370669  4.12751827  1.30409630
   4.12460936  6.78157809  3.98976358
   3.97269468  9.52240008  6.95037980
   4.14730173 12.26391844  9.51981138
   6.80555277  4.10357480  4.19614198
   6.71996541  6.83553797  6.87477114
   6.92255049  9.69160517  9.59665383
   6.79981856 12.37642173 12.28854934
   9.77899928  4.19832112  6.88991978
   9.51264760  6.91346312  9.54923872
   9.57767682  9.57876433 12.23812778
   9.40202283 12.30683572 14.95298410
  12.27493554  4.14506764  9.51631616
  12.27910190  6.79489637 12.30148551
  12.36567437  9.54180716 15.02320745
  12.48293073 12.31332845 17.84157134
   6.75291041  6.86498572  1.31102836
   6.81180683  9.35261180  4.15546716
   6.87212458 12.27348419  6.76433312
   6.83685066 15.04904544  9.64595275
   9.67483496  6.69641353  4.15738648
   9.72158174  9.64661131  6.90803251
   9.51144414 12.30662998  9.55395665
   9.61417329 15.15618577 12.23249357
  12.29919848  6.75984148  6.71252682
  12.23984619  9.64947236  9.54412545
  12.26820221 12.27546918 12.31416987
  12.37436625 15.00492130 14.94586469
  15.09350139  6.80861495  9.67962810
  15.09155677  9.72523853 12.23638497
  15.10263276 12.27659294 14.91830564
  14.97886652 15.19620752 17.73351683
   9.59446022  9.59658677  1.44379299
   9.57416215 12.19841346  4.28574895
   9.49433737 15.05744828  6.75797610
   9.50501991 17.84138530  9.61235650
  12.21288483  9.57607779  4.03217343
  12.34714767 12.44270150  6.99785955
  12.23880947 15.14170676  9.46293284
  12.48349930 17.70914179 12.33035253
  15.06408914  9.48790459  6.87459506
  15.02292050 12.34984055  9.61989376
  15.00945873 15.08855571 12.22016189
  15.12700334 17.78857514 15.13476236
  17.93761032  9.45805225  9.54209950
  17.86281335 12.36675954 12.30952378
  17.70747367 14.98372453 14.98974453
  17.91992156 17.69114141 17.88300638
 


--------------------------------------------------------------------------------------------------------


 k-point  1 :   0.0000 0.0000 0.0000  plane waves:   66299
 k-point  2 :   0.5000 0.0000 0.0000  plane waves:   66394
 k-point  3 :   0.0000 0.5000 0.0000  plane waves:   66394
 k-point  4 :   0.5000 0.5000 0.0000  plane waves:   66552
 k-point  5 :   0.0000 0.0000 0.5000  plane waves:   66394
 k-point  6 :   0.5000 0.0000 0.5000  plane waves:   66552
 k-point  7 :   0.0000 0.5000 0.5000  plane waves:   66552
 k-point  8 :   0.5000 0.5000 0.5000  plane waves:   66394

 maximum and minimum number of plane-waves per node :      4207     4110

 maximum number of plane-waves:     66552
 maximum index in each direction: 
   IXMAX=   28   IYMAX=   28   IZMAX=   28
   IXMIN=  -28   IYMIN=  -28   IZMIN=  -28


 parallel 3D FFT for wavefunctions:
    minimum data exchange during FFTs selected (reduces bandwidth)
 parallel 3D FFT for charge:
    minimum data exchange during FFTs selected (reduces bandwidth)


 total amount of memory used by VASP MPI-rank0   221701. kBytes
=======================================================================

   base      :      30000. kBytes
   nonl-proj :      10690. kBytes
   fftplans  :      66746. kBytes
   grid      :      26864. kBytes
   one-center:         24. kBytes
   wavefun   :      87377. kBytes
 
     INWAV:  cpu time    0.0000: real time    0.0002
 Broyden mixing: mesh for mixing (old mesh)
   NGX = 57   NGY = 57   NGZ = 57
  (NGX  =240   NGY  =240   NGZ  =240)
  gives a total of 185193 points

 initial charge density was supplied:
 charge density of overlapping atoms calculated
 number of electron     512.0000000 magnetization 
 keeping initial charge density in first step


--------------------------------------------------------------------------------------------------------


 Maximum index for augmentation-charges         5610 (set IRDMAX)


--------------------------------------------------------------------------------------------------------


 First call to EWALD:  gamma=   0.129
 Maximum number of real-space cells 3x 3x 3
 Maximum number of reciprocal cells 3x 3x 3

    FEWALD:  cpu time    0.0059: real time    0.0058


--------------------------------------- Iteration      1(   1)  ---------------------------------------


    POTLOK:  cpu time    0.4891: real time    0.4977
    SETDIJ:  cpu time    0.5057: real time    0.5063
     EDDAV:  cpu time   70.3942: real time   70.4314
       DOS:  cpu time    0.0029: real time    0.0029
    --------------------------------------------
      LOOP:  cpu time   71.3919: real time   71.4384

 eigenvalue-minimisations  :  5152
 total energy-change (2. order) : 0.1384158E+04  (-0.1908349E+05)
 number of electron     512.0000000 magnetization 
 augmentation part      512.0000000 magnetization 

 Free energy of the ion-electron system (eV)
  ---------------------------------------------------
  alpha Z        PSCENC =       210.77028614
  Ewald energy   TEWEN  =    -14475.11092654
  -Hartree energ DENC   =      -750.67738565
  -exchange      EXHF   =         0.00000000
  -V(xc)+E(xc)   XCENC  =     -1195.30385258
  PAW double counting   =      4221.13331941    -1969.18571412
  entropy T*S    EENTRO =        -0.00270829
  eigenvalues    EBANDS =      2150.05437998
  atomic energy  EATOM  =     13192.48085998
  Solvation  Ediel_sol  =         0.00000000
  ---------------------------------------------------
  free energy    TOTEN  =      1384.15825835 eV

  energy without entropy =     1384.16096663  energy(sigma->0) =     1384.15961249


--------------------------------------------------------------------------------------------------------




--------------------------------------- Iteration      1(   2)  ---------------------------------------


     EDDAV:  cpu time   80.2008: real time   80.2364
       DOS:  cpu time    0.0014: real time    0.0014
    --------------------------------------------
      LOOP:  cpu time   80.2023: real time   80.2378

 eigenvalue-minimisations  :  6104
 total energy-change (2. order) :-0.1920939E+04  (-0.1826471E+04)
 number of electron     512.0000000 magnetization 
 augmentation part      512.0000000 magnetization 

 Free energy of the ion-electron system (eV)
  ---------------------------------------------------
  alpha Z        PSCENC =       210.77028614
  Ewald energy   TEWEN  =    -14475.11092654
  -Hartree energ DENC   =      -750.67738565
  -exchange      EXHF   =         0.00000000
  -V(xc)+E(xc)   XCENC  =     -1195.30385258
  PAW double counting   =      4221.13331941    -1969.18571412
  entropy T*S    EENTRO =        -0.00000000
  eigenvalues    EBANDS =       229.11228202
  atomic energy  EATOM  =     13192.48085998
  Solvation  Ediel_sol  =         0.00000000
  ---------------------------------------------------
  free energy    TOTEN  =      -536.78113133 eV

  energy without entropy =     -536.78113133  energy(sigma->0) =     -536.78113133


--------------------------------------------------------------------------------------------------------




--------------------------------------- Iteration      1(   3)  ---------------------------------------


     EDDAV:  cpu time   81.9343: real time   81.9634
       DOS:  cpu time    0.0019: real time    0.0019
    --------------------------------------------
      LOOP:  cpu time   81.9362: real time   81.9653

 eigenvalue-minimisations  :  6272
 total energy-change (2. order) :-0.1500353E+03  (-0.1470295E+03)
 number of electron     512.0000000 magnetization 
 augmentation part      512.0000000 magnetization 

 Free energy of the ion-electron system (eV)
  ---------------------------------------------------
  alpha Z        PSCENC =       210.77028614
  Ewald energy   TEWEN  =    -14475.11092654
  -Hartree energ DENC   =      -750.67738565
  -exchange      EXHF   =         0.00000000
  -V(xc)+E(xc)   XCENC  =     -1195.30385258
  PAW double counting   =      4221.13331941    -1969.18571412
  entropy T*S    EENTRO =        -0.00000000
  eigenvalues    EBANDS =        79.07702583
  atomic energy  EATOM  =     13192.48085998
  Solvation  Ediel_sol  =         0.00000000
  ---------------------------------------------------
  free energy    TOTEN  =      -686.81638751 eV

  energy without entropy =     -686.81638751  energy(sigma->0) =     -686.81638751


--------------------------------------------------------------------------------------------------------




--------------------------------------- Iteration      1(   4)  ---------------------------------------


     EDDAV:  cpu time   81.0004: real time   81.0372
       DOS:  cpu time    0.0019: real time    0.0019
    --------------------------------------------
      LOOP:  cpu time   81.0023: real time   81.0391

 eigenvalue-minimisations  :  6176
 total energy-change (2. order) :-0.4312851E+01  (-0.4277219E+01)
 number of electron     512.0000000 magnetization 
 augmentation part      512.0000000 magnetization 

 Free energy of the ion-electron system (eV)
  ---------------------------------------------------
  alpha Z        PSCENC =       210.77028614
  Ewald energy   TEWEN  =    -14475.11092654
  -Hartree energ DENC   =      -750.67738565
  -exchange      EXHF   =         0.00000000
  -V(xc)+E(xc)   XCENC  =     -1195.30385258
  PAW double counting   =      4221.13331941    -1969.18571412
  entropy T*S    EENTRO =        -0.00000000
  eigenvalues    EBANDS =        74.76417526
  atomic energy  EATOM  =     13192.48085998
  Solvation  Ediel_sol  =         0.00000000
  ---------------------------------------------------
  free energy    TOTEN  =      -691.12923809 eV

  energy without entropy =     -691.12923809  energy(sigma->0) =     -691.12923809


--------------------------------------------------------------------------------------------------------




--------------------------------------- Iteration      1(   5)  ---------------------------------------


     EDDAV:  cpu time   82.4054: real time   82.4454
       DOS:  cpu time    0.0010: real time    0.0010
    CHARGE:  cpu time    3.1266: real time    3.1272
    MIXING:  cpu time    0.0277: real time    0.0278
    --------------------------------------------
      LOOP:  cpu time   85.5608: real time   85.6014

 eigenvalue-minimisations  :  6328
 total energy-change (2. order) :-0.1534179E+00  (-0.1530106E+00)
 number of electron     511.9999998 magnetization 
 augmentation part      -30.1834702 magnetization 

 Broyden mixing:
  rms(total) = 0.24031E+01    rms(broyden)= 0.24031E+01
  rms(prec ) = 0.29121E+01
  weight for this iteration     100.00

 Free energy of the ion-electron system (eV)
  ---------------------------------------------------
  alpha Z        PSCENC =       210.77028614
  Ewald energy   TEWEN  =    -14475.11092654
  -Hartree energ DENC   =      -750.67738565
  -exchange      EXHF   =         0.00000000
  -V(xc)+E(xc)   XCENC  =     -1195.30385258
  PAW double counting   =      4221.13331941    -1969.18571412
  entropy T*S    EENTRO =        -0.00000000
  eigenvalues    EBANDS =        74.61075736
  atomic energy  EATOM  =     13192.48085998
  Solvation  Ediel_sol  =         0.00000000
  ---------------------------------------------------
  free energy    TOTEN  =      -691.28265598 eV

  energy without entropy =     -691.28265598  energy(sigma->0) =     -691.28265598


--------------------------------------------------------------------------------------------------------




--------------------------------------- Iteration      1(   6)  ---------------------------------------


    POTLOK:  cpu time    0.4945: real time    0.4989
    SETDIJ:  cpu time    0.5034: real time    0.5035
     EDDAV:  cpu time   78.3495: real time   78.3779
       DOS:  cpu time    0.0018: real time    0.0018
    CHARGE:  cpu time    3.1344: real time    3.1367
    MIXING:  cpu time    0.0308: real time    0.0308
    --------------------------------------------
      LOOP:  cpu time   82.5145: real time   82.5497

 eigenvalue-minimisations  :  5944
 total energy-change (2. order) : 0.8495648E+01  (-0.5881363E+00)
 number of electron     511.9999998 magnetization 
 augmentation part      -29.8412726 magnetization 

 Broyden mixing:
  rms(total) = 0.14283E+01    rms(broyden)= 0.14283E+01
  rms(prec ) = 0.17210E+01
  weight for this iteration     100.00

 eigenvalues of (default mixing * dielectric matrix)
  average eigenvalue GAMMA=   2.4318
  2.4318

 Free energy of the ion-electron system (eV)
  ---------------------------------------------------
  alpha Z        PSCENC =       210.77028614
  Ewald energy   TEWEN  =    -14475.11092654
  -Hartree energ DENC   =      -846.24269476
  -exchange      EXHF   =         0.00000000
  -V(xc)+E(xc)   XCENC  =     -1180.60337529
  PAW double counting   =      4467.24690882    -2222.11523078
  entropy T*S    EENTRO =        -0.00000000
  eigenvalues    EBANDS =       170.78716432
  atomic energy  EATOM  =     13192.48085998
  Solvation  Ediel_sol  =         0.00000000
  ---------------------------------------------------
  free energy    TOTEN  =      -682.78700811 eV

  energy without entropy =     -682.78700811  energy(sigma->0) =     -682.78700811


--------------------------------------------------------------------------------------------------------




--------------------------------------- Iteration      1(   7)  ---------------------------------------


    POTLOK:  cpu time    0.4904: real time    0.4935
    SETDIJ:  cpu time    0.5033: real time    0.5038
     EDDAV:  cpu time   77.1198: real time   77.1600
       DOS:  cpu time    0.0014: real time    0.0014
    CHARGE:  cpu time    3.1237: real time    3.1254
    MIXING:  cpu time    0.0228: real time    0.0228
    --------------------------------------------
      LOOP:  cpu time   81.2613: real time   81.3068

 eigenvalue-minimisations  :  5824
 total energy-change (2. order) : 0.3541647E+01  (-0.1143691E+01)
 number of electron     511.9999998 magnetization 
 augmentation part      -29.3828854 magnetization 

 Broyden mixing:
  rms(total) = 0.15704E+00    rms(broyden)= 0.15704E+00
  rms(prec ) = 0.20507E+00
  weight for this iteration     100.00

 eigenvalues of (default mixing * dielectric matrix)
  average eigenvalue GAMMA=   2.0876
  2.0876  2.0876

 Free energy of the ion-electron system (eV)
  ---------------------------------------------------
  alpha Z        PSCENC =       210.77028614
  Ewald energy   TEWEN  =    -14475.11092654
  -Hartree energ DENC   =      -997.43467636
  -exchange      EXHF   =         0.00000000
  -V(xc)+E(xc)   XCENC  =     -1156.59338898
  PAW double counting   =      4789.13664585    -2552.59675909
  entropy T*S    EENTRO =        -0.00000000
  eigenvalues    EBANDS =       310.10259795
  atomic energy  EATOM  =     13192.48085998
  Solvation  Ediel_sol  =         0.00000000
  ---------------------------------------------------
  free energy    TOTEN  =      -679.24536105 eV

  energy without entropy =     -679.24536105  energy(sigma->0) =     -679.24536105


--------------------------------------------------------------------------------------------------------




--------------------------------------- Iteration      1(   8)  ---------------------------------------


    POTLOK:  cpu time    0.4897: real time    0.4909
    SETDIJ:  cpu time    0.5072: real time    0.5073
     EDDAV:  cpu time   77.1137: real time   77.1594
       DOS:  cpu time    0.0018: real time    0.0018
    CHARGE:  cpu time    3.1523: real time    3.1526
    MIXING:  cpu time    0.0295: real time    0.0295
    --------------------------------------------
      LOOP:  cpu time   81.2942: real time   81.3415

 eigenvalue-minimisations  :  5808
 total energy-change (2. order) :-0.5544886E-01  (-0.1102711E+00)
 number of electron     511.9999998 magnetization 
 augmentation part      -29.4532545 magnetization 

 Broyden mixing:
  rms(total) = 0.63848E-01    rms(broyden)= 0.63848E-01
  rms(prec ) = 0.79059E-01
  weight for this iteration     100.00

 eigenvalues of (default mixing * dielectric matrix)
  average eigenvalue GAMMA=   2.0051
  2.6763  1.6695  1.6695

 Free energy of the ion-electron system (eV)
  ---------------------------------------------------
  alpha Z        PSCENC =       210.77028614
  Ewald energy   TEWEN  =    -14475.11092654
  -Hartree energ DENC   =      -990.87536959
  -exchange      EXHF   =         0.00000000
  -V(xc)+E(xc)   XCENC  =     -1156.72217541
  PAW double counting   =      4741.55927530    -2503.53767200
  entropy T*S    EENTRO =        -0.00000000
  eigenvalues    EBANDS =       302.13491220
  atomic energy  EATOM  =     13192.48085998
  Solvation  Ediel_sol  =         0.00000000
  ---------------------------------------------------
  free energy    TOTEN  =      -679.30080991 eV

  energy without entropy =     -679.30080991  energy(sigma->0) =     -679.30080991


--------------------------------------------------------------------------------------------------------




--------------------------------------- Iteration      1(   9)  ---------------------------------------


    POTLOK:  cpu time    0.4936: real time    0.4942
    SETDIJ:  cpu time    0.5055: real time    0.5055
     EDDAV:  cpu time   79.9371: real time   79.9781
       DOS:  cpu time    0.0011: real time    0.0011
    CHARGE:  cpu time    3.1499: real time    3.1505
    MIXING:  cpu time    0.0249: real time    0.0249
    --------------------------------------------
      LOOP:  cpu time   84.1120: real time   84.1543

 eigenvalue-minimisations  :  6104
 total energy-change (2. order) :-0.2292388E-01  (-0.1101795E-01)
 number of electron     511.9999998 magnetization 
 augmentation part      -29.4588283 magnetization 

 Broyden mixing:
  rms(total) = 0.29321E-01    rms(broyden)= 0.29321E-01
  rms(prec ) = 0.34030E-01
  weight for this iteration     100.00

 eigenvalues of (default mixing * dielectric matrix)
  average eigenvalue GAMMA=   1.7823
  2.5903  1.8262  1.8262  0.8866

 Free energy of the ion-electron system (eV)
  ---------------------------------------------------
  alpha Z        PSCENC =       210.77028614
  Ewald energy   TEWEN  =    -14475.11092654
  -Hartree energ DENC   =      -997.66855363
  -exchange      EXHF   =         0.00000000
  -V(xc)+E(xc)   XCENC  =     -1155.52719410
  PAW double counting   =      4744.76350521    -2506.82874247
  entropy T*S    EENTRO =        -0.00000000
  eigenvalues    EBANDS =       307.79703161
  atomic energy  EATOM  =     13192.48085998
  Solvation  Ediel_sol  =         0.00000000
  ---------------------------------------------------
  free energy    TOTEN  =      -679.32373379 eV

  energy without entropy =     -679.32373379  energy(sigma->0) =     -679.32373379


--------------------------------------------------------------------------------------------------------




--------------------------------------- Iteration      1(  10)  ---------------------------------------


    POTLOK:  cpu time    0.4921: real time    0.4933
    SETDIJ:  cpu time    0.5043: real time    0.5043
     EDDAV:  cpu time   79.1281: real time   79.1717
       DOS:  cpu time    0.0011: real time    0.0011
    CHARGE:  cpu time    3.1609: real time    3.1648
    MIXING:  cpu time    0.0281: real time    0.0281
    --------------------------------------------
      LOOP:  cpu time   83.3146: real time   83.3634

 eigenvalue-minimisations  :  6024
 total energy-change (2. order) :-0.2404450E-02  (-0.8796583E-03)
 number of electron     511.9999998 magnetization 
 augmentation part      -29.4685876 magnetization 

 Broyden mixing:
  rms(total) = 0.12024E-01    rms(broyden)= 0.12024E-01
  rms(prec ) = 0.14364E-01
  weight for this iteration     100.00

 eigenvalues of (default mixing * dielectric matrix)
  average eigenvalue GAMMA=   1.8596
  2.6884  2.6884  1.5065  1.5065  0.9080

 Free energy of the ion-electron system (eV)
  ---------------------------------------------------
  alpha Z        PSCENC =       210.77028614
  Ewald energy   TEWEN  =    -14475.11092654
  -Hartree energ DENC   =      -996.47932957
  -exchange      EXHF   =         0.00000000
  -V(xc)+E(xc)   XCENC  =     -1155.70327974
  PAW double counting   =      4737.65956167    -2499.54715396
  entropy T*S    EENTRO =        -0.00000000
  eigenvalues    EBANDS =       306.60384378
  atomic energy  EATOM  =     13192.48085998
  Solvation  Ediel_sol  =         0.00000000
  ---------------------------------------------------
  free energy    TOTEN  =      -679.32613824 eV

  energy without entropy =     -679.32613824  energy(sigma->0) =     -679.32613824


--------------------------------------------------------------------------------------------------------




--------------------------------------- Iteration      1(  11)  ---------------------------------------


    POTLOK:  cpu time    0.4909: real time    0.4920
    SETDIJ:  cpu time    0.5029: real time    0.5037
     EDDAV:  cpu time   77.2613: real time   77.3005
       DOS:  cpu time    0.0011: real time    0.0011
    CHARGE:  cpu time    3.1475: real time    3.1488
    MIXING:  cpu time    0.0273: real time    0.0273
    --------------------------------------------
      LOOP:  cpu time   81.4310: real time   81.4733

 eigenvalue-minimisations  :  5824
 total energy-change (2. order) :-0.1607984E-02  (-0.2608819E-03)
 number of electron     511.9999998 magnetization 
 augmentation part      -29.4714226 magnetization 

 Broyden mixing:
  rms(total) = 0.40791E-02    rms(broyden)= 0.40791E-02
  rms(prec ) = 0.57222E-02
  weight for this iteration     100.00

 eigenvalues of (default mixing * dielectric matrix)
  average eigenvalue GAMMA=   1.7660
  2.8387  1.9439  1.9439  1.8051  1.2004  0.8640

 Free energy of the ion-electron system (eV)
  ---------------------------------------------------
  alpha Z        PSCENC =       210.77028614
  Ewald energy   TEWEN  =    -14475.11092654
  -Hartree energ DENC   =      -996.33107955
  -exchange      EXHF   =         0.00000000
  -V(xc)+E(xc)   XCENC  =     -1155.72285245
  PAW double counting   =      4732.93171537    -2494.70950089
  entropy T*S    EENTRO =        -0.00000000
  eigenvalues    EBANDS =       306.36375171
  atomic energy  EATOM  =     13192.48085998
  Solvation  Ediel_sol  =         0.00000000
  ---------------------------------------------------
  free energy    TOTEN  =      -679.32774623 eV

  energy without entropy =     -679.32774623  energy(sigma->0) =     -679.32774623


--------------------------------------------------------------------------------------------------------




--------------------------------------- Iteration      1(  12)  ---------------------------------------


    POTLOK:  cpu time    0.4898: real time    0.4915
    SETDIJ:  cpu time    0.5044: real time    0.5044
     EDDAV:  cpu time   80.5387: real time   80.5776
       DOS:  cpu time    0.0012: real time    0.0012
    CHARGE:  cpu time    3.1451: real time    3.1454
    MIXING:  cpu time    0.0317: real time    0.0317
    --------------------------------------------
      LOOP:  cpu time   84.7109: real time   84.7518

 eigenvalue-minimisations  :  6160
 total energy-change (2. order) :-0.4077470E-04  (-0.4622384E-04)
 number of electron     511.9999998 magnetization 
 augmentation part      -29.4694607 magnetization 

 Broyden mixing:
  rms(total) = 0.17731E-02    rms(broyden)= 0.17731E-02
  rms(prec ) = 0.21420E-02
  weight for this iteration     100.00

 eigenvalues of (default mixing * dielectric matrix)
  average eigenvalue GAMMA=   1.8293
  3.1546  2.6925  1.7650  1.7650  0.8898  1.2692  1.2692

 Free energy of the ion-electron system (eV)
  ---------------------------------------------------
  alpha Z        PSCENC =       210.77028614
  Ewald energy   TEWEN  =    -14475.11092654
  -Hartree energ DENC   =      -996.95795074
  -exchange      EXHF   =         0.00000000
  -V(xc)+E(xc)   XCENC  =     -1155.65133995
  PAW double counting   =      4734.29053905    -2496.11330956
  entropy T*S    EENTRO =        -0.00000000
  eigenvalues    EBANDS =       306.96405461
  atomic energy  EATOM  =     13192.48085998
  Solvation  Ediel_sol  =         0.00000000
  ---------------------------------------------------
  free energy    TOTEN  =      -679.32778700 eV

  energy without entropy =     -679.32778700  energy(sigma->0) =     -679.32778700


--------------------------------------------------------------------------------------------------------




--------------------------------------- Iteration      1(  13)  ---------------------------------------


    POTLOK:  cpu time    0.4871: real time    0.4902
    SETDIJ:  cpu time    0.5059: real time    0.5059
     EDDAV:  cpu time   77.0426: real time   77.0812
       DOS:  cpu time    0.0012: real time    0.0012
    CHARGE:  cpu time    3.1888: real time    3.1928
    MIXING:  cpu time    0.0325: real time    0.0325
    --------------------------------------------
      LOOP:  cpu time   81.2581: real time   81.3038

 eigenvalue-minimisations  :  5816
 total energy-change (2. order) :-0.3285011E-04  (-0.1230090E-04)
 number of electron     511.9999998 magnetization 
 augmentation part      -29.4693510 magnetization 

 Broyden mixing:
  rms(total) = 0.63638E-03    rms(broyden)= 0.63636E-03
  rms(prec ) = 0.83577E-03
  weight for this iteration     100.00

 eigenvalues of (default mixing * dielectric matrix)
  average eigenvalue GAMMA=   1.7767
  3.1364  2.5489  1.9340  1.9340  1.3836  1.3836  0.9464  0.9464

 Free energy of the ion-electron system (eV)
  ---------------------------------------------------
  alpha Z        PSCENC =       210.77028614
  Ewald energy   TEWEN  =    -14475.11092654
  -Hartree energ DENC   =      -996.96761360
  -exchange      EXHF   =         0.00000000
  -V(xc)+E(xc)   XCENC  =     -1155.66077148
  PAW double counting   =      4733.75912396    -2495.57186431
  entropy T*S    EENTRO =        -0.00000000
  eigenvalues    EBANDS =       306.97308599
  atomic energy  EATOM  =     13192.48085998
  Solvation  Ediel_sol  =         0.00000000
  ---------------------------------------------------
  free energy    TOTEN  =      -679.32781985 eV

  energy without entropy =     -679.32781985  energy(sigma->0) =     -679.32781985


--------------------------------------------------------------------------------------------------------




--------------------------------------- Iteration      1(  14)  ---------------------------------------


    POTLOK:  cpu time    0.4886: real time    0.4902
    SETDIJ:  cpu time    0.5078: real time    0.5078
     EDDAV:  cpu time   80.2293: real time   80.2694
       DOS:  cpu time    0.0012: real time    0.0012
    CHARGE:  cpu time    3.1893: real time    3.1903
    MIXING:  cpu time    0.0249: real time    0.0249
    --------------------------------------------
      LOOP:  cpu time   84.4412: real time   84.4839

 eigenvalue-minimisations  :  6136
 total energy-change (2. order) :-0.3992898E-05  (-0.1000605E-05)
 number of electron     511.9999998 magnetization 
 augmentation part      -29.4692308 magnetization 

 Broyden mixing:
  rms(total) = 0.20438E-03    rms(broyden)= 0.20432E-03
  rms(prec ) = 0.27621E-03
  weight for this iteration     100.00

 eigenvalues of (default mixing * dielectric matrix)
  average eigenvalue GAMMA=   1.7720
  3.2102  2.6002  2.2649  1.6804  1.6804  1.2938  1.2938  0.9247  0.9998

 Free energy of the ion-electron system (eV)
  ---------------------------------------------------
  alpha Z        PSCENC =       210.77028614
  Ewald energy   TEWEN  =    -14475.11092654
  -Hartree energ DENC   =      -997.01695291
  -exchange      EXHF   =         0.00000000
  -V(xc)+E(xc)   XCENC  =     -1155.65354146
  PAW double counting   =      4733.91490494    -2495.73090496
  entropy T*S    EENTRO =        -0.00000000
  eigenvalues    EBANDS =       307.01845097
  atomic energy  EATOM  =     13192.48085998
  Solvation  Ediel_sol  =         0.00000000
  ---------------------------------------------------
  free energy    TOTEN  =      -679.32782384 eV

  energy without entropy =     -679.32782384  energy(sigma->0) =     -679.32782384


--------------------------------------------------------------------------------------------------------




--------------------------------------- Iteration      1(  15)  ---------------------------------------


    POTLOK:  cpu time    0.4910: real time    0.4915
    SETDIJ:  cpu time    0.5069: real time    0.5085
     EDDAV:  cpu time   79.3623: real time   79.3981
       DOS:  cpu time    0.0011: real time    0.0011
    CHARGE:  cpu time    3.1905: real time    3.1906
    MIXING:  cpu time    0.0290: real time    0.0290
    --------------------------------------------
      LOOP:  cpu time   83.5808: real time   83.6188

 eigenvalue-minimisations  :  6048
 total energy-change (2. order) :-0.4229994E-05  (-0.2396373E-06)
 number of electron     511.9999998 magnetization 
 augmentation part      -29.4690778 magnetization 

 Broyden mixing:
  rms(total) = 0.74570E-04    rms(broyden)= 0.74427E-04
  rms(prec ) = 0.98676E-04
  weight for this iteration     100.00

 eigenvalues of (default mixing * dielectric matrix)
  average eigenvalue GAMMA=   1.7107
  3.2463  2.6070  2.1367  1.6980  1.6980  1.4223  1.4223  1.0585  0.9089  0.9089

 Free energy of the ion-electron system (eV)
  ---------------------------------------------------
  alpha Z        PSCENC =       210.77028614
  Ewald energy   TEWEN  =    -14475.11092654
  -Hartree energ DENC   =      -997.04570731
  -exchange      EXHF   =         0.00000000
  -V(xc)+E(xc)   XCENC  =     -1155.65183702
  PAW double counting   =      4733.99577591    -2495.81433793
  entropy T*S    EENTRO =        -0.00000000
  eigenvalues    EBANDS =       307.04805869
  atomic energy  EATOM  =     13192.48085998
  Solvation  Ediel_sol  =         0.00000000
  ---------------------------------------------------
  free energy    TOTEN  =      -679.32782807 eV

  energy without entropy =     -679.32782807  energy(sigma->0) =     -679.32782807


--------------------------------------------------------------------------------------------------------




--------------------------------------- Iteration      1(  16)  ---------------------------------------


    POTLOK:  cpu time    0.4912: real time    0.4958
    SETDIJ:  cpu time    0.5010: real time    0.5010
     EDDAV:  cpu time   80.2101: real time   80.2488
       DOS:  cpu time    0.0012: real time    0.0012
    CHARGE:  cpu time    3.1896: real time    3.1915
    MIXING:  cpu time    0.0235: real time    0.0235
    --------------------------------------------
      LOOP:  cpu time   84.4164: real time   84.4616

 eigenvalue-minimisations  :  6128
 total energy-change (2. order) : 0.5819493E-06  (-0.2185004E-07)
 number of electron     511.9999998 magnetization 
 augmentation part      -29.4690824 magnetization 

 Broyden mixing:
  rms(total) = 0.37318E-04    rms(broyden)= 0.37032E-04
  rms(prec ) = 0.48873E-04
  weight for this iteration     100.00

 eigenvalues of (default mixing * dielectric matrix)
  average eigenvalue GAMMA=   1.7187
  3.2922  2.6338  2.0853  2.0853  1.4824  1.4824  1.4400  1.4400  0.9083  1.0279
  1.0279

 Free energy of the ion-electron system (eV)
  ---------------------------------------------------
  alpha Z        PSCENC =       210.77028614
  Ewald energy   TEWEN  =    -14475.11092654
  -Hartree energ DENC   =      -997.04354214
  -exchange      EXHF   =         0.00000000
  -V(xc)+E(xc)   XCENC  =     -1155.65198908
  PAW double counting   =      4733.98597625    -2495.80408333
  entropy T*S    EENTRO =        -0.00000000
  eigenvalues    EBANDS =       307.04559122
  atomic energy  EATOM  =     13192.48085998
  Solvation  Ediel_sol  =         0.00000000
  ---------------------------------------------------
  free energy    TOTEN  =      -679.32782749 eV

  energy without entropy =     -679.32782749  energy(sigma->0) =     -679.32782749


--------------------------------------------------------------------------------------------------------




--------------------------------------- Iteration      1(  17)  ---------------------------------------


    POTLOK:  cpu time    0.4878: real time    0.4895
    SETDIJ:  cpu time    0.5046: real time    0.5047
     EDDAV:  cpu time   72.1470: real time   72.1736
       DOS:  cpu time    0.0011: real time    0.0011
    CHARGE:  cpu time    3.1777: real time    3.1798
    MIXING:  cpu time    0.0294: real time    0.0294
    --------------------------------------------
      LOOP:  cpu time   76.3476: real time   76.3781

 eigenvalue-minimisations  :  5328
 total energy-change (2. order) : 0.2063134E-06  (-0.4728979E-08)
 number of electron     511.9999998 magnetization 
 augmentation part      -29.4690888 magnetization 

 Broyden mixing:
  rms(total) = 0.16604E-04    rms(broyden)= 0.15952E-04
  rms(prec ) = 0.19428E-04
  weight for this iteration     100.00

 eigenvalues of (default mixing * dielectric matrix)
  average eigenvalue GAMMA=   1.6866
  3.2785  2.6130  2.2732  1.7221  1.7221  1.6312  1.4483  1.4483  0.9181  0.9906
  1.0970  1.0970

 Free energy of the ion-electron system (eV)
  ---------------------------------------------------
  alpha Z        PSCENC =       210.77028614
  Ewald energy   TEWEN  =    -14475.11092654
  -Hartree energ DENC   =      -997.04232597
  -exchange      EXHF   =         0.00000000
  -V(xc)+E(xc)   XCENC  =     -1155.65204466
  PAW double counting   =      4733.98553594    -2495.80344240
  entropy T*S    EENTRO =        -0.00000000
  eigenvalues    EBANDS =       307.04423022
  atomic energy  EATOM  =     13192.48085998
  Solvation  Ediel_sol  =         0.00000000
  ---------------------------------------------------
  free energy    TOTEN  =      -679.32782729 eV

  energy without entropy =     -679.32782729  energy(sigma->0) =     -679.32782729


--------------------------------------------------------------------------------------------------------




--------------------------------------- Iteration      1(  18)  ---------------------------------------


    POTLOK:  cpu time    0.4874: real time    0.4908
    SETDIJ:  cpu time    0.5060: real time    0.5066
     EDDAV:  cpu time   52.2308: real time   52.2606
       DOS:  cpu time    0.0011: real time    0.0011
    CHARGE:  cpu time    3.1870: real time    3.1876
    MIXING:  cpu time    0.0294: real time    0.0294
    --------------------------------------------
      LOOP:  cpu time   56.4417: real time   56.4761

 eigenvalue-minimisations  :  3336
 total energy-change (2. order) :-0.2069173E-06  (-0.9532888E-09)
 number of electron     511.9999998 magnetization 
 augmentation part      -29.4690824 magnetization 

 Broyden mixing:
  rms(total) = 0.70010E-05    rms(broyden)= 0.52706E-05
  rms(prec ) = 0.67271E-05
  weight for this iteration     100.00
  WARNING: grid for Broyden might be to small

 eigenvalues of (default mixing * dielectric matrix)
  average eigenvalue GAMMA=   1.7254
  3.3087  2.6829  2.5188  2.2223  1.7830  1.7830  1.3385  1.3385  1.2411  1.2411
  0.9184  0.9794  1.0745

 Free energy of the ion-electron system (eV)
  ---------------------------------------------------
  alpha Z        PSCENC =       210.77028614
  Ewald energy   TEWEN  =    -14475.11092654
  -Hartree energ DENC   =      -997.04362624
  -exchange      EXHF   =         0.00000000
  -V(xc)+E(xc)   XCENC  =     -1155.65189196
  PAW double counting   =      4733.99198901    -2495.81002641
  entropy T*S    EENTRO =        -0.00000000
  eigenvalues    EBANDS =       307.04550851
  atomic energy  EATOM  =     13192.48085998
  Solvation  Ediel_sol  =         0.00000000
  ---------------------------------------------------
  free energy    TOTEN  =      -679.32782749 eV

  energy without entropy =     -679.32782749  energy(sigma->0) =     -679.32782749


--------------------------------------------------------------------------------------------------------




--------------------------------------- Iteration      1(  19)  ---------------------------------------


    POTLOK:  cpu time    0.4879: real time    0.4909
    SETDIJ:  cpu time    0.5005: real time    0.5005
     EDDAV:  cpu time   51.7053: real time   51.7337
       DOS:  cpu time    0.0012: real time    0.0012
    CHARGE:  cpu time    3.2278: real time    3.2287
    MIXING:  cpu time    0.0290: real time    0.0290
    --------------------------------------------
      LOOP:  cpu time   55.9515: real time   55.9838

 eigenvalue-minimisations  :  3272
 total energy-change (2. order) : 0.4863250E-07  (-0.1978386E-09)
 number of electron     511.9999998 magnetization 
 augmentation part      -29.4690831 magnetization 

 Broyden mixing:
  rms(total) = 0.51028E-05    rms(broyden)= 0.21917E-05
  rms(prec ) = 0.29078E-05
  weight for this iteration     100.00
  WARNING: grid for Broyden might be to small

 eigenvalues of (default mixing * dielectric matrix)
  average eigenvalue GAMMA=   1.6880
  3.3196  2.7162  2.4421  2.1979  1.8061  1.8061  1.3668  1.3668  1.3056  1.3056
  0.9307  0.9307  1.0688  1.0688

 Free energy of the ion-electron system (eV)
  ---------------------------------------------------
  alpha Z        PSCENC =       210.77028614
  Ewald energy   TEWEN  =    -14475.11092654
  -Hartree energ DENC   =      -997.04344599
  -exchange      EXHF   =         0.00000000
  -V(xc)+E(xc)   XCENC  =     -1155.65190337
  PAW double counting   =      4733.99168313    -2495.80967924
  entropy T*S    EENTRO =        -0.00000000
  eigenvalues    EBANDS =       307.04529844
  atomic energy  EATOM  =     13192.48085998
  Solvation  Ediel_sol  =         0.00000000
  ---------------------------------------------------
  free energy    TOTEN  =      -679.32782744 eV

  energy without entropy =     -679.32782744  energy(sigma->0) =     -679.32782744


--------------------------------------------------------------------------------------------------------




--------------------------------------- Iteration      1(  20)  ---------------------------------------


    POTLOK:  cpu time    0.4914: real time    0.4928
    SETDIJ:  cpu time    0.4991: real time    0.4992
     EDDAV:  cpu time   50.5988: real time   50.6240
       DOS:  cpu time    0.0011: real time    0.0011
    --------------------------------------------
      LOOP:  cpu time   51.5904: real time   51.6170

 eigenvalue-minimisations  :  3168
 total energy-change (2. order) :-0.9109499E-08  (-0.2820103E-10)
 number of electron     511.9999998 magnetization 
 augmentation part      -29.4690831 magnetization 

 Free energy of the ion-electron system (eV)
  ---------------------------------------------------
  alpha Z        PSCENC =       210.77028614
  Ewald energy   TEWEN  =    -14475.11092654
  -Hartree energ DENC   =      -997.04352437
  -exchange      EXHF   =         0.00000000
  -V(xc)+E(xc)   XCENC  =     -1155.65189269
  PAW double counting   =      4733.99191739    -2495.80992028
  entropy T*S    EENTRO =        -0.00000000
  eigenvalues    EBANDS =       307.04537291
  atomic energy  EATOM  =     13192.48085998
  Solvation  Ediel_sol  =         0.00000000
  ---------------------------------------------------
  free energy    TOTEN  =      -679.32782745 eV

  energy without entropy =     -679.32782745  energy(sigma->0) =     -679.32782745


--------------------------------------------------------------------------------------------------------




 average (electrostatic) potential at core
  the test charge radii are     0.9892
  (the norm of the test charge is              1.0000)
       1 -83.6509       2 -83.5588       3 -83.5435       4 -83.5598       5 -83.5762
       6 -83.5238       7 -83.4919       8 -83.6556       9 -83.6205      10 -83.5564
      11 -83.4977      12 -83.4032      13 -83.4751      14 -83.4703      15 -83.3658
      16 -83.4774      17 -83.5577      18 -83.5381      19 -83.5804      20 -83.5317
      21 -83.6355      22 -83.5469      23 -83.4980      24 -83.5386      25 -83.7006
      26 -83.6622      27 -83.4056      28 -83.5212      29 -83.5389      30 -83.4055
      31 -83.4520      32 -83.5515      33 -83.6189      34 -83.4894      35 -83.6491
      36 -83.5384      37 -83.7014      38 -83.4703      39 -83.4535      40 -83.5255
      41 -83.4732      42 -83.4805      43 -83.4591      44 -83.5343      45 -83.4040
      46 -83.4589      47 -83.4389      48 -83.4723      49 -83.6255      50 -83.4446
      51 -83.3937      52 -83.6085      53 -83.6289      54 -83.3538      55 -83.3791
      56 -83.5840      57 -83.4449      58 -83.5640      59 -83.4574      60 -83.5539
      61 -83.5462      62 -83.3999      63 -83.3558      64 -83.3604      65 -83.5607
      66 -83.5982      67 -83.5902      68 -83.6332      69 -83.6355      70 -83.5110
      71 -83.4767      72 -83.5121      73 -83.5847      74 -83.5500      75 -83.4403
      76 -83.5274      77 -83.6397      78 -83.4815      79 -83.3604      80 -83.4342
      81 -83.6258      82 -83.5356      83 -83.5937      84 -83.4349      85 -83.5573
      86 -83.5608      87 -83.5289      88 -83.5841      89 -83.6674      90 -83.4590
      91 -83.4581      92 -83.5643      93 -83.3643      94 -83.3720      95 -83.5179
      96 -83.5773      97 -83.6316      98 -83.4510      99 -83.4552     100 -83.5248
     101 -83.5279     102 -83.3789     103 -83.4945     104 -83.5842     105 -83.4817
     106 -83.4705     107 -83.4818     108 -83.5834     109 -83.5897     110 -83.4484
     111 -83.4677     112 -83.3986     113 -83.5796     114 -83.3517     115 -83.6156
     116 -83.6229     117 -83.5476     118 -83.4877     119 -83.4631     120 -83.5564
     121 -83.5436     122 -83.4659     123 -83.4979     124 -83.4776     125 -83.4966
     126 -83.4012     127 -83.3838     128 -83.4571
 
 
 
 E-fermi :   5.9260     XC(G=0):  -9.3315     alpha+bet :-11.7321


 k-point     1 :       0.0000    0.0000    0.0000
  band No.  band energies     occupation 
      1      -6.2815      2.00000
      2      -5.6213      2.00000
      3      -5.6158      2.00000
      4      -5.5734      2.00000
      5      -5.5443      2.00000
      6      -5.4933      2.00000
      7      -5.4596      2.00000
      8      -5.4276      2.00000
      9      -5.4006      2.00000
     10      -5.2817      2.00000
     11      -5.2492      2.00000
     12      -5.2044      2.00000
     13      -5.1904      2.00000
     14      -5.1661      2.00000
     15      -5.1432      2.00000
     16      -4.4746      2.00000
     17      -4.4615      2.00000
     18      -4.4100      2.00000
     19      -4.3867      2.00000
     20      -4.3388      2.00000
     21      -4.3282      2.00000
     22      -4.2917      2.00000
     23      -4.2778      2.00000
     24      -4.2384      2.00000
     25      -4.2085      2.00000
     26      -4.1630      2.00000
     27      -4.1112      2.00000
     28      -4.0384      2.00000
     29      -3.9976      2.00000
     30      -3.9756      2.00000
     31      -3.9344      2.00000
     32      -3.8774      2.00000
     33      -3.8454      2.00000
     34      -3.7998      2.00000
     35      -3.7720      2.00000
     36      -3.7504      2.00000
     37      -3.7196      2.00000
     38      -3.6960      2.00000
     39      -3.6760      2.00000
     40      -3.6449      2.00000
     41      -3.6412      2.00000
     42      -3.6046      2.00000
     43      -3.5840      2.00000
     44      -3.5592      2.00000
     45      -3.5372      2.00000
     46      -3.5030      2.00000
     47      -3.4954      2.00000
     48      -3.4652      2.00000
     49      -3.4290      2.00000
     50      -3.4076      2.00000
     51      -3.3970      2.00000
     52      -3.3725      2.00000
     53      -3.3510      2.00000
     54      -3.2810      2.00000
     55      -3.2428      2.00000
     56      -2.3526      2.00000
     57      -2.3253      2.00000
     58      -2.2796      2.00000
     59      -2.2400      2.00000
     60      -2.2046      2.00000
     61      -2.1907      2.00000
     62      -2.1578      2.00000
     63      -2.1368      2.00000
     64      -2.0913      2.00000
     65      -2.0669      2.00000
     66      -2.0173      2.00000
     67      -1.9926      2.00000
     68      -1.9739      2.00000
     69      -1.9152      2.00000
     70      -1.8893      2.00000
     71      -1.8580      2.00000
     72      -1.8227      2.00000
     73      -1.7890      2.00000
     74      -1.3787      2.00000
     75      -1.3224      2.00000
     76      -1.2728      2.00000
     77      -1.2054      2.00000
     78      -1.0310      2.00000
     79      -0.9915      2.00000
     80      -0.9895      2.00000
     81      -0.9516      2.00000
     82      -0.9368      2.00000
     83      -0.8715      2.00000
     84      -0.8487      2.00000
     85      -0.8159      2.00000
     86      -0.8136      2.00000
     87      -0.7633      2.00000
     88      -0.7518      2.00000
     89      -0.7153      2.00000
     90      -0.7092      2.00000
     91      -0.6849      2.00000
     92      -0.6829      2.00000
     93      -0.6607      2.00000
     94      -0.6294      2.00000
     95      -0.5805      2.00000
     96      -0.5365      2.00000
     97      -0.5197      2.00000
     98      -0.4808      2.00000
     99      -0.4669      2.00000
    100      -0.4264      2.00000
    101      -0.3788      2.00000
    102      -0.0054      2.00000
    103       0.0349      2.00000
[...]
   -.529E+01 -.909E+01 -.145E+01   0.466E+01 0.771E+01 0.113E+01   0.945E+00 0.246E+01 0.504E+00   0.155E-05 -.427E-06 -.664E-06
   -.209E+01 0.397E+01 0.484E+01   0.153E+01 -.339E+01 -.481E+01   0.654E+00 -.605E+00 -.329E+00   -.879E-06 0.149E-05 -.370E-06
   -.420E+01 -.831E-01 0.277E+01   0.378E+01 0.356E+00 -.229E+01   0.187E+01 0.939E+00 -.136E+01   -.151E-05 0.265E-05 0.264E-05
   -.130E+02 -.617E+01 -.633E+01   0.115E+02 0.552E+01 0.577E+01   0.432E+01 0.203E+01 0.211E+01   -.763E-06 -.443E-05 -.369E-05
   0.293E+01 0.197E+01 0.227E+01   -.228E+01 -.150E+01 -.241E+01   -.228E+01 -.125E+01 0.385E+00   -.148E-05 0.976E-06 -.893E-06
   0.114E+02 0.932E+01 -.690E+01   -.107E+02 -.878E+01 0.604E+01   -.282E+01 -.152E+01 0.270E+01   -.511E-05 -.753E-06 -.226E-05
   0.904E+01 -.980E+01 -.430E+01   -.835E+01 0.900E+01 0.311E+01   -.194E+01 0.208E+01 0.162E+01   -.221E-05 0.246E-05 0.460E-07
   -.767E+01 -.199E+01 0.495E+00   0.662E+01 0.183E+01 -.464E+00   0.281E+01 0.981E+00 -.367E+00   0.206E-05 0.216E-05 -.763E-06
   0.594E+01 0.161E+01 -.887E+01   -.496E+01 -.119E+01 0.834E+01   -.259E+01 -.414E+00 0.229E+01   0.211E-05 0.181E-05 -.847E-06
   -.384E+01 0.237E+01 0.160E+01   0.357E+01 -.237E+01 -.102E+01   -.233E-01 -.273E+00 -.198E+01   -.368E-06 0.153E-06 0.208E-05
   -.791E+01 0.482E+01 0.513E+01   0.744E+01 -.355E+01 -.455E+01   0.227E+01 -.235E+01 -.234E+01   0.709E-06 0.217E-06 0.826E-06
   0.856E+01 -.332E+01 0.164E+01   -.795E+01 0.279E+01 -.114E+01   -.157E+01 0.266E+00 -.800E+00   0.211E-06 0.485E-06 -.405E-06
   0.409E+01 0.288E+01 0.299E+01   -.402E+01 -.296E+01 -.224E+01   -.164E-02 -.296E+00 -.865E+00   -.458E-06 -.242E-05 -.333E-05
   0.779E+01 0.100E+02 0.599E+01   -.697E+01 -.947E+01 -.543E+01   -.245E+01 -.197E+01 -.147E+01   0.646E-07 -.578E-06 -.192E-06
   0.888E+01 0.690E+01 -.825E+00   -.808E+01 -.637E+01 0.102E+01   -.125E+01 -.188E+01 0.402E+00   0.129E-05 0.631E-06 0.192E-05
   -.618E+00 0.244E+01 -.318E+01   0.751E+00 -.258E+01 0.311E+01   0.314E+00 0.320E+00 -.440E+00   0.115E-05 -.216E-05 -.108E-05
   -.267E+01 -.297E+01 -.116E+02   0.245E+01 0.233E+01 0.105E+02   0.155E+01 0.161E+01 0.207E+01   0.227E-05 -.997E-06 0.195E-05
   0.151E+01 -.513E+00 -.192E+01   -.137E+01 0.116E+00 0.215E+01   -.709E+00 0.104E+01 -.573E+00   0.578E-06 0.178E-05 0.324E-05
   0.262E+01 -.571E+01 0.117E+01   -.267E+01 0.509E+01 -.792E+00   -.451E+00 0.258E+01 -.166E+01   -.173E-05 -.394E-06 -.119E-05
   0.622E+00 -.159E+01 -.347E+01   -.647E+00 0.156E+01 0.318E+01   -.557E+00 0.677E+00 -.686E-02   0.658E-06 0.487E-06 -.192E-05
   0.929E+01 -.982E+00 0.129E+02   -.862E+01 0.742E+00 -.120E+02   -.284E+01 0.148E+01 -.329E+01   -.199E-06 0.265E-06 -.189E-05
   -.119E+02 -.578E+01 0.381E+01   0.103E+02 0.565E+01 -.296E+01   0.385E+01 0.103E+00 -.337E+00   0.312E-06 0.291E-05 -.281E-05
   0.855E+01 -.939E+01 -.428E+00   -.745E+01 0.830E+01 0.505E+00   -.162E+01 0.332E+01 -.716E+00   -.313E-05 0.256E-05 -.585E-06
   0.134E+02 0.386E+00 -.482E+01   -.121E+02 -.170E-01 0.414E+01   -.271E+01 -.384E+00 0.243E+01   -.284E-05 0.189E-05 0.110E-05
   0.594E+01 0.283E+01 0.569E+01   -.517E+01 -.307E+01 -.505E+01   -.103E+01 -.105E+01 -.928E+00   -.250E-05 -.967E-06 -.394E-05
   0.114E+02 -.258E+01 0.828E+00   -.105E+02 0.231E+01 -.620E+00   -.320E+01 0.153E+01 -.232E+00   0.991E-06 0.381E-06 0.143E-05
   0.309E+01 0.133E+02 0.796E+00   -.257E+01 -.122E+02 -.101E+01   -.133E+01 -.262E+01 0.293E+00   0.179E-05 -.117E-05 0.156E-05
   0.630E+01 -.658E+01 -.104E+01   -.598E+01 0.580E+01 0.982E+00   0.292E+00 0.176E+01 -.479E+00   -.448E-06 -.725E-06 -.920E-06
   0.898E+00 -.522E+01 -.869E+01   -.629E+00 0.442E+01 0.802E+01   -.628E+00 -.338E+00 0.206E+01   0.112E-05 0.590E-06 -.661E-06
   0.386E+01 -.138E+02 -.236E+01   -.290E+01 0.120E+02 0.203E+01   -.869E+00 0.389E+01 0.154E+01   -.179E-06 0.225E-05 0.234E-05
   -.903E+01 0.689E+01 -.539E+01   0.829E+01 -.663E+01 0.486E+01   0.171E+01 -.142E+01 0.584E+00   0.341E-06 -.268E-05 -.318E-06
   0.680E+01 -.153E+01 -.417E+01   -.583E+01 0.146E+01 0.440E+01   -.187E+01 0.152E+00 -.107E+01   0.857E-06 -.197E-05 0.128E-05
   0.202E+01 0.491E+01 0.134E+01   -.176E+01 -.547E+01 -.994E+00   -.844E+00 0.769E+00 0.170E+00   0.972E-06 -.805E-06 -.213E-06
   -.234E+01 0.810E+01 0.157E+01   0.174E+01 -.645E+01 -.142E+01   0.338E+00 -.247E+01 -.139E+01   -.153E-05 0.338E-06 -.172E-06
   -.838E+01 0.894E+01 -.252E+01   0.728E+01 -.781E+01 0.199E+01   0.157E+01 -.281E+01 0.758E-01   -.371E-06 -.683E-06 0.502E-06
   0.633E+01 0.762E+01 -.124E+01   -.568E+01 -.670E+01 0.116E+01   -.195E+01 -.117E+01 0.564E+00   0.216E-05 0.770E-06 -.122E-05
   -.605E+01 0.944E+01 -.594E+01   0.550E+01 -.834E+01 0.500E+01   0.137E+01 -.336E+01 0.154E+01   0.389E-05 -.151E-06 0.678E-06
   -.105E+02 0.368E+01 0.174E+01   0.879E+01 -.283E+01 -.103E+01   0.300E+01 -.180E+01 -.137E+01   -.656E-06 -.736E-06 -.383E-06
   -.860E+00 -.343E+01 0.204E+02   0.102E+01 0.320E+01 -.185E+02   0.539E-01 0.393E+00 -.466E+01   0.375E-06 0.238E-05 -.137E-05
   0.321E+01 -.160E+01 0.257E+00   -.260E+01 0.149E+01 -.380E+00   -.461E-01 -.119E+01 0.148E+01   -.148E-05 0.265E-06 -.115E-05
   -.426E+01 0.470E+01 0.244E+01   0.414E+01 -.396E+01 -.184E+01   0.123E+01 -.227E+01 -.987E+00   -.113E-05 -.100E-05 -.372E-08
   -.563E+01 0.261E+01 0.714E+00   0.529E+01 -.205E+01 -.949E+00   0.145E+01 -.909E+00 0.151E+01   -.199E-06 0.631E-06 0.285E-05
   -.312E+01 0.370E+01 0.130E+02   0.293E+01 -.335E+01 -.117E+02   0.457E+00 -.183E+01 -.410E+01   0.136E-06 -.506E-06 -.496E-06
   -.997E+01 -.460E+01 -.256E+01   0.844E+01 0.411E+01 0.213E+01   0.415E+01 -.117E+01 0.379E+00   -.772E-06 -.388E-06 -.147E-05
   0.110E+02 -.873E+01 0.621E+01   -.961E+01 0.787E+01 -.530E+01   -.463E+01 0.223E+01 -.261E+01   -.800E-06 -.514E-06 0.672E-06
   -.335E+01 -.944E+01 -.210E+01   0.305E+01 0.805E+01 0.122E+01   -.433E+00 0.319E+01 0.310E+00   -.256E-05 0.647E-08 0.197E-05
   0.141E+01 0.548E+01 0.964E+01   -.964E+00 -.541E+01 -.822E+01   -.107E+01 -.830E+00 -.339E+01   -.477E-06 -.211E-05 -.313E-06
   0.238E+01 -.890E-01 -.117E+02   -.207E+01 0.686E-02 0.106E+02   -.106E+01 -.118E+01 0.265E+01   0.312E-05 -.168E-06 0.343E-05
   -.644E+01 0.399E+01 0.389E+01   0.623E+01 -.324E+01 -.337E+01   0.739E+00 -.147E+01 -.807E+00   0.156E-05 -.264E-05 0.820E-07
   0.104E+02 0.451E+01 -.381E+01   -.939E+01 -.382E+01 0.301E+01   -.396E+01 -.358E+00 0.101E+01   -.124E-05 -.994E-06 0.466E-06
   -.668E+01 0.347E+01 -.403E+01   0.585E+01 -.318E+01 0.351E+01   0.734E+00 -.751E+00 -.511E-01   -.404E-06 0.257E-05 0.344E-05
   -.454E+01 -.136E+01 -.501E+00   0.375E+01 0.110E+01 0.563E-01   0.205E+01 0.384E-01 0.133E+01   -.271E-06 0.333E-06 -.281E-05
   -.196E+01 -.879E+01 0.664E+00   0.190E+01 0.780E+01 -.892E+00   -.133E+01 0.194E+01 -.652E+00   -.553E-06 -.239E-05 -.161E-06
 -----------------------------------------------------------------------------------------------
   -.139E+00 -.177E+00 0.812E-01   0.941E-13 -.199E-12 0.136E-12   0.139E+00 0.177E+00 -.812E-01   0.830E-06 0.109E-06 0.481E-06
 
 
 POSITION                                       TOTAL-FORCE (eV/Angst)
 -----------------------------------------------------------------------------------
     10.91034      0.10917     10.97128        -1.352975     -1.553392     -1.225320
     10.99548      2.82439     13.62967        -0.846418     -1.738814      0.647134
     10.96860     16.34172      5.59670        -1.235454      1.061235     -1.733676
     21.84294     19.20470     19.21830        -0.084273     -0.541862     -1.327573
     13.65446     10.98934      2.81228        -0.347160     -0.880643     -1.286128
      2.66416      2.79404      5.45774         0.439058     -0.477014      0.702677
      2.84615      5.36443      8.10100        -0.897503      1.901717      0.291006
     13.53276     19.03909     10.77397         1.050941      0.904835      0.318842
     16.29178     21.81424     16.31764         1.192616     -0.237270      0.757123
     16.33804     13.65539      8.15807         0.268047     -0.196675     -0.008221
     16.28943     16.26365     10.82445         1.617837      1.749280      0.653188
      5.51676      8.16083     13.65858        -1.353292      0.572380     -0.258762
     18.94842     10.87588      8.17869         2.890762      0.010119     -0.221571
      8.17782      2.82910     10.80308        -0.044446     -1.170021      0.840621
      8.27689      5.41152     13.67946        -2.624794     -0.574817     -1.324166
     19.10203     19.09467     16.33811         0.521403      0.366762      0.767277
     13.55736      2.92300     10.90249         1.286711     -2.113507      0.310154
     13.60635      5.61541     13.58115         0.961149     -2.414923      1.238907
      2.77783      8.25943      5.54904        -0.061574     -0.805379     -2.106592
     13.66151     10.98554     19.10393         0.539924     -1.121413      1.710172
      5.45750      2.71147      2.77912        -0.282918      0.305981      0.244512
      5.37480      5.45184      5.29811         0.829296      0.604818      1.735167
      5.49818      8.16712      8.15044        -0.274353      1.584580      1.632985
      5.28993     10.92762     11.10203         1.852931      0.658807     -1.708591
      8.11887      2.76071      5.42602         1.143004     -0.563597      1.801373
      8.25313      5.35230      8.16334        -0.878657      1.427650      0.412091
      8.16486      8.19976     10.95886         0.305317      0.830979     -0.651526
      8.31173     11.03700     13.51359        -1.898896     -1.440247      0.015473
     10.97756     13.66855     19.11541         0.276294     -0.778310      0.479422
     10.95302      5.53806     10.90216        -1.113384     -0.862148      0.124225
     10.92897      8.25397     13.58932        -0.124804     -0.836037      0.936790
     10.83215     10.98852     16.31284         1.747234      0.377051      0.127689
      5.57078     16.28763     11.09447        -0.192111      1.451891     -2.104123
      5.50487      8.09701      2.70530        -1.037007      1.580073     -0.111671
     16.32075     11.03049     16.46461         0.159353     -2.048631     -0.607373
      5.44385     13.57556      8.30897         0.963503      1.713837     -1.792391
      8.14349      5.45143      2.83116         0.503981      0.454946     -1.103433
      8.25364      8.30822      5.50288         0.821553     -1.747796      1.003070
      8.30365     11.00634      8.07184        -0.927518     -0.415251      1.050604
      8.26778     13.72358     10.95680        -0.512139     -0.143276     -0.059668
     10.97528     16.42360     16.40922         0.948242     -1.532329     -0.913348
     10.92372      8.17875      8.34051         0.694324      0.125506     -1.864003
     10.90241     10.97423     10.79273        -0.192739      0.008570      1.562953
     10.91108     13.61231     13.66831        -0.263411      0.921665     -0.254543
     13.56525     16.40453     18.99538         0.747559      0.454211      2.026430
     13.70778      8.20698     10.86076        -0.488997      0.751017      1.037454
     13.63843     10.92859     13.48447         0.282947     -0.252835      2.077294
     13.78598     13.71167     16.34653        -0.117535     -0.326342     -0.033707
      8.29837     19.20887     10.95723        -0.583508     -0.628685      1.053911
      8.20502     10.79483      2.68096        -1.054866      1.310700      1.903164
      8.23532     13.47396      5.53985        -0.358297      2.656951     -1.353218
      8.17000     16.27835      8.27288         1.086057      0.907853      0.182107
     10.90961     19.00295     13.76578         0.696569      0.559698     -1.569848
     10.93177     10.90919      5.52000         1.784028      0.650343      0.273553
     11.07662     13.67397      8.23846        -3.295149      0.927179      0.459383
     11.04434     16.28527     10.86624        -0.965994      2.869425      1.167325
     13.80962     19.10391     16.48816        -1.826750      0.247557     -1.191847
     13.54610     10.88453      8.09472         1.801258      0.172063      1.124935
     13.67810     13.52108     10.97448        -0.955068      2.296049     -0.054068
     13.64983     16.56610     13.68260         2.438328     -2.353478      1.531851
     16.30281      8.17217      8.13783         2.327276     -1.242553      1.754009
     16.42389     11.09524     10.84263         1.628851     -1.414165      0.714690
     16.42230     13.61839     13.66813        -0.049852      0.991831     -1.184756
     16.52658     16.30947     16.53362         0.179182      1.112070     -1.027461
      1.29827      1.26918      1.31526         1.756718      2.489859      1.390437
      1.30679      4.10399      4.18162         0.515688      0.917645     -1.379976
      1.33145      6.92281      6.68066         0.314653     -0.545570      2.358861
      1.28888      9.65967      9.53304         0.327818      0.164941      0.510724
      4.01115      1.38667      4.19378         0.282427      0.339022     -0.696090
      4.15615      4.09902      6.72500        -0.237781     -0.514962     -0.103512
      4.19649      6.82884      9.55461        -1.209286     -0.209414     -0.828644
      3.98517      9.50196     12.21513        -0.584019     -0.848959      1.550856
      6.78659      1.27122      6.89928        -1.059724      1.067695     -1.759304
      6.76724      4.07353      9.51318         0.226298      0.172865     -0.710678
      6.81268      6.93896     12.25904        -0.086875     -2.616169      0.043566
      6.84576      9.53280     14.93413         0.314386      1.076788      0.193116
      9.48750      1.36810      9.50654         0.092498     -0.016299     -0.294025
      9.44944      3.98081     12.33283         1.453301      1.211608     -0.872218
      9.41057      6.75346     14.93603         2.781983      1.370963      1.558496
      9.66300      9.64371     17.73356        -1.637468     -0.779489      0.238520
      4.18371      4.12752      1.30410        -2.103740     -0.969223      1.850054
      4.12461      6.78158      3.98976        -1.254933      1.266138      0.428947
      3.97269      9.52240      6.95038         1.757932      0.819467     -0.335965
      4.14730     12.26392      9.51981        -1.605493     -0.001085      1.752548
      6.80555      4.10357      4.19614        -0.298206     -0.270428     -1.404310
      6.71997      6.83554      6.87477         1.799742     -1.082590     -1.765146
      6.92255      9.69161      9.59665        -0.956922     -0.265854     -0.298319
      6.79982     12.37642     12.28855         0.069001     -0.377006     -0.116747
      9.77900      4.19832      6.88992        -1.637912     -1.412892     -0.905515
      9.51265      6.91346      9.54924        -0.450545     -1.356814      0.598139
      9.57768      9.57876     12.23813         0.447463      0.181600     -0.509959
      9.40202     12.30684     14.95298         1.325631      0.977935      1.037534
     12.27494      4.14507      9.51632        -0.571384      0.640168     -0.341286
     12.27910      6.79490     12.30149        -0.500400      1.956877     -1.287288
     12.36567      9.54181     15.02321        -0.581557      0.645267     -0.302468
     12.48293     12.31333     17.84157        -2.175896      1.243128     -2.383768
      6.75291      6.86499      1.31103         2.206615     -0.029747      0.511563
      6.81181      9.35261      4.15547        -0.520326      2.236776     -0.639177
      6.87212     12.27348      6.76433        -1.356716     -0.015825      1.755672
      6.83685     15.04905      9.64595        -0.256329     -1.290699     -0.291536
      9.67483      6.69641      4.15739        -2.272503      1.254297     -0.024329
      9.72158      9.64661      6.90803        -0.814973     -1.531523      0.074298
      9.51144     12.30663      9.55396         0.618194      0.976779     -0.532263
      9.61417     15.15619     12.23249        -0.359277     -1.138770      1.387081
     12.29920      6.75984      6.71253         0.084197      2.138028      1.206643
     12.23985      9.64947      9.54413         0.970252     -1.160856      0.047190
     12.26820     12.27547     12.31417        -0.894843      0.074923     -0.848029
     12.37437     15.00492     14.94586        -0.589184      0.208409      0.516831
     15.09350      6.80861      9.67963        -0.259501     -0.820050     -1.246883
     15.09156      9.72524     12.23638         0.469684     -1.680059     -0.459859
     15.10263     12.27659     14.91831        -1.288794     -0.251303      0.488097
     14.97887     15.19621     17.73352         0.815947     -2.260749      0.598322
      9.59446      9.59659      1.44379         1.255467     -0.948045     -0.654309
      9.57416     12.19841      4.28575         0.209327      0.169733     -2.784895
      9.49434     15.05745      6.75798         0.572136     -1.305392      1.359745
      9.50502     17.84139      9.61236         1.111295     -1.536684     -0.387967
     12.21288      9.57608      4.03217         1.117206     -0.352081      1.269986
     12.34715     12.44270      6.99786         0.268336     -1.491165     -2.824008
     12.23881     15.14171      9.46293         2.624920     -1.659851     -0.046804
     12.48350     17.70914     12.33035        -3.229634      1.370867     -1.696773
     15.06409      9.48790      6.87460        -0.728758      1.790632     -0.561450
     15.02292     12.34984      9.61989        -0.625739     -0.759528     -1.980329
     15.00946     15.08856     12.22016        -0.750466     -1.260741      1.584293
     15.12700     17.78858     15.13476         0.538241     -0.716111     -0.286132
     17.93761      9.45805      9.54210        -2.932255      0.326681      0.218190
     17.86281     12.36676     12.30952        -0.104985     -0.461109     -0.569694
     17.70747     14.98372     14.98974         1.255034     -0.214455      0.887723
     17.91992     17.69114     17.88301        -1.389657      0.954184     -0.879751
 -----------------------------------------------------------------------------------
    total drift:                               -0.000006      0.000010      0.000018


--------------------------------------------------------------------------------------------------------



  FREE ENERGIE OF THE ION-ELECTRON SYSTEM (eV)
  ---------------------------------------------------
  free  energy   TOTEN  =      -679.32782745 eV

  energy  without entropy=     -679.32782745  energy(sigma->0) =     -679.32782745
 


--------------------------------------------------------------------------------------------------------


    POTLOK:  cpu time    0.9872: real time    0.9874


--------------------------------------------------------------------------------------------------------


     LOOP+:  cpu time 1670.4084: real time 1671.2322
    4ORBIT:  cpu time    0.0000: real time    0.0000

 total amount of memory used by VASP MPI-rank0   221701. kBytes
=======================================================================

   base      :      30000. kBytes
   nonl-proj :      10690. kBytes
   fftplans  :      66746. kBytes
   grid      :      26864. kBytes
   one-center:         24. kBytes
   wavefun   :      87377. kBytes
 
  
  
 General timing and accounting informations for this job:
 ========================================================
  
                  Total CPU time used (sec):     1694.488
                            User time (sec):     1693.332
                          System time (sec):        1.156
                         Elapsed time (sec):     1696.343
  
                   Maximum memory used (kb):      338480.
                   Average memory used (kb):           0.
  
                          Minor page faults:       146979
                          Major page faults:            0
                 Voluntary context switches:         1344
