<?xml version="1.0" encoding="ISO-8859-1"?>
<modeling>
 <generator>
  <i name="program" type="string">vasp </i>
  <i name="version" type="string">5.4.4.18Apr17-6-g9f103f2a35  </i>
  <i name="subversion" type="string">(build Nov 08 2017 09:05:29) complex            parallel </i>
  <i name="platform" type="string">Intel_17.33 </i>
  <i name="date" type="string">2020 07 18 </i>
  <i name="time" type="string">18:19:50 </i>
 </generator>
 <incar>
  <i type="string" name="SYSTEM">potpaw_PBE@./ARUN.APL1ZEROSTATE</i>
  <i type="string" name="PREC">accurate</i>
  <i type="string" name="ALGO">Normal</i>
  <i type="int" name="NSIM">     4</i>
  <i type="logical" name="ADDGRID"> T  </i>
  <i type="int" name="NELM">   120</i>
  <i type="int" name="NELMIN">     4</i>
  <i name="EDIFF">      0.00000001</i>
  <i type="int" name="NSW">     0</i>
  <i type="int" name="ISYM">     2</i>
  <i name="ENMAX">    500.00000000</i>
  <i type="logical" name="LREAL"> F  </i>
  <i type="logical" name="LPLANE"> T  </i>
  <i type="int" name="ISMEAR">     0</i>
  <i name="SIGMA">      0.01000000</i>
  <i type="logical" name="LWAVE"> F  </i>
  <i type="logical" name="LCHARG"> F  </i>
  <i type="logical" name="LELF"> F  </i>
  <i type="logical" name="LAECHG"> F  </i>
  <v type="int" name="KPOINT_BSE">    -1     0     0     0</v>
  <i type="int" name="NELM">   120</i>
 </incar>
 <structure name="primitive_cell" >
  <crystal>
   <varray name="basis" >
    <v>       0.00000000      10.93733369      10.93733369 </v>
    <v>      10.93733369       0.00000000      10.93733369 </v>
    <v>      10.93733369      10.93733369       0.00000000 </v>
   </varray>
   <i name="volume">   2616.76295363 </i>
   <varray name="rec_basis" >
    <v>      -0.04571498       0.04571498       0.04571498 </v>
    <v>       0.04571498      -0.04571498       0.04571498 </v>
    <v>       0.04571498       0.04571498      -0.04571498 </v>
   </varray>
  </crystal>
  <varray name="positions" >
   <v>       0.00777669      -0.00467319       0.00220485 </v>
   <v>       0.05879698       0.06145677       0.05724416 </v>
   <v>      -0.18152690       0.05313247       0.06471010 </v>
   <v>       0.06341363      -0.19423058       0.06167197 </v>
   <v>       0.06610018       0.06590575      -0.18868462 </v>
   <v>       0.24095281       0.00416711      -0.25398220 </v>
   <v>       0.24953911      -0.00337867       0.00869474 </v>
   <v>      -0.00031682       0.00213637      -0.24341662 </v>
   <v>      -0.00312134      -0.24915776       0.25283606 </v>
   <v>       0.24934581      -0.26162041       0.00931843 </v>
   <v>       0.01225746      -0.01544363       0.25499227 </v>
   <v>      -0.24204236      -0.00082883      -0.00207221 </v>
   <v>       0.00672740       0.25039940      -0.00197286 </v>
   <v>      -0.24899613      -0.00433268       0.25340387 </v>
   <v>      -0.25574648       0.24081004      -0.00350993 </v>
   <v>       0.00485270      -0.25707576      -0.01047097 </v>
   <v>      -0.00071058       0.25931548      -0.26185001 </v>
   <v>       0.31379671      -0.18620654       0.05016859 </v>
   <v>       0.31147765      -0.18601836      -0.18078530 </v>
   <v>       0.06378915       0.30487231      -0.18824872 </v>
   <v>       0.04857406      -0.17614027      -0.18382471 </v>
   <v>      -0.18938585       0.30621427       0.05814943 </v>
   <v>       0.06338146      -0.19330503       0.31560192 </v>
   <v>      -0.19212627      -0.17661954       0.31793342 </v>
   <v>      -0.19019268      -0.18842903       0.07191651 </v>
   <v>      -0.17947452       0.05833191      -0.18928830 </v>
   <v>      -0.19375103       0.06414702       0.31504062 </v>
   <v>       0.31589053       0.07595533      -0.20059005 </v>
   <v>      -0.19742802       0.32479168      -0.18342582 </v>
   <v>      -0.23474433       0.24980235       0.23385576 </v>
   <v>       0.25207109      -0.26072987      -0.23763411 </v>
   <v>       0.25084696      -0.25406325       0.25549758 </v>
   <v>       0.25131459       0.25337870      -0.25388763 </v>
   <v>      -0.24711032      -0.26140729       0.25179002 </v>
   <v>      -0.26366102       0.25716129      -0.24737776 </v>
   <v>      -0.42855884       0.06403180       0.29919152 </v>
   <v>       0.05985196      -0.42990685       0.32400038 </v>
   <v>       0.06326561      -0.43246457       0.05296215 </v>
   <v>       0.31903673       0.06328907       0.05619076 </v>
   <v>       0.31175211      -0.44196264       0.06069098 </v>
   <v>       0.07174072       0.31169660       0.05504289 </v>
   <v>       0.05704808       0.06218539       0.32033075 </v>
   <v>       0.06505716       0.05481012      -0.43739178 </v>
   <v>       0.30611995       0.07381425      -0.45101101 </v>
   <v>      -0.43898464       0.04979749       0.07193720 </v>
   <v>       0.05389636       0.32621332      -0.44164353 </v>
   <v>      -0.44287368       0.31645127       0.06723382 </v>
   <v>       0.49436614      -0.24365368       0.00040906 </v>
   <v>       0.24057547      -0.49420157       0.24878498 </v>
   <v>       0.49665748      -0.24698102      -0.25152862 </v>
   <v>       0.49273817       0.01377025      -0.26081498 </v>
   <v>      -0.24841470       0.00810361       0.48962773 </v>
   <v>       0.25543779       0.24356337       0.00002096 </v>
   <v>      -0.24118290       0.49218234      -0.24417912 </v>
   <v>      -0.00182867      -0.26142418      -0.49830589 </v>
   <v>       0.00151250       0.25258220       0.24639690 </v>
   <v>       0.25555669      -0.01383255       0.25786047 </v>
   <v>       0.25405885       0.24906884      -0.49443843 </v>
   <v>      -0.49573429       0.00308305       0.25089365 </v>
   <v>       0.24217224       0.00517308       0.49813670 </v>
   <v>       0.25030876       0.49558296      -0.00179702 </v>
   <v>       0.00310204       0.49299855       0.24930983 </v>
   <v>      -0.25472498      -0.49647182       0.00086930 </v>
   <v>      -0.25611606      -0.24932154      -0.49022642 </v>
   <v>       0.49460805       0.25058636       0.25211178 </v>
   <v>       0.00635905       0.25249396       0.49206532 </v>
   <v>      -0.25343986      -0.25276718      -0.00073536 </v>
   <v>       0.00032899      -0.25628724      -0.25314746 </v>
   <v>      -0.00421612      -0.48827243      -0.24911437 </v>
   <v>      -0.25113210       0.00752139      -0.26053861 </v>
   <v>       0.31165182      -0.18692748       0.30960529 </v>
   <v>       0.48545968       0.25521405       0.00500955 </v>
   <v>      -0.43926026      -0.19022798      -0.19077838 </v>
   <v>       0.31406497      -0.19529276      -0.42488678 </v>
   <v>      -0.18743880       0.30585521      -0.42683172 </v>
   <v>      -0.19293739      -0.17202003      -0.18956223 </v>
   <v>       0.31757346      -0.43802694      -0.18842801 </v>
   <v>      -0.18329490       0.30683649       0.31487066 </v>
   <v>       0.31772160      -0.44463507       0.31437607 </v>
   <v>       0.31237330       0.31922785      -0.43038400 </v>
   <v>      -0.43469631       0.29989190      -0.18089802 </v>
   <v>      -0.17937688      -0.19924836      -0.43123445 </v>
   <v>      -0.44230739      -0.18412132       0.31471446 </v>
   <v>      -0.43470187       0.31212356       0.32080496 </v>
   <v>      -0.18363115      -0.44921808       0.30884467 </v>
   <v>       0.32427526       0.31553877      -0.18663954 </v>
   <v>      -0.18644093      -0.42978833      -0.18715033 </v>
   <v>      -0.00158031       0.49350170      -0.00394501 </v>
   <v>       0.49366084       0.49601805      -0.00667567 </v>
   <v>      -0.00289574       0.01726258       0.49207349 </v>
   <v>      -0.48916495      -0.00547648       0.49768219 </v>
   <v>      -0.49851470       0.01022068      -0.00736209 </v>
   <v>      -0.00078303      -0.49892302      -0.49760782 </v>
   <v>      -0.43866964      -0.19572992       0.05613843 </v>
   <v>      -0.44720230      -0.18881759      -0.43034928 </v>
   <v>      -0.44384559       0.06230831      -0.43399022 </v>
   <v>      -0.43674174       0.05462324      -0.18655634 </v>
   <v>       0.06376059      -0.17875256      -0.44124918 </v>
   <v>       0.05363144      -0.43990537      -0.43557939 </v>
   <v>      -0.43773962      -0.44497145      -0.18271431 </v>
   <v>      -0.18361513       0.06554422      -0.44045122 </v>
   <v>      -0.43380542      -0.44535093       0.06823415 </v>
   <v>       0.05935681      -0.43081285      -0.19187806 </v>
   <v>      -0.19444889      -0.44012456       0.06603213 </v>
   <v>      -0.19649431      -0.43700586      -0.43160631 </v>
   <v>       0.49255755       0.24545087      -0.48624803 </v>
   <v>       0.24837634       0.49172358      -0.25320393 </v>
   <v>       0.25580006      -0.49322786       0.49198313 </v>
   <v>       0.49452009      -0.49112366      -0.25828826 </v>
   <v>      -0.49742081       0.49938875       0.24712424 </v>
   <v>       0.49894795      -0.25647676       0.25571246 </v>
   <v>       0.24503074      -0.25203193      -0.49466660 </v>
   <v>       0.49256195      -0.25967775      -0.49336140 </v>
   <v>       0.49535877       0.25788304      -0.24514841 </v>
   <v>      -0.25166674      -0.49864040       0.49623994 </v>
   <v>      -0.24969828       0.25147831      -0.49555560 </v>
   <v>      -0.25764074       0.49318768       0.26675361 </v>
   <v>       0.30385524       0.06092869       0.31618418 </v>
   <v>       0.30482182       0.31004487       0.06995171 </v>
   <v>       0.06830568       0.31534742       0.30688401 </v>
   <v>       0.31956343       0.30899663       0.30540955 </v>
   <v>       0.24572473       0.23868121       0.25273650 </v>
   <v>      -0.25409122      -0.23424079      -0.25473453 </v>
   <v>      -0.44048451      -0.44058394       0.31627056 </v>
   <v>       0.31789062      -0.44527160      -0.43563973 </v>
   <v>      -0.43545919       0.30897708      -0.43934610 </v>
   <v>      -0.43672575      -0.43739017      -0.44092857 </v>
   <v>       0.49667239       0.49010643      -0.49329929 </v>
  </varray>
 </structure>
 <varray name="primitive_index" >
  <v type="int" >        1 </v>
  <v type="int" >       65 </v>
  <v type="int" >       68 </v>
  <v type="int" >       77 </v>
  <v type="int" >      113 </v>
  <v type="int" >       50 </v>
  <v type="int" >        2 </v>
  <v type="int" >       49 </v>
  <v type="int" >       29 </v>
  <v type="int" >       14 </v>
  <v type="int" >       17 </v>
  <v type="int" >        4 </v>
  <v type="int" >        5 </v>
  <v type="int" >       20 </v>
  <v type="int" >        8 </v>
  <v type="int" >       13 </v>
  <v type="int" >       53 </v>
  <v type="int" >       78 </v>
  <v type="int" >      126 </v>
  <v type="int" >      117 </v>
  <v type="int" >      125 </v>
  <v type="int" >       72 </v>
  <v type="int" >       93 </v>
  <v type="int" >       96 </v>
  <v type="int" >       80 </v>
  <v type="int" >      116 </v>
  <v type="int" >       84 </v>
  <v type="int" >      114 </v>
  <v type="int" >      120 </v>
  <v type="int" >       24 </v>
  <v type="int" >       62 </v>
  <v type="int" >       30 </v>
  <v type="int" >       54 </v>
  <v type="int" >       32 </v>
  <v type="int" >       56 </v>
  <v type="int" >       83 </v>
  <v type="int" >       89 </v>
  <v type="int" >       73 </v>
  <v type="int" >       66 </v>
  <v type="int" >       74 </v>
  <v type="int" >       69 </v>
  <v type="int" >       81 </v>
  <v type="int" >       97 </v>
  <v type="int" >       98 </v>
  <v type="int" >       67 </v>
  <v type="int" >      101 </v>
  <v type="int" >       71 </v>
  <v type="int" >       15 </v>
  <v type="int" >       26 </v>
  <v type="int" >       63 </v>
  <v type="int" >       51 </v>
  <v type="int" >       36 </v>
  <v type="int" >        6 </v>
  <v type="int" >       60 </v>
  <v type="int" >       45 </v>
  <v type="int" >       21 </v>
  <v type="int" >       18 </v>
  <v type="int" >       38 </v>
  <v type="int" >       19 </v>
  <v type="int" >       34 </v>
  <v type="int" >       10 </v>
  <v type="int" >       25 </v>
  <v type="int" >       12 </v>
  <v type="int" >       48 </v>
  <v type="int" >       23 </v>
  <v type="int" >       37 </v>
  <v type="int" >       16 </v>
  <v type="int" >       61 </v>
  <v type="int" >       57 </v>
  <v type="int" >       52 </v>
  <v type="int" >       94 </v>
  <v type="int" >        7 </v>
  <v type="int" >      127 </v>
  <v type="int" >      110 </v>
  <v type="int" >      104 </v>
  <v type="int" >      128 </v>
  <v type="int" >      122 </v>
  <v type="int" >       88 </v>
  <v type="int" >       90 </v>
  <v type="int" >      102 </v>
  <v type="int" >      119 </v>
  <v type="int" >      112 </v>
  <v type="int" >       95 </v>
  <v type="int" >       87 </v>
  <v type="int" >       92 </v>
  <v type="int" >      118 </v>
  <v type="int" >      124 </v>
  <v type="int" >        9 </v>
  <v type="int" >       11 </v>
  <v type="int" >       33 </v>
  <v type="int" >       35 </v>
  <v type="int" >        3 </v>
  <v type="int" >       41 </v>
  <v type="int" >       79 </v>
  <v type="int" >      111 </v>
  <v type="int" >       99 </v>
  <v type="int" >      115 </v>
  <v type="int" >      109 </v>
  <v type="int" >      105 </v>
  <v type="int" >      123 </v>
  <v type="int" >      100 </v>
  <v type="int" >       75 </v>
  <v type="int" >      121 </v>
  <v type="int" >       76 </v>
  <v type="int" >      108 </v>
  <v type="int" >       39 </v>
  <v type="int" >       58 </v>
  <v type="int" >       42 </v>
  <v type="int" >       59 </v>
  <v type="int" >       27 </v>
  <v type="int" >       31 </v>
  <v type="int" >       46 </v>
  <v type="int" >       47 </v>
  <v type="int" >       55 </v>
  <v type="int" >       44 </v>
  <v type="int" >       40 </v>
  <v type="int" >       28 </v>
  <v type="int" >       82 </v>
  <v type="int" >       70 </v>
  <v type="int" >       85 </v>
  <v type="int" >       86 </v>
  <v type="int" >       22 </v>
  <v type="int" >       64 </v>
  <v type="int" >       91 </v>
  <v type="int" >      106 </v>
  <v type="int" >      103 </v>
  <v type="int" >      107 </v>
  <v type="int" >       43 </v>
 </varray>
 <kpoints>
  <generation param="Gamma">
   <v type="int" name="divisions">       2        2        2 </v>
   <v name="usershift">      0.00000000       0.00000000       0.00000000 </v>
   <v name="genvec1">      0.50000000       0.00000000       0.00000000 </v>
   <v name="genvec2">      0.00000000       0.50000000       0.00000000 </v>
   <v name="genvec3">      0.00000000       0.00000000       0.50000000 </v>
   <v name="shift">      0.00000000       0.00000000       0.00000000 </v>
  </generation>
  <varray name="kpointlist" >
   <v>       0.00000000       0.00000000       0.00000000 </v>
   <v>       0.50000000       0.00000000       0.00000000 </v>
   <v>       0.00000000       0.50000000       0.00000000 </v>
   <v>       0.50000000       0.50000000       0.00000000 </v>
   <v>       0.00000000       0.00000000       0.50000000 </v>
   <v>       0.50000000       0.00000000       0.50000000 </v>
   <v>       0.00000000       0.50000000       0.50000000 </v>
   <v>       0.50000000       0.50000000       0.50000000 </v>
  </varray>
  <varray name="weights" >
   <v>       0.12500000 </v>
   <v>       0.12500000 </v>
   <v>       0.12500000 </v>
   <v>       0.12500000 </v>
   <v>       0.12500000 </v>
   <v>       0.12500000 </v>
   <v>       0.12500000 </v>
   <v>       0.12500000 </v>
  </varray>
 </kpoints>
 <parameters>
  <separator name="general" >
   <i type="string" name="SYSTEM">potpaw_PBE@./ARUN.APL1ZEROSTATE</i>
   <i type="logical" name="LCOMPAT"> F  </i>
  </separator>
  <separator name="electronic" >
   <i type="string" name="PREC">accura</i>
   <i name="ENMAX">    500.00000000</i>
   <i name="ENAUG">    322.06900000</i>
   <i name="EDIFF">      0.00000001</i>
   <i type="int" name="IALGO">    38</i>
   <i type="int" name="IWAVPR">    10</i>
   <i type="int" name="NBANDS">   322</i>
   <i name="NELECT">    512.00000000</i>
   <i type="int" name="TURBO">     0</i>
   <i type="int" name="IRESTART">     0</i>
   <i type="int" name="NREBOOT">     0</i>
   <i type="int" name="NMIN">     0</i>
   <i name="EREF">      0.00000000</i>
   <separator name="electronic smearing" >
    <i type="int" name="ISMEAR">     0</i>
    <i name="SIGMA">      0.01000000</i>
    <i name="KSPACING">      0.50000000</i>
    <i type="logical" name="KGAMMA"> T  </i>
   </separator>
   <separator name="electronic projectors" >
    <i type="logical" name="LREAL"> F  </i>
    <v name="ROPT">      0.00000000</v>
    <i type="int" name="LMAXPAW">  -100</i>
    <i type="int" name="LMAXMIX">     2</i>
    <i type="logical" name="NLSPLINE"> F  </i>
   </separator>
   <separator name="electronic startup" >
    <i type="int" name="ISTART">     0</i>
    <i type="int" name="ICHARG">     2</i>
    <i type="int" name="INIWAV">     1</i>
   </separator>
   <separator name="electronic spin" >
    <i type="int" name="ISPIN">     1</i>
    <i type="logical" name="LNONCOLLINEAR"> F  </i>
    <v name="MAGMOM">      1.00000000      1.00000000      1.00000000      1.00000000      1.00000000      1.00000000      1.00000000      1.00000000      1.00000000      1.00000000      1.00000000      1.00000000      1.00000000      1.00000000      1.00000000      1.00000000      1.00000000      1.00000000      1.00000000      1.00000000
      1.00000000      1.00000000      1.00000000      1.00000000      1.00000000      1.00000000      1.00000000      1.00000000      1.00000000      1.00000000      1.00000000      1.00000000      1.00000000      1.00000000      1.00000000      1.00000000      1.00000000      1.00000000      1.00000000      1.00000000
      1.00000000      1.00000000      1.00000000      1.00000000      1.00000000      1.00000000      1.00000000      1.00000000      1.00000000      1.00000000      1.00000000      1.00000000      1.00000000      1.00000000      1.00000000      1.00000000      1.00000000      1.00000000      1.00000000      1.00000000
      1.00000000      1.00000000      1.00000000      1.00000000      1.00000000      1.00000000      1.00000000      1.00000000      1.00000000      1.00000000      1.00000000      1.00000000      1.00000000      1.00000000      1.00000000      1.00000000      1.00000000      1.00000000      1.00000000      1.00000000
      1.00000000      1.00000000      1.00000000      1.00000000      1.00000000      1.00000000      1.00000000      1.00000000      1.00000000      1.00000000      1.00000000      1.00000000      1.00000000      1.00000000      1.00000000      1.00000000      1.00000000      1.00000000      1.00000000      1.00000000
      1.00000000      1.00000000      1.00000000      1.00000000      1.00000000      1.00000000      1.00000000      1.00000000      1.00000000      1.00000000      1.00000000      1.00000000      1.00000000      1.00000000      1.00000000      1.00000000      1.00000000      1.00000000      1.00000000      1.00000000
      1.00000000      1.00000000      1.00000000      1.00000000      1.00000000      1.00000000      1.00000000      1.00000000</v>
    <i name="NUPDOWN">     -1.00000000</i>
    <i type="logical" name="LSORBIT"> F  </i>
    <v name="SAXIS">      0.00000000      0.00000000      1.00000000</v>
    <i type="logical" name="LSPIRAL"> F  </i>
    <v name="QSPIRAL">      0.00000000      0.00000000      0.00000000</v>
    <i type="logical" name="LZEROZ"> F  </i>
   </separator>
   <separator name="electronic exchange-correlation" >
    <i type="logical" name="LASPH"> F  </i>
    <i type="logical" name="LMETAGGA"> F  </i>
   </separator>
   <separator name="electronic convergence" >
    <i type="int" name="NELM">   120</i>
    <i type="int" name="NELMDL">    -5</i>
    <i type="int" name="NELMIN">     4</i>
    <i name="ENINI">    500.00000000</i>
    <separator name="electronic convergence detail" >
     <i type="logical" name="LDIAG"> T  </i>
     <i type="logical" name="LSUBROT"> F  </i>
     <i name="WEIMIN">      0.00000000</i>
     <i name="EBREAK">      0.00000000</i>
     <i name="DEPER">      0.30000000</i>
     <i type="int" name="NRMM">     4</i>
     <i name="TIME">      0.40000000</i>
    </separator>
   </separator>
   <separator name="electronic mixer" >
    <i name="AMIX">      0.40000000</i>
    <i name="BMIX">      1.00000000</i>
    <i name="AMIN">      0.10000000</i>
    <i name="AMIX_MAG">      1.60000000</i>
    <i name="BMIX_MAG">      1.00000000</i>
    <separator name="electronic mixer details" >
     <i type="int" name="IMIX">     4</i>
     <i type="logical" name="MIXFIRST"> F  </i>
     <i type="int" name="MAXMIX">   -45</i>
     <i name="WC">    100.00000000</i>
     <i type="int" name="INIMIX">     1</i>
     <i type="int" name="MIXPRE">     1</i>
     <i type="int" name="MREMOVE">     5</i>
    </separator>
   </separator>
   <separator name="electronic dipolcorrection" >
    <i type="logical" name="LDIPOL"> F  </i>
    <i type="logical" name="LMONO"> F  </i>
    <i type="int" name="IDIPOL">     0</i>
    <i name="EPSILON">      1.00000000</i>
    <v name="DIPOL">   -100.00000000   -100.00000000   -100.00000000</v>
    <i name="EFIELD">      0.00000000</i>
   </separator>
  </separator>
  <separator name="grids" >
   <i type="int" name="NGX">   120</i>
   <i type="int" name="NGY">   120</i>
   <i type="int" name="NGZ">   120</i>
   <i type="int" name="NGXF">   240</i>
   <i type="int" name="NGYF">   240</i>
   <i type="int" name="NGZF">   240</i>
   <i type="logical" name="ADDGRID"> T  </i>
  </separator>
  <separator name="ionic" >
   <i type="int" name="NSW">     0</i>
   <i type="int" name="IBRION">    -1</i>
   <i type="int" name="MDALGO">     0</i>
   <i type="int" name="ISIF">     2</i>
   <i name="PSTRESS">      0.00000000</i>
   <i name="EDIFFG">      0.00000010</i>
   <i type="int" name="NFREE">     0</i>
   <i name="POTIM">      0.50000000</i>
   <i name="SMASS">     -3.00000000</i>
   <i name="SCALEE">      1.00000000</i>
  </separator>
  <separator name="ionic md" >
   <i name="TEBEG">      0.00010000</i>
   <i name="TEEND">      0.00010000</i>
   <i type="int" name="NBLOCK">     1</i>
   <i type="int" name="KBLOCK">     1</i>
   <i type="int" name="NPACO">   256</i>
   <i name="APACO">     16.00000000</i>
  </separator>
  <separator name="symmetry" >
   <i type="int" name="ISYM">     2</i>
   <i name="SYMPREC">      0.00001000</i>
  </separator>
  <separator name="dos" >
   <i type="int" name="LORBIT">     0</i>
   <v name="RWIGS">     -1.00000000</v>
   <i type="int" name="NEDOS">   301</i>
   <i name="EMIN">     10.00000000</i>
   <i name="EMAX">    -10.00000000</i>
   <i name="EFERMI">      0.00000000</i>
  </separator>
  <separator name="writing" >
   <i type="int" name="NWRITE">     2</i>
   <i type="logical" name="LWAVE"> F  </i>
   <i type="logical" name="LDOWNSAMPLE"> F  </i>
   <i type="logical" name="LCHARG"> F  </i>
   <i type="logical" name="LPARD"> F  </i>
   <i type="logical" name="LVTOT"> F  </i>
   <i type="logical" name="LVHAR"> F  </i>
   <i type="logical" name="LELF"> F  </i>
   <i type="logical" name="LOPTICS"> F  </i>
   <v name="STM">      0.00000000      0.00000000      0.00000000      0.00000000      0.00000000      0.00000000      0.00000000</v>
  </separator>
  <separator name="performance" >
   <i type="int" name="NPAR">     2</i>
   <i type="int" name="NSIM">     4</i>
   <i type="int" name="NBLK">    -1</i>
   <i type="logical" name="LPLANE"> T  </i>
   <i type="logical" name="LSCALAPACK"> T  </i>
   <i type="logical" name="LSCAAWARE"> F  </i>
   <i type="logical" name="LSCALU"> F  </i>
   <i type="logical" name="LASYNC"> F  </i>
   <i type="logical" name="LORBITALREAL"> F  </i>
  </separator>
  <separator name="miscellaneous" >
   <i type="int" name="IDIOT">     3</i>
   <i type="int" name="ISPECIAL">     0</i>
   <i type="logical" name="LMUSIC"> F  </i>
   <v name="POMASS">     28.08500000</v>
   <v name="DARWINR">      0.00000000</v>
   <v name="DARWINV">      1.00000000</v>
   <i type="logical" name="LCORR"> T  </i>
  </separator>
  <i type="logical" name="GGA_COMPAT"> T  </i>
  <i type="logical" name="LBERRY"> F  </i>
  <i type="int" name="ICORELEVEL">     0</i>
  <i type="logical" name="LDAU"> F  </i>
  <i type="int" name="I_CONSTRAINED_M">     0</i>
  <separator name="electronic exchange-correlation" >
   <i type="string" name="GGA">--</i>
   <i type="int" name="VOSKOWN">     0</i>
   <i type="logical" name="LHFCALC"> F  </i>
   <i type="string" name="PRECFOCK"></i>
   <i type="logical" name="LSYMGRAD"> F  </i>
   <i type="logical" name="LHFONE"> F  </i>
   <i type="logical" name="LRHFCALC"> F  </i>
   <i type="logical" name="LTHOMAS"> F  </i>
   <i type="logical" name="LMODELHF"> F  </i>
   <i name="ENCUT4O">     -1.00000000</i>
   <i type="int" name="EXXOEP">     0</i>
   <i type="int" name="FOURORBIT">     0</i>
   <i name="AEXX">      0.00000000</i>
   <i name="HFALPHA">      0.00000000</i>
   <i name="MCALPHA">      0.00000000</i>
   <i name="ALDAX">      1.00000000</i>
   <i name="AGGAX">      1.00000000</i>
   <i name="ALDAC">      1.00000000</i>
   <i name="AGGAC">      1.00000000</i>
   <i type="int" name="NKREDX">     1</i>
   <i type="int" name="NKREDY">     1</i>
   <i type="int" name="NKREDZ">     1</i>
   <i type="logical" name="SHIFTRED"> F  </i>
   <i type="logical" name="ODDONLY"> F  </i>
   <i type="logical" name="EVENONLY"> F  </i>
   <i type="int" name="LMAXFOCK">     0</i>
   <i type="int" name="NMAXFOCKAE">     0</i>
   <i type="logical" name="LFOCKAEDFT"> F  </i>
   <i name="HFSCREEN">      0.00000000</i>
   <i name="HFSCREENC">      0.00000000</i>
   <i type="int" name="NBANDSGWLOW">     0</i>
  </separator>
  <separator name="vdW DFT" >
   <i type="logical" name="LUSE_VDW"> F  </i>
   <i name="Zab_VDW">     -0.84910000</i>
   <i name="PARAM1">      0.12340000</i>
   <i name="PARAM2">      1.00000000</i>
   <i name="PARAM3">      0.00000000</i>
  </separator>
  <separator name="model GW" >
   <i type="int" name="MODEL_GW">     0</i>
   <i name="MODEL_EPS0">     12.26607635</i>
   <i name="MODEL_ALPHA">      1.00000000</i>
  </separator>
  <separator name="linear response parameters" >
   <i type="logical" name="LEPSILON"> F  </i>
   <i type="logical" name="LRPA"> F  </i>
   <i type="logical" name="LNABLA"> F  </i>
   <i type="logical" name="LVEL"> F  </i>
   <i type="int" name="KINTER">     0</i>
   <i name="CSHIFT">      0.10000000</i>
   <i name="OMEGAMAX">     -1.00000000</i>
   <i name="DEG_THRESHOLD">      0.00200000</i>
   <i name="RTIME">     -0.10000000</i>
   <i name="WPLASMAI">      0.00000000</i>
   <v name="DFIELD">      0.00000000      0.00000000      0.00000000</v>
   <v name="WPLASMA">      0.00000000      0.00000000      0.00000000      0.00000000      0.00000000      0.00000000      0.00000000      0.00000000      0.00000000</v>
  </separator>
  <separator name="orbital magnetization" >
   <i type="logical" name="NUCIND"> F  </i>
   <v name="MAGPOS">      0.00000000      0.00000000      0.00000000</v>
   <i type="logical" name="LNICSALL"> T  </i>
   <i type="logical" name="ORBITALMAG"> F  </i>
   <i type="logical" name="LMAGBLOCH"> F  </i>
   <i type="logical" name="LCHIMAG"> F  </i>
   <i type="logical" name="LGAUGE"> T  </i>
   <i type="int" name="MAGATOM">     0</i>
   <v name="MAGDIPOL">      0.00000000      0.00000000      0.00000000</v>
   <v name="AVECCONST">      0.00000000      0.00000000      0.00000000</v>
  </separator>
  <separator name="response functions" >
   <i type="logical" name="LADDER"> F  </i>
   <i type="logical" name="LRPAFORCE"> F  </i>
   <i type="logical" name="LFXC"> F  </i>
   <i type="logical" name="LHARTREE"> T  </i>
   <i type="int" name="IBSE">     0</i>
   <v type="int" name="KPOINT">    -1     0     0     0</v>
   <i type="logical" name="LTCTE"> F  </i>
   <i type="logical" name="LTETE"> F  </i>
   <i type="logical" name="LTRIPLET"> F  </i>
   <i type="logical" name="LFXCEPS"> F  </i>
   <i type="logical" name="LFXHEG"> F  </i>
   <i type="int" name="NATURALO">     2</i>
   <i type="logical" name="L2ORDER"> F  </i>
   <i type="logical" name="LMP2LT"> F  </i>
   <i type="logical" name="LUSEW"> F  </i>
   <i name="ENCUTGW">     -2.00000000</i>
   <i name="ENCUTGWSOFT">     -2.00000000</i>
   <i name="ENCUTLF">     -1.00000000</i>
   <i type="int" name="LMAXMP2">    -1</i>
   <i name="SCISSOR">      0.00000000</i>
   <i type="int" name="NOMEGA">     0</i>
   <i type="int" name="NOMEGAR">     0</i>
   <i type="int" name="NBANDSGW">    -1</i>
   <i type="int" name="NBANDSO">    -1</i>
   <i type="int" name="NBANDSV">    -1</i>
   <i type="int" name="NELM">   120</i>
   <i type="int" name="NELMHF">     1</i>
   <i type="int" name="DIM">     3</i>
   <i type="int" name="ANTIRES">     0</i>
   <i name="OMEGAMAX">    -30.00000000</i>
   <i name="OMEGAMIN">    -30.00000000</i>
   <i name="OMEGATL">   -200.00000000</i>
   <i type="int" name="OMEGAGRID">   140</i>
   <i name="CSHIFT">     -0.10000000</i>
   <i type="logical" name="SELFENERGY"> F  </i>
   <i type="logical" name="LSPECTRAL"> F  </i>
   <i type="logical" name="LSPECTRALGW"> F  </i>
   <i type="logical" name="LSINGLES"> F  </i>
   <i type="logical" name="LFERMIGW"> F  </i>
   <i type="logical" name="ODDONLYGW"> F  </i>
   <i type="logical" name="EVENONLYGW"> F  </i>
   <i type="int" name="NKREDLFX">     1</i>
   <i type="int" name="NKREDLFY">     1</i>
   <i type="int" name="NKREDLFZ">     1</i>
   <i type="int" name="MAXMEM">  2800</i>
   <i type="int" name="TELESCOPE">     0</i>
   <i type="int" name="TAUPAR">     1</i>
   <i type="int" name="OMEGAPAR">    -1</i>
   <i name="LAMBDA">      1.00000000</i>
  </separator>
  <separator name="External order field" >
   <i name="OFIELD_KAPPA">      0.00000000</i>
   <v name="OFIELD_K">      0.00000000      0.00000000      0.00000000</v>
   <i name="OFIELD_Q6_NEAR">      0.00000000</i>
   <i name="OFIELD_Q6_FAR">      0.00000000</i>
   <i name="OFIELD_A">      0.00000000</i>
  </separator>
 </parameters>
 <atominfo>
  <atoms>     128 </atoms>
  <types>       1 </types>
  <array name="atoms" >
   <dimension dim="1">ion</dimension>
   <field type="string">element</field>
   <field type="int">atomtype</field>
   <set>
    <rc><c>Si</c><c>   1</c></rc>
    <rc><c>Si</c><c>   1</c></rc>
    <rc><c>Si</c><c>   1</c></rc>
    <rc><c>Si</c><c>   1</c></rc>
    <rc><c>Si</c><c>   1</c></rc>
    <rc><c>Si</c><c>   1</c></rc>
    <rc><c>Si</c><c>   1</c></rc>
    <rc><c>Si</c><c>   1</c></rc>
    <rc><c>Si</c><c>   1</c></rc>
    <rc><c>Si</c><c>   1</c></rc>
    <rc><c>Si</c><c>   1</c></rc>
    <rc><c>Si</c><c>   1</c></rc>
    <rc><c>Si</c><c>   1</c></rc>
    <rc><c>Si</c><c>   1</c></rc>
    <rc><c>Si</c><c>   1</c></rc>
    <rc><c>Si</c><c>   1</c></rc>
    <rc><c>Si</c><c>   1</c></rc>
    <rc><c>Si</c><c>   1</c></rc>
    <rc><c>Si</c><c>   1</c></rc>
    <rc><c>Si</c><c>   1</c></rc>
    <rc><c>Si</c><c>   1</c></rc>
    <rc><c>Si</c><c>   1</c></rc>
    <rc><c>Si</c><c>   1</c></rc>
    <rc><c>Si</c><c>   1</c></rc>
    <rc><c>Si</c><c>   1</c></rc>
    <rc><c>Si</c><c>   1</c></rc>
    <rc><c>Si</c><c>   1</c></rc>
    <rc><c>Si</c><c>   1</c></rc>
    <rc><c>Si</c><c>   1</c></rc>
    <rc><c>Si</c><c>   1</c></rc>
    <rc><c>Si</c><c>   1</c></rc>
    <rc><c>Si</c><c>   1</c></rc>
    <rc><c>Si</c><c>   1</c></rc>
    <rc><c>Si</c><c>   1</c></rc>
    <rc><c>Si</c><c>   1</c></rc>
    <rc><c>Si</c><c>   1</c></rc>
    <rc><c>Si</c><c>   1</c></rc>
    <rc><c>Si</c><c>   1</c></rc>
    <rc><c>Si</c><c>   1</c></rc>
    <rc><c>Si</c><c>   1</c></rc>
    <rc><c>Si</c><c>   1</c></rc>
    <rc><c>Si</c><c>   1</c></rc>
    <rc><c>Si</c><c>   1</c></rc>
    <rc><c>Si</c><c>   1</c></rc>
    <rc><c>Si</c><c>   1</c></rc>
    <rc><c>Si</c><c>   1</c></rc>
    <rc><c>Si</c><c>   1</c></rc>
    <rc><c>Si</c><c>   1</c></rc>
    <rc><c>Si</c><c>   1</c></rc>
    <rc><c>Si</c><c>   1</c></rc>
    <rc><c>Si</c><c>   1</c></rc>
    <rc><c>Si</c><c>   1</c></rc>
    <rc><c>Si</c><c>   1</c></rc>
    <rc><c>Si</c><c>   1</c></rc>
    <rc><c>Si</c><c>   1</c></rc>
    <rc><c>Si</c><c>   1</c></rc>
    <rc><c>Si</c><c>   1</c></rc>
    <rc><c>Si</c><c>   1</c></rc>
    <rc><c>Si</c><c>   1</c></rc>
    <rc><c>Si</c><c>   1</c></rc>
    <rc><c>Si</c><c>   1</c></rc>
    <rc><c>Si</c><c>   1</c></rc>
    <rc><c>Si</c><c>   1</c></rc>
    <rc><c>Si</c><c>   1</c></rc>
    <rc><c>Si</c><c>   1</c></rc>
    <rc><c>Si</c><c>   1</c></rc>
    <rc><c>Si</c><c>   1</c></rc>
    <rc><c>Si</c><c>   1</c></rc>
    <rc><c>Si</c><c>   1</c></rc>
    <rc><c>Si</c><c>   1</c></rc>
    <rc><c>Si</c><c>   1</c></rc>
    <rc><c>Si</c><c>   1</c></rc>
    <rc><c>Si</c><c>   1</c></rc>
    <rc><c>Si</c><c>   1</c></rc>
    <rc><c>Si</c><c>   1</c></rc>
    <rc><c>Si</c><c>   1</c></rc>
    <rc><c>Si</c><c>   1</c></rc>
    <rc><c>Si</c><c>   1</c></rc>
    <rc><c>Si</c><c>   1</c></rc>
    <rc><c>Si</c><c>   1</c></rc>
    <rc><c>Si</c><c>   1</c></rc>
    <rc><c>Si</c><c>   1</c></rc>
    <rc><c>Si</c><c>   1</c></rc>
    <rc><c>Si</c><c>   1</c></rc>
    <rc><c>Si</c><c>   1</c></rc>
    <rc><c>Si</c><c>   1</c></rc>
    <rc><c>Si</c><c>   1</c></rc>
    <rc><c>Si</c><c>   1</c></rc>
    <rc><c>Si</c><c>   1</c></rc>
    <rc><c>Si</c><c>   1</c></rc>
    <rc><c>Si</c><c>   1</c></rc>
    <rc><c>Si</c><c>   1</c></rc>
    <rc><c>Si</c><c>   1</c></rc>
    <rc><c>Si</c><c>   1</c></rc>
    <rc><c>Si</c><c>   1</c></rc>
    <rc><c>Si</c><c>   1</c></rc>
    <rc><c>Si</c><c>   1</c></rc>
    <rc><c>Si</c><c>   1</c></rc>
    <rc><c>Si</c><c>   1</c></rc>
    <rc><c>Si</c><c>   1</c></rc>
    <rc><c>Si</c><c>   1</c></rc>
    <rc><c>Si</c><c>   1</c></rc>
    <rc><c>Si</c><c>   1</c></rc>
    <rc><c>Si</c><c>   1</c></rc>
    <rc><c>Si</c><c>   1</c></rc>
    <rc><c>Si</c><c>   1</c></rc>
    <rc><c>Si</c><c>   1</c></rc>
    <rc><c>Si</c><c>   1</c></rc>
    <rc><c>Si</c><c>   1</c></rc>
    <rc><c>Si</c><c>   1</c></rc>
    <rc><c>Si</c><c>   1</c></rc>
    <rc><c>Si</c><c>   1</c></rc>
    <rc><c>Si</c><c>   1</c></rc>
    <rc><c>Si</c><c>   1</c></rc>
    <rc><c>Si</c><c>   1</c></rc>
    <rc><c>Si</c><c>   1</c></rc>
    <rc><c>Si</c><c>   1</c></rc>
    <rc><c>Si</c><c>   1</c></rc>
    <rc><c>Si</c><c>   1</c></rc>
    <rc><c>Si</c><c>   1</c></rc>
    <rc><c>Si</c><c>   1</c></rc>
    <rc><c>Si</c><c>   1</c></rc>
    <rc><c>Si</c><c>   1</c></rc>
    <rc><c>Si</c><c>   1</c></rc>
    <rc><c>Si</c><c>   1</c></rc>
    <rc><c>Si</c><c>   1</c></rc>
    <rc><c>Si</c><c>   1</c></rc>
    <rc><c>Si</c><c>   1</c></rc>
   </set>
  </array>
  <array name="atomtypes" >
   <dimension dim="1">type</dimension>
   <field type="int">atomspertype</field>
   <field type="string">element</field>
   <field>mass</field>
   <field>valence</field>
   <field type="string">pseudopotential</field>
   <set>
    <rc><c> 128</c><c>Si</c><c>     28.08500000</c><c>      4.00000000</c><c> PAW_PBE Si 05Jan2001                   </c></rc>
   </set>
  </array>
 </atominfo>
 <structure name="initialpos" >
  <crystal>
   <varray name="basis" >
    <v>       0.00000000      10.93733369      10.93733369 </v>
    <v>      10.93733369       0.00000000      10.93733369 </v>
    <v>      10.93733369      10.93733369       0.00000000 </v>
   </varray>
   <i name="volume">   2616.76295363 </i>
   <varray name="rec_basis" >
    <v>      -0.04571498       0.04571498       0.04571498 </v>
    <v>       0.04571498      -0.04571498       0.04571498 </v>
    <v>       0.04571498       0.04571498      -0.04571498 </v>
   </varray>
  </crystal>
  <varray name="positions" >
   <v>       0.00777669       0.99532681       0.00220485 </v>
   <v>       0.24953911       0.99662133       0.00869474 </v>
   <v>       0.50148530       0.01022068       0.99263791 </v>
   <v>       0.75795764       0.99917117       0.99792779 </v>
   <v>       0.00672740       0.25039940       0.99802714 </v>
   <v>       0.25543779       0.24356337       0.00002096 </v>
   <v>       0.48545968       0.25521405       0.00500955 </v>
   <v>       0.74425352       0.24081004       0.99649007 </v>
   <v>       0.99841969       0.49350170       0.99605499 </v>
   <v>       0.25030876       0.49558296       0.99820298 </v>
   <v>       0.49366084       0.49601805       0.99332433 </v>
   <v>       0.74527502       0.50352818       0.00086930 </v>
   <v>       0.00485270       0.74292424       0.98952903 </v>
   <v>       0.24934581       0.73837959       0.00931843 </v>
   <v>       0.49436614       0.75634632       0.00040906 </v>
   <v>       0.74656014       0.74723282       0.99926464 </v>
   <v>       0.01225746       0.98455637       0.25499227 </v>
   <v>       0.25555669       0.98616745       0.25786047 </v>
   <v>       0.50426571       0.00308305       0.25089365 </v>
   <v>       0.75100387       0.99566732       0.25340387 </v>
   <v>       0.00151250       0.25258220       0.24639690 </v>
   <v>       0.24572473       0.23868121       0.25273650 </v>
   <v>       0.49460805       0.25058636       0.25211178 </v>
   <v>       0.76525567       0.24980235       0.23385576 </v>
   <v>       0.00310204       0.49299855       0.24930983 </v>
   <v>       0.24057547       0.50579843       0.24878498 </v>
   <v>       0.50257919       0.49938875       0.24712424 </v>
   <v>       0.74235926       0.49318768       0.26675361 </v>
   <v>       0.99687866       0.75084224       0.25283606 </v>
   <v>       0.25084696       0.74593675       0.25549758 </v>
   <v>       0.49894795       0.74352324       0.25571246 </v>
   <v>       0.75288968       0.73859271       0.25179002 </v>
   <v>       0.99710426       0.01726258       0.49207349 </v>
   <v>       0.24217224       0.00517308       0.49813670 </v>
   <v>       0.51083505       0.99452352       0.49768219 </v>
   <v>       0.75158530       0.00810361       0.48962773 </v>
   <v>       0.00635905       0.25249396       0.49206532 </v>
   <v>       0.25405885       0.24906884       0.50556157 </v>
   <v>       0.49255755       0.24545087       0.51375197 </v>
   <v>       0.75030172       0.25147831       0.50444440 </v>
   <v>       0.99921697       0.50107698       0.50239218 </v>
   <v>       0.25580006       0.50677214       0.49198313 </v>
   <v>       0.49667239       0.49010643       0.50670071 </v>
   <v>       0.74833326       0.50135960       0.49623994 </v>
   <v>       0.99817133       0.73857582       0.50169411 </v>
   <v>       0.24503074       0.74796807       0.50533340 </v>
   <v>       0.49256195       0.74032225       0.50663860 </v>
   <v>       0.74388394       0.75067846       0.50977358 </v>
   <v>       0.99968318       0.00213637       0.75658338 </v>
   <v>       0.24095281       0.00416711       0.74601780 </v>
   <v>       0.49273817       0.01377025       0.73918502 </v>
   <v>       0.74886790       0.00752139       0.73946139 </v>
   <v>       0.99928942       0.25931548       0.73814999 </v>
   <v>       0.25131459       0.25337870       0.74611237 </v>
   <v>       0.49535877       0.25788304       0.75485159 </v>
   <v>       0.73633898       0.25716129       0.75262224 </v>
   <v>       0.99578388       0.51172757       0.75088563 </v>
   <v>       0.24837634       0.49172358       0.74679607 </v>
   <v>       0.49452009       0.50887634       0.74171174 </v>
   <v>       0.75881710       0.49218234       0.75582088 </v>
   <v>       0.00032899       0.74371276       0.74685254 </v>
   <v>       0.25207109       0.73927013       0.76236589 </v>
   <v>       0.49665748       0.75301898       0.74847138 </v>
   <v>       0.74590878       0.76575921       0.74526547 </v>
   <v>       0.05879698       0.06145677       0.05724416 </v>
   <v>       0.31903673       0.06328907       0.05619076 </v>
   <v>       0.56101536       0.04979749       0.07193720 </v>
   <v>       0.81847310       0.05313247       0.06471010 </v>
   <v>       0.07174072       0.31169660       0.05504289 </v>
   <v>       0.30482182       0.31004487       0.06995171 </v>
   <v>       0.55712632       0.31645127       0.06723382 </v>
   <v>       0.81061415       0.30621427       0.05814943 </v>
   <v>       0.06326561       0.56753543       0.05296215 </v>
   <v>       0.31175211       0.55803736       0.06069098 </v>
   <v>       0.56619458       0.55464907       0.06823415 </v>
   <v>       0.80555111       0.55987544       0.06603213 </v>
   <v>       0.06341363       0.80576942       0.06167197 </v>
   <v>       0.31379671       0.81379346       0.05016859 </v>
   <v>       0.56133036       0.80427008       0.05613843 </v>
   <v>       0.80980732       0.81157097       0.07191651 </v>
   <v>       0.05704808       0.06218539       0.32033075 </v>
   <v>       0.30385524       0.06092869       0.31618418 </v>
   <v>       0.57144116       0.06403180       0.29919152 </v>
   <v>       0.80624897       0.06414702       0.31504062 </v>
   <v>       0.06830568       0.31534742       0.30688401 </v>
   <v>       0.31956343       0.30899663       0.30540955 </v>
   <v>       0.56529813       0.31212356       0.32080496 </v>
   <v>       0.81670510       0.30683649       0.31487066 </v>
   <v>       0.05985196       0.57009315       0.32400038 </v>
   <v>       0.31772160       0.55536493       0.31437607 </v>
   <v>       0.55951549       0.55941606       0.31627056 </v>
   <v>       0.81636885       0.55078192       0.30884467 </v>
   <v>       0.06338146       0.80669497       0.31560192 </v>
   <v>       0.31165182       0.81307252       0.30960529 </v>
   <v>       0.55769261       0.81587868       0.31471446 </v>
   <v>       0.80787373       0.82338046       0.31793342 </v>
   <v>       0.06505716       0.05481012       0.56260822 </v>
   <v>       0.30611995       0.07381425       0.54898899 </v>
   <v>       0.55615441       0.06230831       0.56600978 </v>
   <v>       0.81638487       0.06554422       0.55954878 </v>
   <v>       0.05389636       0.32621332       0.55835647 </v>
   <v>       0.31237330       0.31922785       0.56961600 </v>
   <v>       0.56454081       0.30897708       0.56065390 </v>
   <v>       0.81256120       0.30585521       0.57316828 </v>
   <v>       0.05363144       0.56009463       0.56442061 </v>
   <v>       0.31789062       0.55472840       0.56436027 </v>
   <v>       0.56327425       0.56260983       0.55907143 </v>
   <v>       0.80350569       0.56299414       0.56839369 </v>
   <v>       0.06376059       0.82124744       0.55875082 </v>
   <v>       0.31406497       0.80470724       0.57511322 </v>
   <v>       0.55279770       0.81118241       0.56965072 </v>
   <v>       0.82062312       0.80075164       0.56876555 </v>
   <v>       0.06610018       0.06590575       0.81131538 </v>
   <v>       0.31589053       0.07595533       0.79940995 </v>
   <v>       0.56325826       0.05462324       0.81344366 </v>
   <v>       0.82052548       0.05833191       0.81071170 </v>
   <v>       0.06378915       0.30487231       0.81175128 </v>
   <v>       0.32427526       0.31553877       0.81336046 </v>
   <v>       0.56530369       0.29989190       0.81910198 </v>
   <v>       0.80257198       0.32479168       0.81657418 </v>
   <v>       0.05935681       0.56918715       0.80812194 </v>
   <v>       0.31757346       0.56197306       0.81157199 </v>
   <v>       0.56226038       0.55502855       0.81728569 </v>
   <v>       0.81355907       0.57021167       0.81284967 </v>
   <v>       0.04857406       0.82385973       0.81617529 </v>
   <v>       0.31147765       0.81398164       0.81921470 </v>
   <v>       0.56073974       0.80977202       0.80922162 </v>
   <v>       0.80706261       0.82797997       0.81043777 </v>
  </varray>
 </structure>
 <calculation>
  <scstep>
   <time name="dav">   70.39   70.43</time>
   <time name="total">   71.39   71.44</time>
   <energy>
    <i name="alphaZ">    210.77028614 </i>
    <i name="ewald"> -14475.11092654 </i>
    <i name="hartreedc">   -750.67738565 </i>
    <i name="XCdc">  -1195.30385258 </i>
    <i name="pawpsdc">   4221.13331941 </i>
    <i name="pawaedc">  -1969.18571412 </i>
    <i name="eentropy">     -0.00270829 </i>
    <i name="bandstr">   2150.05437998 </i>
    <i name="atom">  13192.48085998 </i>
    <i name="e_fr_energy">   1384.15825835 </i>
    <i name="e_wo_entrp">   1384.16096663 </i>
    <i name="e_0_energy">   1384.15961249 </i>
   </energy>
  </scstep>
  <scstep>
   <time name="dav">   80.20   80.24</time>
   <time name="total">   80.20   80.24</time>
   <energy>
    <i name="e_fr_energy">   -536.78113133 </i>
    <i name="e_wo_entrp">   -536.78113133 </i>
    <i name="e_0_energy">   -536.78113133 </i>
   </energy>
  </scstep>
  <scstep>
   <time name="dav">   81.93   81.96</time>
   <time name="total">   81.94   81.97</time>
   <energy>
    <i name="e_fr_energy">   -686.81638751 </i>
    <i name="e_wo_entrp">   -686.81638751 </i>
    <i name="e_0_energy">   -686.81638751 </i>
   </energy>
  </scstep>
  <scstep>
   <time name="dav">   81.00   81.04</time>
   <time name="total">   81.00   81.04</time>
   <energy>
    <i name="e_fr_energy">   -691.12923809 </i>
    <i name="e_wo_entrp">   -691.12923809 </i>
    <i name="e_0_energy">   -691.12923809 </i>
   </energy>
  </scstep>
  <scstep>
   <time name="dav">   82.41   82.45</time>
   <time name="total">   85.56   85.60</time>
   <energy>
    <i name="e_fr_energy">   -691.28265598 </i>
    <i name="e_wo_entrp">   -691.28265598 </i>
    <i name="e_0_energy">   -691.28265598 </i>
   </energy>
  </scstep>
  <scstep>
   <time name="dav">   78.35   78.38</time>
   <time name="total">   82.51   82.55</time>
   <energy>
    <i name="e_fr_energy">   -682.78700811 </i>
    <i name="e_wo_entrp">   -682.78700811 </i>
    <i name="e_0_energy">   -682.78700811 </i>
   </energy>
  </scstep>
  <scstep>
   <time name="dav">   77.12   77.16</time>
   <time name="total">   81.26   81.31</time>
   <energy>
    <i name="e_fr_energy">   -679.24536105 </i>
    <i name="e_wo_entrp">   -679.24536105 </i>
    <i name="e_0_energy">   -679.24536105 </i>
   </energy>
  </scstep>
  <scstep>
   <time name="dav">   77.11   77.16</time>
   <time name="total">   81.29   81.34</time>
   <energy>
    <i name="e_fr_energy">   -679.30080991 </i>
    <i name="e_wo_entrp">   -679.30080991 </i>
    <i name="e_0_energy">   -679.30080991 </i>
   </energy>
  </scstep>
  <scstep>
   <time name="dav">   79.94   79.98</time>
   <time name="total">   84.11   84.15</time>
   <energy>
    <i name="e_fr_energy">   -679.32373379 </i>
    <i name="e_wo_entrp">   -679.32373379 </i>
    <i name="e_0_energy">   -679.32373379 </i>
   </energy>
  </scstep>
  <scstep>
   <time name="dav">   79.13   79.17</time>
   <time name="total">   83.31   83.36</time>
   <energy>
    <i name="e_fr_energy">   -679.32613824 </i>
    <i name="e_wo_entrp">   -679.32613824 </i>
    <i name="e_0_energy">   -679.32613824 </i>
   </energy>
  </scstep>
  <scstep>
   <time name="dav">   77.26   77.30</time>
   <time name="total">   81.43   81.47</time>
   <energy>
    <i name="e_fr_energy">   -679.32774623 </i>
    <i name="e_wo_entrp">   -679.32774623 </i>
    <i name="e_0_energy">   -679.32774623 </i>
   </energy>
  </scstep>
  <scstep>
   <time name="dav">   80.54   80.58</time>
   <time name="total">   84.71   84.75</time>
   <energy>
    <i name="e_fr_energy">   -679.32778700 </i>
    <i name="e_wo_entrp">   -679.32778700 </i>
    <i name="e_0_energy">   -679.32778700 </i>
   </energy>
  </scstep>
  <scstep>
   <time name="dav">   77.04   77.08</time>
   <time name="total">   81.26   81.30</time>
   <energy>
    <i name="e_fr_energy">   -679.32781985 </i>
    <i name="e_wo_entrp">   -679.32781985 </i>
    <i name="e_0_energy">   -679.32781985 </i>
   </energy>
  </scstep>
  <scstep>
   <time name="dav">   80.23   80.27</time>
   <time name="total">   84.44   84.48</time>
   <energy>
    <i name="e_fr_energy">   -679.32782384 </i>
    <i name="e_wo_entrp">   -679.32782384 </i>
    <i name="e_0_energy">   -679.32782384 </i>
   </energy>
  </scstep>
  <scstep>
   <time name="dav">   79.36   79.40</time>
   <time name="total">   83.58   83.62</time>
   <energy>
    <i name="e_fr_energy">   -679.32782807 </i>
    <i name="e_wo_entrp">   -679.32782807 </i>
    <i name="e_0_energy">   -679.32782807 </i>
   </energy>
  </scstep>
  <scstep>
   <time name="dav">   80.21   80.25</time>
   <time name="total">   84.42   84.46</time>
   <energy>
    <i name="e_fr_energy">   -679.32782749 </i>
    <i name="e_wo_entrp">   -679.32782749 </i>
    <i name="e_0_energy">   -679.32782749 </i>
   </energy>
  </scstep>
  <scstep>
   <time name="dav">   72.15   72.17</time>
   <time name="total">   76.35   76.38</time>
   <energy>
    <i name="e_fr_energy">   -679.32782729 </i>
    <i name="e_wo_entrp">   -679.32782729 </i>
    <i name="e_0_energy">   -679.32782729 </i>
   </energy>
  </scstep>
  <scstep>
   <time name="dav">   52.23   52.26</time>
   <time name="total">   56.44   56.48</time>
   <energy>
    <i name="e_fr_energy">   -679.32782749 </i>
    <i name="e_wo_entrp">   -679.32782749 </i>
    <i name="e_0_energy">   -679.32782749 </i>
   </energy>
  </scstep>
  <scstep>
   <time name="dav">   51.71   51.73</time>
   <time name="total">   55.95   55.98</time>
   <energy>
    <i name="e_fr_energy">   -679.32782744 </i>
    <i name="e_wo_entrp">   -679.32782744 </i>
    <i name="e_0_energy">   -679.32782744 </i>
   </energy>
  </scstep>
  <scstep>
   <time name="dav">   50.60   50.62</time>
   <time name="total">   51.59   51.62</time>
   <energy>
    <i name="alphaZ">    210.77028614 </i>
    <i name="ewald"> -14475.11092654 </i>
    <i name="hartreedc">   -997.04352437 </i>
    <i name="XCdc">  -1155.65189269 </i>
    <i name="pawpsdc">   4733.99191739 </i>
    <i name="pawaedc">  -2495.80992028 </i>
    <i name="eentropy">     -0.00000000 </i>
    <i name="bandstr">    307.04537291 </i>
    <i name="atom">  13192.48085998 </i>
    <i name="e_fr_energy">   -679.32782745 </i>
    <i name="e_wo_entrp">   -679.32782745 </i>
    <i name="e_0_energy">   -679.32782745 </i>
   </energy>
  </scstep>
  <structure>
   <crystal>
    <varray name="basis" >
     <v>       0.00000000      10.93733369      10.93733369 </v>
     <v>      10.93733369       0.00000000      10.93733369 </v>
     <v>      10.93733369      10.93733369       0.00000000 </v>
    </varray>
    <i name="volume">   2616.76295363 </i>
    <varray name="rec_basis" >
     <v>      -0.04571498       0.04571498       0.04571498 </v>
     <v>       0.04571498      -0.04571498       0.04571498 </v>
     <v>       0.04571498       0.04571498      -0.04571498 </v>
    </varray>
   </crystal>
   <varray name="positions" >
    <v>       0.00777669       0.99532681       0.00220485 </v>
    <v>       0.24953911       0.99662133       0.00869474 </v>
    <v>       0.50148530       0.01022068       0.99263791 </v>
    <v>       0.75795764       0.99917117       0.99792779 </v>
    <v>       0.00672740       0.25039940       0.99802714 </v>
    <v>       0.25543779       0.24356337       0.00002096 </v>
    <v>       0.48545968       0.25521405       0.00500955 </v>
    <v>       0.74425352       0.24081004       0.99649007 </v>
    <v>       0.99841969       0.49350170       0.99605499 </v>
    <v>       0.25030876       0.49558296       0.99820298 </v>
    <v>       0.49366084       0.49601805       0.99332433 </v>
    <v>       0.74527502       0.50352818       0.00086930 </v>
    <v>       0.00485270       0.74292424       0.98952903 </v>
    <v>       0.24934581       0.73837959       0.00931843 </v>
    <v>       0.49436614       0.75634632       0.00040906 </v>
    <v>       0.74656014       0.74723282       0.99926464 </v>
    <v>       0.01225746       0.98455637       0.25499227 </v>
    <v>       0.25555669       0.98616745       0.25786047 </v>
    <v>       0.50426571       0.00308305       0.25089365 </v>
    <v>       0.75100387       0.99566732       0.25340387 </v>
    <v>       0.00151250       0.25258220       0.24639690 </v>
    <v>       0.24572473       0.23868121       0.25273650 </v>
    <v>       0.49460805       0.25058636       0.25211178 </v>
    <v>       0.76525567       0.24980235       0.23385576 </v>
    <v>       0.00310204       0.49299855       0.24930983 </v>
    <v>       0.24057547       0.50579843       0.24878498 </v>
    <v>       0.50257919       0.49938875       0.24712424 </v>
    <v>       0.74235926       0.49318768       0.26675361 </v>
    <v>       0.99687866       0.75084224       0.25283606 </v>
    <v>       0.25084696       0.74593675       0.25549758 </v>
    <v>       0.49894795       0.74352324       0.25571246 </v>
    <v>       0.75288968       0.73859271       0.25179002 </v>
    <v>       0.99710426       0.01726258       0.49207349 </v>
    <v>       0.24217224       0.00517308       0.49813670 </v>
    <v>       0.51083505       0.99452352       0.49768219 </v>
    <v>       0.75158530       0.00810361       0.48962773 </v>
    <v>       0.00635905       0.25249396       0.49206532 </v>
    <v>       0.25405885       0.24906884       0.50556157 </v>
    <v>       0.49255755       0.24545087       0.51375197 </v>
    <v>       0.75030172       0.25147831       0.50444440 </v>
    <v>       0.99921697       0.50107698       0.50239218 </v>
    <v>       0.25580006       0.50677214       0.49198313 </v>
    <v>       0.49667239       0.49010643       0.50670071 </v>
    <v>       0.74833326       0.50135960       0.49623994 </v>
    <v>       0.99817133       0.73857582       0.50169411 </v>
    <v>       0.24503074       0.74796807       0.50533340 </v>
    <v>       0.49256195       0.74032225       0.50663860 </v>
    <v>       0.74388394       0.75067846       0.50977358 </v>
    <v>       0.99968318       0.00213637       0.75658338 </v>
    <v>       0.24095281       0.00416711       0.74601780 </v>
    <v>       0.49273817       0.01377025       0.73918502 </v>
    <v>       0.74886790       0.00752139       0.73946139 </v>
    <v>       0.99928942       0.25931548       0.73814999 </v>
    <v>       0.25131459       0.25337870       0.74611237 </v>
    <v>       0.49535877       0.25788304       0.75485159 </v>
    <v>       0.73633898       0.25716129       0.75262224 </v>
    <v>       0.99578388       0.51172757       0.75088563 </v>
    <v>       0.24837634       0.49172358       0.74679607 </v>
    <v>       0.49452009       0.50887634       0.74171174 </v>
    <v>       0.75881710       0.49218234       0.75582088 </v>
    <v>       0.00032899       0.74371276       0.74685254 </v>
    <v>       0.25207109       0.73927013       0.76236589 </v>
    <v>       0.49665748       0.75301898       0.74847138 </v>
    <v>       0.74590878       0.76575921       0.74526547 </v>
    <v>       0.05879698       0.06145677       0.05724416 </v>
    <v>       0.31903673       0.06328907       0.05619076 </v>
    <v>       0.56101536       0.04979749       0.07193720 </v>
    <v>       0.81847310       0.05313247       0.06471010 </v>
    <v>       0.07174072       0.31169660       0.05504289 </v>
    <v>       0.30482182       0.31004487       0.06995171 </v>
    <v>       0.55712632       0.31645127       0.06723382 </v>
    <v>       0.81061415       0.30621427       0.05814943 </v>
    <v>       0.06326561       0.56753543       0.05296215 </v>
    <v>       0.31175211       0.55803736       0.06069098 </v>
    <v>       0.56619458       0.55464907       0.06823415 </v>
    <v>       0.80555111       0.55987544       0.06603213 </v>
    <v>       0.06341363       0.80576942       0.06167197 </v>
    <v>       0.31379671       0.81379346       0.05016859 </v>
    <v>       0.56133036       0.80427008       0.05613843 </v>
    <v>       0.80980732       0.81157097       0.07191651 </v>
    <v>       0.05704808       0.06218539       0.32033075 </v>
    <v>       0.30385524       0.06092869       0.31618418 </v>
    <v>       0.57144116       0.06403180       0.29919152 </v>
    <v>       0.80624897       0.06414702       0.31504062 </v>
    <v>       0.06830568       0.31534742       0.30688401 </v>
    <v>       0.31956343       0.30899663       0.30540955 </v>
    <v>       0.56529813       0.31212356       0.32080496 </v>
    <v>       0.81670510       0.30683649       0.31487066 </v>
    <v>       0.05985196       0.57009315       0.32400038 </v>
    <v>       0.31772160       0.55536493       0.31437607 </v>
    <v>       0.55951549       0.55941606       0.31627056 </v>
    <v>       0.81636885       0.55078192       0.30884467 </v>
    <v>       0.06338146       0.80669497       0.31560192 </v>
    <v>       0.31165182       0.81307252       0.30960529 </v>
    <v>       0.55769261       0.81587868       0.31471446 </v>
    <v>       0.80787373       0.82338046       0.31793342 </v>
    <v>       0.06505716       0.05481012       0.56260822 </v>
    <v>       0.30611995       0.07381425       0.54898899 </v>
    <v>       0.55615441       0.06230831       0.56600978 </v>
    <v>       0.81638487       0.06554422       0.55954878 </v>
    <v>       0.05389636       0.32621332       0.55835647 </v>
    <v>       0.31237330       0.31922785       0.56961600 </v>
    <v>       0.56454081       0.30897708       0.56065390 </v>
    <v>       0.81256120       0.30585521       0.57316828 </v>
    <v>       0.05363144       0.56009463       0.56442061 </v>
    <v>       0.31789062       0.55472840       0.56436027 </v>
    <v>       0.56327425       0.56260983       0.55907143 </v>
    <v>       0.80350569       0.56299414       0.56839369 </v>
    <v>       0.06376059       0.82124744       0.55875082 </v>
    <v>       0.31406497       0.80470724       0.57511322 </v>
    <v>       0.55279770       0.81118241       0.56965072 </v>
    <v>       0.82062312       0.80075164       0.56876555 </v>
    <v>       0.06610018       0.06590575       0.81131538 </v>
    <v>       0.31589053       0.07595533       0.79940995 </v>
    <v>       0.56325826       0.05462324       0.81344366 </v>
    <v>       0.82052548       0.05833191       0.81071170 </v>
    <v>       0.06378915       0.30487231       0.81175128 </v>
    <v>       0.32427526       0.31553877       0.81336046 </v>
    <v>       0.56530369       0.29989190       0.81910198 </v>
    <v>       0.80257198       0.32479168       0.81657418 </v>
    <v>       0.05935681       0.56918715       0.80812194 </v>
    <v>       0.31757346       0.56197306       0.81157199 </v>
    <v>       0.56226038       0.55502855       0.81728569 </v>
    <v>       0.81355907       0.57021167       0.81284967 </v>
    <v>       0.04857406       0.82385973       0.81617529 </v>
    <v>       0.31147765       0.81398164       0.81921470 </v>
    <v>       0.56073974       0.80977202       0.80922162 </v>
    <v>       0.80706261       0.82797997       0.81043777 </v>
   </varray>
  </structure>
  <varray name="forces" >
   <v>      -1.35297495      -1.55339214      -1.22532019 </v>
   <v>      -0.84641759      -1.73881391       0.64713379 </v>
   <v>      -1.23545417       1.06123499      -1.73367614 </v>
   <v>      -0.08427304      -0.54186212      -1.32757294 </v>
   <v>      -0.34715974      -0.88064263      -1.28612843 </v>
   <v>       0.43905773      -0.47701375       0.70267739 </v>
   <v>      -0.89750255       1.90171735       0.29100622 </v>
   <v>       1.05094126       0.90483498       0.31884157 </v>
   <v>       1.19261610      -0.23727050       0.75712307 </v>
   <v>       0.26804656      -0.19667465      -0.00822082 </v>
   <v>       1.61783741       1.74928032       0.65318817 </v>
   <v>      -1.35329230       0.57237980      -0.25876210 </v>
   <v>       2.89076151       0.01011893      -0.22157085 </v>
   <v>      -0.04444552      -1.17002094       0.84062121 </v>
   <v>      -2.62479391      -0.57481662      -1.32416586 </v>
   <v>       0.52140251       0.36676194       0.76727726 </v>
   <v>       1.28671059      -2.11350692       0.31015424 </v>
   <v>       0.96114901      -2.41492277       1.23890657 </v>
   <v>      -0.06157365      -0.80537870      -2.10659175 </v>
   <v>       0.53992439      -1.12141330       1.71017168 </v>
   <v>      -0.28291761       0.30598069       0.24451197 </v>
   <v>       0.82929609       0.60481822       1.73516748 </v>
   <v>      -0.27435313       1.58458001       1.63298508 </v>
   <v>       1.85293146       0.65880733      -1.70859139 </v>
   <v>       1.14300406      -0.56359706       1.80137344 </v>
   <v>      -0.87865682       1.42764980       0.41209121 </v>
   <v>       0.30531700       0.83097879      -0.65152623 </v>
   <v>      -1.89889632      -1.44024719       0.01547273 </v>
   <v>       0.27629355      -0.77831023       0.47942177 </v>
   <v>      -1.11338362      -0.86214795       0.12422531 </v>
   <v>      -0.12480368      -0.83603722       0.93678968 </v>
   <v>       1.74723371       0.37705078       0.12768860 </v>
   <v>      -0.19211119       1.45189091      -2.10412253 </v>
   <v>      -1.03700747       1.58007296      -0.11167126 </v>
   <v>       0.15935320      -2.04863106      -0.60737331 </v>
   <v>       0.96350332       1.71383675      -1.79239149 </v>
   <v>       0.50398114       0.45494590      -1.10343303 </v>
   <v>       0.82155267      -1.74779601       1.00306994 </v>
   <v>      -0.92751800      -0.41525083       1.05060446 </v>
   <v>      -0.51213913      -0.14327579      -0.05966821 </v>
   <v>       0.94824183      -1.53232918      -0.91334791 </v>
   <v>       0.69432382       0.12550643      -1.86400269 </v>
   <v>      -0.19273872       0.00856981       1.56295264 </v>
   <v>      -0.26341105       0.92166467      -0.25454342 </v>
   <v>       0.74755942       0.45421062       2.02643025 </v>
   <v>      -0.48899715       0.75101701       1.03745409 </v>
   <v>       0.28294665      -0.25283527       2.07729436 </v>
   <v>      -0.11753534      -0.32634214      -0.03370720 </v>
   <v>      -0.58350844      -0.62868523       1.05391081 </v>
   <v>      -1.05486619       1.31070046       1.90316367 </v>
   <v>      -0.35829731       2.65695079      -1.35321788 </v>
   <v>       1.08605689       0.90785287       0.18210730 </v>
   <v>       0.69656935       0.55969825      -1.56984825 </v>
   <v>       1.78402801       0.65034326       0.27355298 </v>
   <v>      -3.29514873       0.92717908       0.45938316 </v>
   <v>      -0.96599441       2.86942530       1.16732521 </v>
   <v>      -1.82675024       0.24755746      -1.19184723 </v>
   <v>       1.80125807       0.17206303       1.12493478 </v>
   <v>      -0.95506766       2.29604888      -0.05406827 </v>
   <v>       2.43832804      -2.35347791       1.53185060 </v>
   <v>       2.32727621      -1.24255312       1.75400943 </v>
   <v>       1.62885058      -1.41416468       0.71468965 </v>
   <v>      -0.04985205       0.99183112      -1.18475569 </v>
   <v>       0.17918174       1.11206979      -1.02746128 </v>
   <v>       1.75671846       2.48985892       1.39043682 </v>
   <v>       0.51568750       0.91764524      -1.37997579 </v>
   <v>       0.31465346      -0.54557047       2.35886058 </v>
   <v>       0.32781824       0.16494136       0.51072416 </v>
   <v>       0.28242726       0.33902250      -0.69609015 </v>
   <v>      -0.23778127      -0.51496194      -0.10351153 </v>
   <v>      -1.20928560      -0.20941368      -0.82864364 </v>
   <v>      -0.58401933      -0.84895864       1.55085632 </v>
   <v>      -1.05972428       1.06769492      -1.75930368 </v>
   <v>       0.22629763       0.17286526      -0.71067799 </v>
   <v>      -0.08687518      -2.61616944       0.04356574 </v>
   <v>       0.31438637       1.07678836       0.19311565 </v>
   <v>       0.09249799      -0.01629890      -0.29402457 </v>
   <v>       1.45330133       1.21160792      -0.87221768 </v>
   <v>       2.78198332       1.37096324       1.55849561 </v>
   <v>      -1.63746803      -0.77948894       0.23852022 </v>
   <v>      -2.10373974      -0.96922283       1.85005393 </v>
   <v>      -1.25493270       1.26613807       0.42894691 </v>
   <v>       1.75793248       0.81946706      -0.33596492 </v>
   <v>      -1.60549251      -0.00108466       1.75254752 </v>
   <v>      -0.29820595      -0.27042756      -1.40430980 </v>
   <v>       1.79974153      -1.08259017      -1.76514628 </v>
   <v>      -0.95692176      -0.26585439      -0.29831853 </v>
   <v>       0.06900099      -0.37700592      -0.11674705 </v>
   <v>      -1.63791236      -1.41289197      -0.90551463 </v>
   <v>      -0.45054498      -1.35681402       0.59813882 </v>
   <v>       0.44746287       0.18160025      -0.50995945 </v>
   <v>       1.32563099       0.97793495       1.03753395 </v>
   <v>      -0.57138386       0.64016803      -0.34128615 </v>
   <v>      -0.50040033       1.95687678      -1.28728777 </v>
   <v>      -0.58155660       0.64526651      -0.30246817 </v>
   <v>      -2.17589608       1.24312788      -2.38376779 </v>
   <v>       2.20661535      -0.02974730       0.51156276 </v>
   <v>      -0.52032601       2.23677648      -0.63917701 </v>
   <v>      -1.35671643      -0.01582518       1.75567183 </v>
   <v>      -0.25632935      -1.29069922      -0.29153602 </v>
   <v>      -2.27250312       1.25429690      -0.02432860 </v>
   <v>      -0.81497284      -1.53152272       0.07429767 </v>
   <v>       0.61819379       0.97677906      -0.53226345 </v>
   <v>      -0.35927720      -1.13876953       1.38708058 </v>
   <v>       0.08419702       2.13802837       1.20664287 </v>
   <v>       0.97025183      -1.16085579       0.04718957 </v>
   <v>      -0.89484324       0.07492308      -0.84802882 </v>
   <v>      -0.58918421       0.20840910       0.51683130 </v>
   <v>      -0.25950094      -0.82005000      -1.24688299 </v>
   <v>       0.46968396      -1.68005949      -0.45985894 </v>
   <v>      -1.28879368      -0.25130313       0.48809739 </v>
   <v>       0.81594671      -2.26074946       0.59832162 </v>
   <v>       1.25546655      -0.94804490      -0.65430939 </v>
   <v>       0.20932658       0.16973295      -2.78489467 </v>
   <v>       0.57213623      -1.30539151       1.35974486 </v>
   <v>       1.11129470      -1.53668407      -0.38796699 </v>
   <v>       1.11720605      -0.35208093       1.26998602 </v>
   <v>       0.26833634      -1.49116470      -2.82400792 </v>
   <v>       2.62491984      -1.65985099      -0.04680389 </v>
   <v>      -3.22963445       1.37086695      -1.69677338 </v>
   <v>      -0.72875801       1.79063242      -0.56144987 </v>
   <v>      -0.62573886      -0.75952770      -1.98032932 </v>
   <v>      -0.75046645      -1.26074101       1.58429310 </v>
   <v>       0.53824132      -0.71611082      -0.28613212 </v>
   <v>      -2.93225534       0.32668060       0.21818983 </v>
   <v>      -0.10498452      -0.46110933      -0.56969424 </v>
   <v>       1.25503374      -0.21445498       0.88772339 </v>
   <v>      -1.38965744       0.95418369      -0.87975131 </v>
  </varray>
  <varray name="stress" >
   <v>      13.58416731      -3.54634111      -2.43539040 </v>
   <v>      -3.54634110      13.13636573      -2.62048483 </v>
   <v>      -2.43539039      -2.62048483      14.12036956 </v>
  </varray>
  <energy>
   <i name="e_fr_energy">   -679.32782745 </i>
   <i name="e_wo_entrp">   -679.32782745 </i>
   <i name="e_0_energy">     -0.00000000 </i>
  </energy>
  <time name="totalsc"> 1670.41 1671.23</time>
  <eigenvalues>
   <array>
    <dimension dim="1">band</dimension>
    <dimension dim="2">kpoint</dimension>
    <dimension dim="3">spin</dimension>
    <field>eigene</field>
    <field>occ</field>
    <set>
     <set comment="spin 1">
      <set comment="kpoint 1">
       <r>   -6.2815    1.0000 </r>
       <r>   -5.6213    1.0000 </r>
       <r>   -5.6158    1.0000 </r>
       <r>   -5.5734    1.0000 </r>
       <r>   -5.5443    1.0000 </r>
       <r>   -5.4933    1.0000 </r>
       <r>   -5.4596    1.0000 </r>
       <r>   -5.4276    1.0000 </r>
       <r>   -5.4006    1.0000 </r>
       <r>   -5.2817    1.0000 </r>
       <r>   -5.2492    1.0000 </r>
       <r>   -5.2044    1.0000 </r>
       <r>   -5.1904    1.0000 </r>
       <r>   -5.1661    1.0000 </r>
       <r>   -5.1432    1.0000 </r>
       <r>   -4.4746    1.0000 </r>
       <r>   -4.4615    1.0000 </r>
       <r>   -4.4100    1.0000 </r>
       <r>   -4.3867    1.0000 </r>
       <r>   -4.3388    1.0000 </r>
       <r>   -4.3282    1.0000 </r>
       <r>   -4.2917    1.0000 </r>
       <r>   -4.2778    1.0000 </r>
       <r>   -4.2384    1.0000 </r>
       <r>   -4.2085    1.0000 </r>
       <r>   -4.1630    1.0000 </r>
       <r>   -4.1112    1.0000 </r>
       <r>   -4.0384    1.0000 </r>
       <r>   -3.9976    1.0000 </r>
       <r>   -3.9756    1.0000 </r>
       <r>   -3.9344    1.0000 </r>
       <r>   -3.8774    1.0000 </r>
       <r>   -3.8454    1.0000 </r>
       <r>   -3.7998    1.0000 </r>
       <r>   -3.7720    1.0000 </r>
       <r>   -3.7504    1.0000 </r>
       <r>   -3.7196    1.0000 </r>
       <r>   -3.6960    1.0000 </r>
       <r>   -3.6760    1.0000 </r>
       <r>   -3.6449    1.0000 </r>
       <r>   -3.6412    1.0000 </r>
       <r>   -3.6046    1.0000 </r>
       <r>   -3.5840    1.0000 </r>
       <r>   -3.5592    1.0000 </r>
       <r>   -3.5372    1.0000 </r>
       <r>   -3.5030    1.0000 </r>
       <r>   -3.4954    1.0000 </r>
       <r>   -3.4652    1.0000 </r>
       <r>   -3.4290    1.0000 </r>
       <r>   -3.4076    1.0000 </r>
       <r>   -3.3970    1.0000 </r>
       <r>   -3.3725    1.0000 </r>
       <r>   -3.3510    1.0000 </r>
       <r>   -3.2810    1.0000 </r>
       <r>   -3.2428    1.0000 </r>
       <r>   -2.3526    1.0000 </r>
       <r>   -2.3253    1.0000 </r>
       <r>   -2.2796    1.0000 </r>
       <r>   -2.2400    1.0000 </r>
       <r>   -2.2046    1.0000 </r>
       <r>   -2.1907    1.0000 </r>
       <r>   -2.1578    1.0000 </r>
       <r>   -2.1368    1.0000 </r>
       <r>   -2.0913    1.0000 </r>
       <r>   -2.0669    1.0000 </r>
       <r>   -2.0173    1.0000 </r>
       <r>   -1.9926    1.0000 </r>
       <r>   -1.9739    1.0000 </r>
       <r>   -1.9152    1.0000 </r>
       <r>   -1.8893    1.0000 </r>
       <r>   -1.8580    1.0000 </r>
       <r>   -1.8227    1.0000 </r>
       <r>   -1.7890    1.0000 </r>
       <r>   -1.3787    1.0000 </r>
       <r>   -1.3224    1.0000 </r>
       <r>   -1.2728    1.0000 </r>
       <r>   -1.2054    1.0000 </r>
       <r>   -1.0310    1.0000 </r>
       <r>   -0.9915    1.0000 </r>
       <r>   -0.9895    1.0000 </r>
       <r>   -0.9516    1.0000 </r>
       <r>   -0.9368    1.0000 </r>
       <r>   -0.8715    1.0000 </r>
       <r>   -0.8487    1.0000 </r>
       <r>   -0.8159    1.0000 </r>
       <r>   -0.8136    1.0000 </r>
       <r>   -0.7633    1.0000 </r>
       <r>   -0.7518    1.0000 </r>
       <r>   -0.7153    1.0000 </r>
       <r>   -0.7092    1.0000 </r>
       <r>   -0.6849    1.0000 </r>
       <r>   -0.6829    1.0000 </r>
       <r>   -0.6607    1.0000 </r>
       <r>   -0.6294    1.0000 </r>
       <r>   -0.5805    1.0000 </r>
       <r>   -0.5365    1.0000 </r>
       <r>   -0.5197    1.0000 </r>
       <r>   -0.4808    1.0000 </r>
       <r>   -0.4669    1.0000 </r>
       <r>   -0.4264    1.0000 </r>
       <r>   -0.3788    1.0000 </r>
       <r>   -0.0054    1.0000 </r>
       <r>    0.0349    1.0000 </r>
       <r>    0.0516    1.0000 </r>
       <r>    0.0879    1.0000 </r>
       <r>    0.1353    1.0000 </r>
       <r>    0.1697    1.0000 </r>
       <r>    0.2009    1.0000 </r>
       <r>    0.2454    1.0000 </r>
       <r>    0.2856    1.0000 </r>
       <r>    0.3139    1.0000 </r>
       <r>    0.3972    1.0000 </r>
       <r>    0.4159    1.0000 </r>
       <r>    1.4562    1.0000 </r>
       <r>    1.4921    1.0000 </r>
       <r>    1.5261    1.0000 </r>
       <r>    1.5725    1.0000 </r>
       <r>    1.5918    1.0000 </r>
       <r>    1.6048    1.0000 </r>
       <r>    1.6166    1.0000 </r>
       <r>    1.6345    1.0000 </r>
       <r>    1.6558    1.0000 </r>
       <r>    1.6680    1.0000 </r>
       <r>    1.6914    1.0000 </r>
       <r>    1.7190    1.0000 </r>
       <r>    1.7287    1.0000 </r>
       <r>    1.7342    1.0000 </r>
       <r>    1.7479    1.0000 </r>
       <r>    1.7538    1.0000 </r>
       <r>    1.7737    1.0000 </r>
       <r>    1.7854    1.0000 </r>
       <r>    1.8074    1.0000 </r>
       <r>    1.8220    1.0000 </r>
       <r>    1.8248    1.0000 </r>
       <r>    1.8338    1.0000 </r>
       <r>    1.8502    1.0000 </r>
       <r>    1.8651    1.0000 </r>
       <r>    1.8829    1.0000 </r>
       <r>    1.8908    1.0000 </r>
       <r>    1.9074    1.0000 </r>
       <r>    1.9238    1.0000 </r>
       <r>    1.9315    1.0000 </r>
       <r>    1.9521    1.0000 </r>
       <r>    1.9624    1.0000 </r>
       <r>    1.9800    1.0000 </r>
       <r>    1.9991    1.0000 </r>
       <r>    2.0164    1.0000 </r>
       <r>    2.0287    1.0000 </r>
       <r>    2.0379    1.0000 </r>
       <r>    2.0552    1.0000 </r>
       <r>    2.0732    1.0000 </r>
       <r>    2.0816    1.0000 </r>
       <r>    2.0984    1.0000 </r>
       <r>    2.1157    1.0000 </r>
       <r>    2.1280    1.0000 </r>
       <r>    2.1353    1.0000 </r>
       <r>    2.1537    1.0000 </r>
       <r>    2.1575    1.0000 </r>
       <r>    2.1740    1.0000 </r>
       <r>    2.1760    1.0000 </r>
       <r>    2.2014    1.0000 </r>
       <r>    2.2054    1.0000 </r>
       <r>    2.2342    1.0000 </r>
       <r>    2.2391    1.0000 </r>
       <r>    2.2625    1.0000 </r>
       <r>    2.2719    1.0000 </r>
       <r>    2.2897    1.0000 </r>
       <r>    2.3082    1.0000 </r>
       <r>    2.3200    1.0000 </r>
       <r>    2.3389    1.0000 </r>
       <r>    2.3735    1.0000 </r>
       <r>    2.3864    1.0000 </r>
       <r>    2.4079    1.0000 </r>
       <r>    2.4410    1.0000 </r>
       <r>    2.4562    1.0000 </r>
       <r>    2.7758    1.0000 </r>
       <r>    2.8038    1.0000 </r>
       <r>    2.8132    1.0000 </r>
       <r>    2.8265    1.0000 </r>
       <r>    2.8499    1.0000 </r>
       <r>    2.8687    1.0000 </r>
       <r>    3.2000    1.0000 </r>
       <r>    3.2133    1.0000 </r>
       <r>    3.2679    1.0000 </r>
       <r>    3.2830    1.0000 </r>
       <r>    3.3135    1.0000 </r>
       <r>    3.3341    1.0000 </r>
       <r>    3.3401    1.0000 </r>
       <r>    3.3482    1.0000 </r>
       <r>    3.3720    1.0000 </r>
       <r>    3.3825    1.0000 </r>
       <r>    3.4100    1.0000 </r>
       <r>    3.4354    1.0000 </r>
       <r>    3.4418    1.0000 </r>
       <r>    3.4449    1.0000 </r>
       <r>    3.4541    1.0000 </r>
       <r>    3.4618    1.0000 </r>
       <r>    3.4996    1.0000 </r>
       <r>    3.5079    1.0000 </r>
       <r>    3.5379    1.0000 </r>
       <r>    3.5492    1.0000 </r>
       <r>    3.5714    1.0000 </r>
       <r>    3.5780    1.0000 </r>
       <r>    3.6337    1.0000 </r>
       <r>    3.6484    1.0000 </r>
       <r>    3.6651    1.0000 </r>
       <r>    3.6824    1.0000 </r>
       <r>    3.7243    1.0000 </r>
       <r>    3.7323    1.0000 </r>
       <r>    3.7659    1.0000 </r>
       <r>    3.7774    1.0000 </r>
       <r>    3.8172    1.0000 </r>
       <r>    3.8341    1.0000 </r>
       <r>    3.8683    1.0000 </r>
       <r>    3.8724    1.0000 </r>
       <r>    3.8837    1.0000 </r>
       <r>    3.9098    1.0000 </r>
       <r>    4.1328    1.0000 </r>
       <r>    4.1706    1.0000 </r>
       <r>    4.1893    1.0000 </r>
       <r>    4.2108    1.0000 </r>
       <r>    4.2596    1.0000 </r>
       <r>    4.2711    1.0000 </r>
       <r>    4.3026    1.0000 </r>
       <r>    4.3519    1.0000 </r>
       <r>    4.3692    1.0000 </r>
       <r>    4.3724    1.0000 </r>
       <r>    4.4056    1.0000 </r>
       <r>    4.4370    1.0000 </r>
       <r>    4.4674    1.0000 </r>
       <r>    4.4759    1.0000 </r>
       <r>    4.4918    1.0000 </r>
       <r>    4.5247    1.0000 </r>
       <r>    4.5403    1.0000 </r>
       <r>    4.5696    1.0000 </r>
       <r>    4.5824    1.0000 </r>
       <r>    4.6483    1.0000 </r>
       <r>    4.7211    1.0000 </r>
       <r>    4.7611    1.0000 </r>
       <r>    4.7956    1.0000 </r>
       <r>    4.8079    1.0000 </r>
       <r>    4.8559    1.0000 </r>
       <r>    4.8902    1.0000 </r>
       <r>    4.9082    1.0000 </r>
       <r>    4.9360    1.0000 </r>
       <r>    5.0034    1.0000 </r>
       <r>    5.0241    1.0000 </r>
       <r>    5.0588    1.0000 </r>
       <r>    5.0959    1.0000 </r>
       <r>    5.1210    1.0000 </r>
       <r>    5.1593    1.0000 </r>
       <r>    5.1984    1.0000 </r>
       <r>    5.2666    1.0000 </r>
       <r>    5.6826    1.0000 </r>
       <r>    5.7707    1.0000 </r>
       <r>    5.8510    1.0000 </r>
       <r>    6.1895    0.0000 </r>
       <r>    6.2307    0.0000 </r>
       <r>    6.2536    0.0000 </r>
       <r>    6.2814    0.0000 </r>
       <r>    6.2918    0.0000 </r>
       <r>    6.3271    0.0000 </r>
       <r>    6.5250    0.0000 </r>
       <r>    6.5907    0.0000 </r>
       <r>    6.5984    0.0000 </r>
       <r>    6.6640    0.0000 </r>
       <r>    6.6867    0.0000 </r>
       <r>    6.7263    0.0000 </r>
       <r>    6.8069    0.0000 </r>
       <r>    6.8563    0.0000 </r>
       <r>    6.8836    0.0000 </r>
       <r>    6.8846    0.0000 </r>
       <r>    6.9085    0.0000 </r>
       <r>    6.9510    0.0000 </r>
       <r>    6.9664    0.0000 </r>
       <r>    6.9813    0.0000 </r>
       <r>    6.9835    0.0000 </r>
       <r>    7.0080    0.0000 </r>
       <r>    7.0186    0.0000 </r>
       <r>    7.0267    0.0000 </r>
       <r>    7.0530    0.0000 </r>
       <r>    7.0593    0.0000 </r>
       <r>    7.0738    0.0000 </r>
       <r>    7.0954    0.0000 </r>
       <r>    7.1162    0.0000 </r>
       <r>    7.1237    0.0000 </r>
       <r>    7.1353    0.0000 </r>
       <r>    7.1584    0.0000 </r>
       <r>    7.1709    0.0000 </r>
       <r>    7.1835    0.0000 </r>
       <r>    7.2070    0.0000 </r>
       <r>    7.2090    0.0000 </r>
       <r>    7.2311    0.0000 </r>
       <r>    7.2634    0.0000 </r>
       <r>    7.2704    0.0000 </r>
       <r>    7.3463    0.0000 </r>
       <r>    7.4497    0.0000 </r>
       <r>    7.4677    0.0000 </r>
       <r>    7.4883    0.0000 </r>
       <r>    7.5405    0.0000 </r>
       <r>    7.5490    0.0000 </r>
       <r>    7.5691    0.0000 </r>
       <r>    7.5766    0.0000 </r>
       <r>    7.6104    0.0000 </r>
       <r>    7.8141    0.0000 </r>
       <r>    7.8270    0.0000 </r>
       <r>    7.8621    0.0000 </r>
       <r>    7.9094    0.0000 </r>
       <r>    7.9258    0.0000 </r>
       <r>    7.9434    0.0000 </r>
       <r>    7.9810    0.0000 </r>
       <r>    8.0070    0.0000 </r>
       <r>    8.0442    0.0000 </r>
       <r>    8.0893    0.0000 </r>
       <r>    8.0936    0.0000 </r>
       <r>    8.1246    0.0000 </r>
       <r>    8.1786    0.0000 </r>
       <r>    8.2052    0.0000 </r>
       <r>    8.2334    0.0000 </r>
       <r>    8.5495    0.0000 </r>
       <r>    8.5965    0.0000 </r>
       <r>    8.6155    0.0000 </r>
      </set>
      <set comment="kpoint 2">
       <r>   -6.1100    1.0000 </r>
       <r>   -6.0634    1.0000 </r>
       <r>   -5.6921    1.0000 </r>
       <r>   -5.5881    1.0000 </r>
       <r>   -5.5790    1.0000 </r>
       <r>   -5.5287    1.0000 </r>
       <r>   -5.5223    1.0000 </r>
       <r>   -5.4707    1.0000 </r>
       <r>   -5.1692    1.0000 </r>
       <r>   -5.1215    1.0000 </r>
       <r>   -5.0901    1.0000 </r>
       <r>   -5.0464    1.0000 </r>
       <r>   -5.0081    1.0000 </r>
       <r>   -4.9586    1.0000 </r>
       <r>   -4.7347    1.0000 </r>
[...]
       <r>    -3.0936    44.6855   102.2953 </r>
       <r>    -3.0390    38.6241   104.4050 </r>
       <r>    -2.9843    49.9430   107.1330 </r>
       <r>    -2.9297    29.8269   108.7623 </r>
       <r>    -2.8751    32.7311   110.5502 </r>
       <r>    -2.8205    35.4134   112.4845 </r>
       <r>    -2.7658    40.5146   114.6975 </r>
       <r>    -2.7112    26.9668   116.1706 </r>
       <r>    -2.6566    44.1885   118.5842 </r>
       <r>    -2.6020    35.4334   120.5197 </r>
       <r>    -2.5473    25.8271   121.9305 </r>
       <r>    -2.4927    10.2187   122.4886 </r>
       <r>    -2.4381     4.7849   122.7500 </r>
       <r>    -2.3835     0.0000   122.7500 </r>
       <r>    -2.3289     5.9765   123.0765 </r>
       <r>    -2.2742     6.7326   123.4442 </r>
       <r>    -2.2196    21.9929   124.6455 </r>
       <r>    -2.1650    30.0596   126.2874 </r>
       <r>    -2.1104    18.3125   127.2878 </r>
       <r>    -2.0557    28.1192   128.8237 </r>
       <r>    -2.0011    30.4271   130.4857 </r>
       <r>    -1.9465    24.6803   131.8338 </r>
       <r>    -1.8919     9.2494   132.3390 </r>
       <r>    -1.8373     7.6065   132.7545 </r>
       <r>    -1.7826     8.2296   133.2041 </r>
       <r>    -1.7280     2.8481   133.3596 </r>
       <r>    -1.6734     8.6191   133.8304 </r>
       <r>    -1.6188    12.7602   134.5274 </r>
       <r>    -1.5641    26.8961   135.9965 </r>
       <r>    -1.5095    47.2607   138.5780 </r>
       <r>    -1.4549    34.6826   140.4725 </r>
       <r>    -1.4003    37.3793   142.5143 </r>
       <r>    -1.3457    51.7822   145.3428 </r>
       <r>    -1.2910    50.5172   148.1021 </r>
       <r>    -1.2364    69.3374   151.8895 </r>
       <r>    -1.1818    54.7014   154.8775 </r>
       <r>    -1.1272    64.6163   158.4070 </r>
       <r>    -1.0725    60.6110   161.7177 </r>
       <r>    -1.0179    57.4969   164.8584 </r>
       <r>    -0.9633    63.9445   168.3512 </r>
       <r>    -0.9087    72.8553   172.3307 </r>
       <r>    -0.8541    69.8381   176.1455 </r>
       <r>    -0.7994    59.1350   179.3756 </r>
       <r>    -0.7448    48.4495   182.0220 </r>
       <r>    -0.6902    38.9988   184.1523 </r>
       <r>    -0.6356    41.7779   186.4343 </r>
       <r>    -0.5809    34.2167   188.3034 </r>
       <r>    -0.5263    26.0308   189.7252 </r>
       <r>    -0.4717    15.3564   190.5640 </r>
       <r>    -0.4171    25.8254   191.9747 </r>
       <r>    -0.3625    40.6670   194.1960 </r>
       <r>    -0.3078    40.6051   196.4140 </r>
       <r>    -0.2532    55.0504   199.4210 </r>
       <r>    -0.1986    48.8284   202.0882 </r>
       <r>    -0.1440    53.4561   205.0081 </r>
       <r>    -0.0893    39.7782   207.1809 </r>
       <r>    -0.0347    44.7826   209.6271 </r>
       <r>     0.0199    30.8255   211.3108 </r>
       <r>     0.0745    26.4433   212.7553 </r>
       <r>     0.1291    14.6301   213.5544 </r>
       <r>     0.1838    12.6634   214.2461 </r>
       <r>     0.2384     5.4505   214.5438 </r>
       <r>     0.2930    21.5385   215.7203 </r>
       <r>     0.3476    24.7565   217.0726 </r>
       <r>     0.4023    23.6107   218.3622 </r>
       <r>     0.4569    30.4906   220.0277 </r>
       <r>     0.5115    22.9324   221.2803 </r>
       <r>     0.5661    28.3956   222.8314 </r>
       <r>     0.6207    21.0176   223.9794 </r>
       <r>     0.6754    23.1180   225.2422 </r>
       <r>     0.7300    10.8868   225.8368 </r>
       <r>     0.7846    19.4825   226.9010 </r>
       <r>     0.8392    10.9762   227.5006 </r>
       <r>     0.8939     5.7412   227.8142 </r>
       <r>     0.9485    19.5770   228.8835 </r>
       <r>     1.0031    19.8467   229.9676 </r>
       <r>     1.0577    33.1148   231.7764 </r>
       <r>     1.1124    16.7901   232.6935 </r>
       <r>     1.1670    32.7099   234.4802 </r>
       <r>     1.2216    15.7220   235.3390 </r>
       <r>     1.2762    37.4406   237.3841 </r>
       <r>     1.3308    27.5444   238.8887 </r>
       <r>     1.3855    36.6990   240.8933 </r>
       <r>     1.4401    41.5891   243.1650 </r>
       <r>     1.4947    71.4900   247.0699 </r>
       <r>     1.5493    91.9283   252.0913 </r>
       <r>     1.6040   100.5054   257.5812 </r>
       <r>     1.6586    78.0934   261.8469 </r>
       <r>     1.7132    57.7789   265.0029 </r>
       <r>     1.7678    58.4279   268.1944 </r>
       <r>     1.8224    43.9813   270.5968 </r>
       <r>     1.8771    40.2581   272.7958 </r>
       <r>     1.9317    19.2135   273.8453 </r>
       <r>     1.9863    15.8685   274.7121 </r>
       <r>     2.0409    27.6510   276.2224 </r>
       <r>     2.0956    67.0964   279.8874 </r>
       <r>     2.1502   105.8270   285.6680 </r>
       <r>     2.2048   131.2329   292.8363 </r>
       <r>     2.2594   118.2039   299.2929 </r>
       <r>     2.3140   122.3491   305.9759 </r>
       <r>     2.3687   122.0808   312.6443 </r>
       <r>     2.4233   100.5988   318.1393 </r>
       <r>     2.4779    57.6339   321.2874 </r>
       <r>     2.5325    37.4163   323.3312 </r>
       <r>     2.5872    23.5773   324.6190 </r>
       <r>     2.6418    39.5813   326.7811 </r>
       <r>     2.6964    64.4177   330.2997 </r>
       <r>     2.7510    87.7377   335.0922 </r>
       <r>     2.8056    88.8317   339.9444 </r>
       <r>     2.8603   106.4477   345.7589 </r>
       <r>     2.9149    97.9115   351.1071 </r>
       <r>     2.9695    98.6353   356.4948 </r>
       <r>     3.0241   113.2047   362.6783 </r>
       <r>     3.0788   103.7750   368.3468 </r>
       <r>     3.1334    58.2318   371.5276 </r>
       <r>     3.1880    60.7306   374.8449 </r>
       <r>     3.2426    76.4954   379.0233 </r>
       <r>     3.2972   106.9510   384.8652 </r>
       <r>     3.3519   102.4969   390.4639 </r>
       <r>     3.4065    95.0577   395.6561 </r>
       <r>     3.4611    87.7003   400.4465 </r>
       <r>     3.5157    97.6582   405.7809 </r>
       <r>     3.5704    78.3002   410.0579 </r>
       <r>     3.6250    68.6841   413.8096 </r>
       <r>     3.6796    74.6527   417.8873 </r>
       <r>     3.7342    81.0851   422.3163 </r>
       <r>     3.7888    88.0158   427.1240 </r>
       <r>     3.8435    83.2561   431.6717 </r>
       <r>     3.8981    88.9721   436.5316 </r>
       <r>     3.9527    78.6284   440.8265 </r>
       <r>     4.0073    61.7155   444.1976 </r>
       <r>     4.0620    64.8849   447.7417 </r>
       <r>     4.1166    49.3621   450.4380 </r>
       <r>     4.1712    71.4030   454.3382 </r>
       <r>     4.2258    82.3912   458.8386 </r>
       <r>     4.2805    75.0142   462.9361 </r>
       <r>     4.3351    63.5099   466.4052 </r>
       <r>     4.3897    80.6732   470.8118 </r>
       <r>     4.4443    61.8897   474.1923 </r>
       <r>     4.4989    75.2292   478.3016 </r>
       <r>     4.5536    66.9832   481.9604 </r>
       <r>     4.6082    57.7806   485.1165 </r>
       <r>     4.6628    51.4801   487.9285 </r>
       <r>     4.7174    33.2032   489.7421 </r>
       <r>     4.7721    26.2049   491.1735 </r>
       <r>     4.8267    25.0990   492.5445 </r>
       <r>     4.8813    30.8109   494.2275 </r>
       <r>     4.9359    43.0941   496.5814 </r>
       <r>     4.9905    45.6062   499.0725 </r>
       <r>     5.0452    57.0844   502.1906 </r>
       <r>     5.0998    13.4882   502.9274 </r>
       <r>     5.1544    11.6050   503.5613 </r>
       <r>     5.2090     7.7258   503.9833 </r>
       <r>     5.2637     1.8549   504.0846 </r>
       <r>     5.3183     8.1823   504.5315 </r>
       <r>     5.3729    16.5519   505.4356 </r>
       <r>     5.4275    27.0503   506.9132 </r>
       <r>     5.4821    32.5670   508.6921 </r>
       <r>     5.5368    14.7875   509.4998 </r>
       <r>     5.5914    18.2789   510.4983 </r>
       <r>     5.6460     0.3922   510.5197 </r>
       <r>     5.7006    17.1170   511.4547 </r>
       <r>     5.7553     0.8962   511.5036 </r>
       <r>     5.8099     4.5103   511.7500 </r>
       <r>     5.8645     4.4503   511.9931 </r>
       <r>     5.9191     0.1266   512.0000 </r>
       <r>     5.9737     0.0000   512.0000 </r>
       <r>     6.0284     0.0000   512.0000 </r>
       <r>     6.0830     0.0000   512.0000 </r>
       <r>     6.1376     1.0225   512.0559 </r>
       <r>     6.1922    18.3206   513.0566 </r>
       <r>     6.2469    18.0071   514.0402 </r>
       <r>     6.3015    12.5982   514.7283 </r>
       <r>     6.3561    18.2906   515.7274 </r>
       <r>     6.4107    31.9157   517.4707 </r>
       <r>     6.4653    19.6110   518.5419 </r>
       <r>     6.5200    26.6498   519.9976 </r>
       <r>     6.5746    22.1859   521.2094 </r>
       <r>     6.6292     9.8963   521.7500 </r>
       <r>     6.6838    19.7481   522.8287 </r>
       <r>     6.7385    34.4220   524.7089 </r>
       <r>     6.7931    36.2237   526.6875 </r>
       <r>     6.8477    26.2415   528.1209 </r>
       <r>     6.9023    31.3020   529.8307 </r>
       <r>     6.9569    32.5725   531.6099 </r>
       <r>     7.0116    43.4800   533.9849 </r>
       <r>     7.0662    47.5060   536.5798 </r>
       <r>     7.1208    35.9964   538.5460 </r>
       <r>     7.1754    30.5392   540.2142 </r>
       <r>     7.2301    30.2336   541.8656 </r>
       <r>     7.2847    64.5088   545.3893 </r>
       <r>     7.3393    64.0462   548.8876 </r>
       <r>     7.3939    75.5394   553.0138 </r>
       <r>     7.4485    91.4112   558.0069 </r>
       <r>     7.5032    88.2961   562.8299 </r>
       <r>     7.5578    81.1494   567.2625 </r>
       <r>     7.6124    91.0208   572.2343 </r>
       <r>     7.6670    69.6199   576.0371 </r>
       <r>     7.7217    88.6900   580.8816 </r>
       <r>     7.7763   100.4409   586.3679 </r>
       <r>     7.8309    97.3575   591.6858 </r>
       <r>     7.8855    92.3275   596.7290 </r>
       <r>     7.9402    98.3766   602.1026 </r>
       <r>     7.9948    93.7715   607.2246 </r>
       <r>     8.0494    77.9177   611.4807 </r>
       <r>     8.1040    79.4391   615.8198 </r>
       <r>     8.1586    87.7702   620.6141 </r>
       <r>     8.2133    91.7530   625.6259 </r>
       <r>     8.2679    86.3938   630.3450 </r>
       <r>     8.3225    76.0345   634.4982 </r>
       <r>     8.3771    70.3333   638.3400 </r>
       <r>     8.4318    69.8883   642.1575 </r>
       <r>     8.4864    19.7913   643.2386 </r>
       <r>     8.5410     0.7321   643.2786 </r>
       <r>     8.5956     6.1398   643.6139 </r>
       <r>     8.6502     7.0680   644.0000 </r>
       <r>     8.7049     0.0000   644.0000 </r>
       <r>     8.7595     0.0000   644.0000 </r>
       <r>     8.8141     0.0000   644.0000 </r>
       <r>     8.8687     0.0000   644.0000 </r>
       <r>     8.9234     0.0000   644.0000 </r>
       <r>     8.9780     0.0000   644.0000 </r>
       <r>     9.0326     0.0000   644.0000 </r>
       <r>     9.0872     0.0000   644.0000 </r>
       <r>     9.1418     0.0000   644.0000 </r>
       <r>     9.1965     0.0000   644.0000 </r>
       <r>     9.2511     0.0000   644.0000 </r>
       <r>     9.3057     0.0000   644.0000 </r>
       <r>     9.3603     0.0000   644.0000 </r>
      </set>
     </set>
    </array>
   </total>
  </dos>
 </calculation>
 <structure name="finalpos" >
  <crystal>
   <varray name="basis" >
    <v>       0.00000000      10.93733369      10.93733369 </v>
    <v>      10.93733369       0.00000000      10.93733369 </v>
    <v>      10.93733369      10.93733369       0.00000000 </v>
   </varray>
   <i name="volume">   2616.76295363 </i>
   <varray name="rec_basis" >
    <v>      -0.04571498       0.04571498       0.04571498 </v>
    <v>       0.04571498      -0.04571498       0.04571498 </v>
    <v>       0.04571498       0.04571498      -0.04571498 </v>
   </varray>
  </crystal>
  <varray name="positions" >
   <v>       0.00777669       0.99532681       0.00220485 </v>
   <v>       0.24953911       0.99662133       0.00869474 </v>
   <v>       0.50148530       0.01022068       0.99263791 </v>
   <v>       0.75795764       0.99917117       0.99792779 </v>
   <v>       0.00672740       0.25039940       0.99802714 </v>
   <v>       0.25543779       0.24356337       0.00002096 </v>
   <v>       0.48545968       0.25521405       0.00500955 </v>
   <v>       0.74425352       0.24081004       0.99649007 </v>
   <v>       0.99841969       0.49350170       0.99605499 </v>
   <v>       0.25030876       0.49558296       0.99820298 </v>
   <v>       0.49366084       0.49601805       0.99332433 </v>
   <v>       0.74527502       0.50352818       0.00086930 </v>
   <v>       0.00485270       0.74292424       0.98952903 </v>
   <v>       0.24934581       0.73837959       0.00931843 </v>
   <v>       0.49436614       0.75634632       0.00040906 </v>
   <v>       0.74656014       0.74723282       0.99926464 </v>
   <v>       0.01225746       0.98455637       0.25499227 </v>
   <v>       0.25555669       0.98616745       0.25786047 </v>
   <v>       0.50426571       0.00308305       0.25089365 </v>
   <v>       0.75100387       0.99566732       0.25340387 </v>
   <v>       0.00151250       0.25258220       0.24639690 </v>
   <v>       0.24572473       0.23868121       0.25273650 </v>
   <v>       0.49460805       0.25058636       0.25211178 </v>
   <v>       0.76525567       0.24980235       0.23385576 </v>
   <v>       0.00310204       0.49299855       0.24930983 </v>
   <v>       0.24057547       0.50579843       0.24878498 </v>
   <v>       0.50257919       0.49938875       0.24712424 </v>
   <v>       0.74235926       0.49318768       0.26675361 </v>
   <v>       0.99687866       0.75084224       0.25283606 </v>
   <v>       0.25084696       0.74593675       0.25549758 </v>
   <v>       0.49894795       0.74352324       0.25571246 </v>
   <v>       0.75288968       0.73859271       0.25179002 </v>
   <v>       0.99710426       0.01726258       0.49207349 </v>
   <v>       0.24217224       0.00517308       0.49813670 </v>
   <v>       0.51083505       0.99452352       0.49768219 </v>
   <v>       0.75158530       0.00810361       0.48962773 </v>
   <v>       0.00635905       0.25249396       0.49206532 </v>
   <v>       0.25405885       0.24906884       0.50556157 </v>
   <v>       0.49255755       0.24545087       0.51375197 </v>
   <v>       0.75030172       0.25147831       0.50444440 </v>
   <v>       0.99921697       0.50107698       0.50239218 </v>
   <v>       0.25580006       0.50677214       0.49198313 </v>
   <v>       0.49667239       0.49010643       0.50670071 </v>
   <v>       0.74833326       0.50135960       0.49623994 </v>
   <v>       0.99817133       0.73857582       0.50169411 </v>
   <v>       0.24503074       0.74796807       0.50533340 </v>
   <v>       0.49256195       0.74032225       0.50663860 </v>
   <v>       0.74388394       0.75067846       0.50977358 </v>
   <v>       0.99968318       0.00213637       0.75658338 </v>
   <v>       0.24095281       0.00416711       0.74601780 </v>
   <v>       0.49273817       0.01377025       0.73918502 </v>
   <v>       0.74886790       0.00752139       0.73946139 </v>
   <v>       0.99928942       0.25931548       0.73814999 </v>
   <v>       0.25131459       0.25337870       0.74611237 </v>
   <v>       0.49535877       0.25788304       0.75485159 </v>
   <v>       0.73633898       0.25716129       0.75262224 </v>
   <v>       0.99578388       0.51172757       0.75088563 </v>
   <v>       0.24837634       0.49172358       0.74679607 </v>
   <v>       0.49452009       0.50887634       0.74171174 </v>
   <v>       0.75881710       0.49218234       0.75582088 </v>
   <v>       0.00032899       0.74371276       0.74685254 </v>
   <v>       0.25207109       0.73927013       0.76236589 </v>
   <v>       0.49665748       0.75301898       0.74847138 </v>
   <v>       0.74590878       0.76575921       0.74526547 </v>
   <v>       0.05879698       0.06145677       0.05724416 </v>
   <v>       0.31903673       0.06328907       0.05619076 </v>
   <v>       0.56101536       0.04979749       0.07193720 </v>
   <v>       0.81847310       0.05313247       0.06471010 </v>
   <v>       0.07174072       0.31169660       0.05504289 </v>
   <v>       0.30482182       0.31004487       0.06995171 </v>
   <v>       0.55712632       0.31645127       0.06723382 </v>
   <v>       0.81061415       0.30621427       0.05814943 </v>
   <v>       0.06326561       0.56753543       0.05296215 </v>
   <v>       0.31175211       0.55803736       0.06069098 </v>
   <v>       0.56619458       0.55464907       0.06823415 </v>
   <v>       0.80555111       0.55987544       0.06603213 </v>
   <v>       0.06341363       0.80576942       0.06167197 </v>
   <v>       0.31379671       0.81379346       0.05016859 </v>
   <v>       0.56133036       0.80427008       0.05613843 </v>
   <v>       0.80980732       0.81157097       0.07191651 </v>
   <v>       0.05704808       0.06218539       0.32033075 </v>
   <v>       0.30385524       0.06092869       0.31618418 </v>
   <v>       0.57144116       0.06403180       0.29919152 </v>
   <v>       0.80624897       0.06414702       0.31504062 </v>
   <v>       0.06830568       0.31534742       0.30688401 </v>
   <v>       0.31956343       0.30899663       0.30540955 </v>
   <v>       0.56529813       0.31212356       0.32080496 </v>
   <v>       0.81670510       0.30683649       0.31487066 </v>
   <v>       0.05985196       0.57009315       0.32400038 </v>
   <v>       0.31772160       0.55536493       0.31437607 </v>
   <v>       0.55951549       0.55941606       0.31627056 </v>
   <v>       0.81636885       0.55078192       0.30884467 </v>
   <v>       0.06338146       0.80669497       0.31560192 </v>
   <v>       0.31165182       0.81307252       0.30960529 </v>
   <v>       0.55769261       0.81587868       0.31471446 </v>
   <v>       0.80787373       0.82338046       0.31793342 </v>
   <v>       0.06505716       0.05481012       0.56260822 </v>
   <v>       0.30611995       0.07381425       0.54898899 </v>
   <v>       0.55615441       0.06230831       0.56600978 </v>
   <v>       0.81638487       0.06554422       0.55954878 </v>
   <v>       0.05389636       0.32621332       0.55835647 </v>
   <v>       0.31237330       0.31922785       0.56961600 </v>
   <v>       0.56454081       0.30897708       0.56065390 </v>
   <v>       0.81256120       0.30585521       0.57316828 </v>
   <v>       0.05363144       0.56009463       0.56442061 </v>
   <v>       0.31789062       0.55472840       0.56436027 </v>
   <v>       0.56327425       0.56260983       0.55907143 </v>
   <v>       0.80350569       0.56299414       0.56839369 </v>
   <v>       0.06376059       0.82124744       0.55875082 </v>
   <v>       0.31406497       0.80470724       0.57511322 </v>
   <v>       0.55279770       0.81118241       0.56965072 </v>
   <v>       0.82062312       0.80075164       0.56876555 </v>
   <v>       0.06610018       0.06590575       0.81131538 </v>
   <v>       0.31589053       0.07595533       0.79940995 </v>
   <v>       0.56325826       0.05462324       0.81344366 </v>
   <v>       0.82052548       0.05833191       0.81071170 </v>
   <v>       0.06378915       0.30487231       0.81175128 </v>
   <v>       0.32427526       0.31553877       0.81336046 </v>
   <v>       0.56530369       0.29989190       0.81910198 </v>
   <v>       0.80257198       0.32479168       0.81657418 </v>
   <v>       0.05935681       0.56918715       0.80812194 </v>
   <v>       0.31757346       0.56197306       0.81157199 </v>
   <v>       0.56226038       0.55502855       0.81728569 </v>
   <v>       0.81355907       0.57021167       0.81284967 </v>
   <v>       0.04857406       0.82385973       0.81617529 </v>
   <v>       0.31147765       0.81398164       0.81921470 </v>
   <v>       0.56073974       0.80977202       0.80922162 </v>
   <v>       0.80706261       0.82797997       0.81043777 </v>
  </varray>
 </structure>
</modeling>
