potpaw_PBE@./ARUN.APL1ZEROSTATE         
           1
     0.000000   10.937334   10.937334
    10.937334    0.000000   10.937334
    10.937334   10.937334    0.000000
   Si
 128
Direct configuration=     1
   0.00777669  0.99532681  0.00220485
   0.24953911  0.99662133  0.00869474
   0.50148530  0.01022068  0.99263791
   0.75795764  0.99917117  0.99792779
   0.00672740  0.25039940  0.99802714
   0.25543779  0.24356337  0.00002096
   0.48545968  0.25521405  0.00500955
   0.74425352  0.24081004  0.99649007
   0.99841969  0.49350170  0.99605499
   0.25030876  0.49558296  0.99820298
   0.49366084  0.49601805  0.99332433
   0.74527502  0.50352818  0.00086930
   0.00485270  0.74292424  0.98952903
   0.24934581  0.73837959  0.00931843
   0.49436614  0.75634632  0.00040906
   0.74656014  0.74723282  0.99926464
   0.01225746  0.98455637  0.25499227
   0.25555669  0.98616745  0.25786047
   0.50426571  0.00308305  0.25089365
   0.75100387  0.99566732  0.25340387
   0.00151250  0.25258220  0.24639690
   0.24572473  0.23868121  0.25273650
   0.49460805  0.25058636  0.25211178
   0.76525567  0.24980235  0.23385576
   0.00310204  0.49299855  0.24930983
   0.24057547  0.50579843  0.24878498
   0.50257919  0.49938875  0.24712424
   0.74235926  0.49318768  0.26675361
   0.99687866  0.75084224  0.25283606
   0.25084696  0.74593675  0.25549758
   0.49894795  0.74352324  0.25571246
   0.75288968  0.73859271  0.25179002
   0.99710426  0.01726258  0.49207349
   0.24217224  0.00517308  0.49813670
   0.51083505  0.99452352  0.49768219
   0.75158530  0.00810361  0.48962773
   0.00635905  0.25249396  0.49206532
   0.25405885  0.24906884  0.50556157
   0.49255755  0.24545087  0.51375197
   0.75030172  0.25147831  0.50444440
   0.99921697  0.50107698  0.50239218
   0.25580006  0.50677214  0.49198313
   0.49667239  0.49010643  0.50670071
   0.74833326  0.50135960  0.49623994
   0.99817133  0.73857582  0.50169411
   0.24503074  0.74796807  0.50533340
   0.49256195  0.74032225  0.50663860
   0.74388394  0.75067846  0.50977358
   0.99968318  0.00213637  0.75658338
   0.24095281  0.00416711  0.74601780
   0.49273817  0.01377025  0.73918502
   0.74886790  0.00752139  0.73946139
   0.99928942  0.25931548  0.73814999
   0.25131459  0.25337870  0.74611237
   0.49535877  0.25788304  0.75485159
   0.73633898  0.25716129  0.75262224
   0.99578388  0.51172757  0.75088563
   0.24837634  0.49172358  0.74679607
   0.49452009  0.50887634  0.74171174
   0.75881710  0.49218234  0.75582088
   0.00032899  0.74371276  0.74685254
   0.25207109  0.73927013  0.76236589
   0.49665748  0.75301898  0.74847138
   0.74590878  0.76575921  0.74526547
   0.05879698  0.06145677  0.05724416
   0.31903673  0.06328907  0.05619076
   0.56101536  0.04979749  0.07193720
   0.81847310  0.05313247  0.06471010
   0.07174072  0.31169660  0.05504289
   0.30482182  0.31004487  0.06995171
   0.55712632  0.31645127  0.06723382
   0.81061415  0.30621427  0.05814943
   0.06326561  0.56753543  0.05296215
   0.31175211  0.55803736  0.06069098
   0.56619458  0.55464907  0.06823415
   0.80555111  0.55987544  0.06603213
   0.06341363  0.80576942  0.06167197
   0.31379671  0.81379346  0.05016859
   0.56133036  0.80427008  0.05613843
   0.80980732  0.81157097  0.07191651
   0.05704808  0.06218539  0.32033075
   0.30385524  0.06092869  0.31618418
   0.57144116  0.06403180  0.29919152
   0.80624897  0.06414702  0.31504062
   0.06830568  0.31534742  0.30688401
   0.31956343  0.30899663  0.30540955
   0.56529813  0.31212356  0.32080496
   0.81670510  0.30683649  0.31487066
   0.05985196  0.57009315  0.32400038
   0.31772160  0.55536493  0.31437607
   0.55951549  0.55941606  0.31627056
   0.81636885  0.55078192  0.30884467
   0.06338146  0.80669497  0.31560192
   0.31165182  0.81307252  0.30960529
   0.55769261  0.81587868  0.31471446
   0.80787373  0.82338046  0.31793342
   0.06505716  0.05481012  0.56260822
   0.30611995  0.07381425  0.54898899
   0.55615441  0.06230831  0.56600978
   0.81638487  0.06554422  0.55954878
   0.05389636  0.32621332  0.55835647
   0.31237330  0.31922785  0.56961600
   0.56454081  0.30897708  0.56065390
   0.81256120  0.30585521  0.57316828
   0.05363144  0.56009463  0.56442061
   0.31789062  0.55472840  0.56436027
   0.56327425  0.56260983  0.55907143
   0.80350569  0.56299414  0.56839369
   0.06376059  0.82124744  0.55875082
   0.31406497  0.80470724  0.57511322
   0.55279770  0.81118241  0.56965072
   0.82062312  0.80075164  0.56876555
   0.06610018  0.06590575  0.81131538
   0.31589053  0.07595533  0.79940995
   0.56325826  0.05462324  0.81344366
   0.82052548  0.05833191  0.81071170
   0.06378915  0.30487231  0.81175128
   0.32427526  0.31553877  0.81336046
   0.56530369  0.29989190  0.81910198
   0.80257198  0.32479168  0.81657418
   0.05935681  0.56918715  0.80812194
   0.31757346  0.56197306  0.81157199
   0.56226038  0.55502855  0.81728569
   0.81355907  0.57021167  0.81284967
   0.04857406  0.82385973  0.81617529
   0.31147765  0.81398164  0.81921470
   0.56073974  0.80977202  0.80922162
   0.80706261  0.82797997  0.81043777
