 128 128   0   0
  0.2044346E+02  0.1546773E-08  0.1546773E-08  0.1546773E-08  0.5000000E-15
  1.000000000000000E-004
  CAR 
 potpaw_PBE@./ARUN.APL1ZEROSTATE         
      9.32784307     -7.04679019  301      5.90281562      1.00000000
     -7.047  0.0000E+00  0.0000E+00
     -6.992  0.0000E+00  0.0000E+00
     -6.938  0.0000E+00  0.0000E+00
     -6.883  0.0000E+00  0.0000E+00
     -6.828  0.0000E+00  0.0000E+00
     -6.774  0.0000E+00  0.0000E+00
     -6.719  0.0000E+00  0.0000E+00
     -6.665  0.0000E+00  0.0000E+00
     -6.610  0.0000E+00  0.0000E+00
     -6.556  0.0000E+00  0.0000E+00
     -6.501  0.0000E+00  0.0000E+00
     -6.446  0.0000E+00  0.0000E+00
     -6.392  0.0000E+00  0.0000E+00
     -6.337  0.2063E-05  0.1126E-06
     -6.283  0.4569E+01  0.2494E+00
     -6.228  0.1145E-01  0.2500E+00
     -6.173  0.6669E+00  0.2864E+00
     -6.119  0.1757E+02  0.1245E+01
     -6.064  0.2502E+02  0.2611E+01
     -6.010  0.2049E+02  0.3729E+01
     -5.955  0.3805E+00  0.3750E+01
     -5.901  0.7485E-03  0.3750E+01
     -5.846  0.1321E+02  0.4471E+01
     -5.791  0.7993E+00  0.4515E+01
     -5.737  0.2592E+02  0.5930E+01
     -5.682  0.3508E+02  0.7844E+01
     -5.628  0.2584E+02  0.9255E+01
     -5.573  0.2682E+02  0.1072E+02
     -5.518  0.2758E+02  0.1222E+02
     -5.464  0.1821E+02  0.1322E+02
     -5.409  0.2344E+02  0.1450E+02
     -5.355  0.4632E+01  0.1475E+02
     -5.300  0.6264E+01  0.1509E+02
     -5.246  0.8135E+01  0.1554E+02
     -5.191  0.2449E+02  0.1687E+02
     -5.136  0.3670E+02  0.1888E+02
     -5.082  0.3741E+02  0.2092E+02
     -5.027  0.3702E+02  0.2294E+02
     -4.973  0.4120E+02  0.2519E+02
     -4.918  0.3967E+02  0.2735E+02
     -4.864  0.2297E+02  0.2861E+02
     -4.809  0.1986E+02  0.2969E+02
     -4.754  0.2424E+02  0.3101E+02
     -4.700  0.2867E+02  0.3258E+02
     -4.645  0.4497E+02  0.3503E+02
     -4.591  0.2824E+02  0.3657E+02
     -4.536  0.4202E+02  0.3887E+02
     -4.481  0.3820E+02  0.4095E+02
     -4.427  0.1466E+02  0.4175E+02
     -4.372  0.2497E+02  0.4312E+02
     -4.318  0.2719E+02  0.4460E+02
     -4.263  0.4359E+02  0.4698E+02
     -4.209  0.4835E+02  0.4962E+02
     -4.154  0.6841E+02  0.5335E+02
     -4.099  0.5198E+02  0.5619E+02
     -4.045  0.5322E+02  0.5909E+02
     -3.990  0.5655E+02  0.6218E+02
     -3.936  0.3597E+02  0.6414E+02
     -3.881  0.4215E+02  0.6644E+02
     -3.826  0.6282E+02  0.6987E+02
     -3.772  0.5708E+02  0.7299E+02
     -3.717  0.4707E+02  0.7556E+02
     -3.663  0.3292E+02  0.7735E+02
     -3.608  0.3543E+02  0.7929E+02
     -3.554  0.2760E+02  0.8080E+02
     -3.499  0.4427E+02  0.8321E+02
     -3.444  0.5358E+02  0.8614E+02
     -3.390  0.5083E+02  0.8891E+02
     -3.335  0.6451E+02  0.9243E+02
     -3.281  0.3448E+02  0.9431E+02
     -3.226  0.3409E+02  0.9617E+02
     -3.171  0.3731E+02  0.9821E+02
     -3.117  0.2765E+02  0.9972E+02
     -3.062  0.5515E+02  0.1027E+03
     -3.008  0.4145E+02  0.1050E+03
     -2.953  0.3418E+02  0.1069E+03
     -2.899  0.4527E+02  0.1093E+03
     -2.844  0.3789E+02  0.1114E+03
     -2.789  0.3762E+02  0.1134E+03
     -2.735  0.2689E+02  0.1149E+03
     -2.680  0.4149E+02  0.1172E+03
     -2.626  0.2937E+02  0.1188E+03
     -2.571  0.3754E+02  0.1208E+03
     -2.516  0.1684E+02  0.1218E+03
     -2.462  0.1730E+02  0.1227E+03
     -2.407  0.9607E+00  0.1228E+03
     -2.353  0.6006E+01  0.1231E+03
     -2.298  0.3631E+01  0.1233E+03
     -2.244  0.1846E+02  0.1243E+03
     -2.189  0.1885E+02  0.1253E+03
     -2.134  0.2477E+02  0.1267E+03
     -2.080  0.3017E+02  0.1283E+03
     -2.025  0.1988E+02  0.1294E+03
     -1.971  0.1995E+02  0.1305E+03
     -1.916  0.1950E+02  0.1316E+03
     -1.861  0.1514E+02  0.1324E+03
     -1.807  0.1142E+02  0.1330E+03
     -1.752  0.1692E+00  0.1330E+03
     -1.698  0.7892E+01  0.1334E+03
     -1.643  0.7660E+01  0.1339E+03
     -1.589  0.2351E+02  0.1351E+03
     -1.534  0.3793E+02  0.1372E+03
     -1.479  0.2857E+02  0.1388E+03
     -1.425  0.3870E+02  0.1409E+03
     -1.370  0.4476E+02  0.1433E+03
     -1.316  0.4615E+02  0.1458E+03
     -1.261  0.6731E+02  0.1495E+03
     -1.207  0.6155E+02  0.1529E+03
     -1.152  0.6513E+02  0.1564E+03
     -1.097  0.6752E+02  0.1601E+03
     -1.043  0.6525E+02  0.1637E+03
     -0.988  0.7134E+02  0.1676E+03
     -0.934  0.7295E+02  0.1716E+03
     -0.879  0.6488E+02  0.1751E+03
     -0.824  0.6103E+02  0.1784E+03
     -0.770  0.4044E+02  0.1806E+03
     -0.715  0.4915E+02  0.1833E+03
     -0.661  0.4773E+02  0.1859E+03
     -0.606  0.2954E+02  0.1875E+03
     -0.552  0.1808E+02  0.1885E+03
     -0.497  0.2093E+02  0.1897E+03
     -0.442  0.2450E+02  0.1910E+03
     -0.388  0.3741E+02  0.1930E+03
     -0.333  0.4557E+02  0.1955E+03
     -0.279  0.4923E+02  0.1982E+03
     -0.224  0.4344E+02  0.2006E+03
     -0.169  0.5551E+02  0.2036E+03
     -0.115  0.4779E+02  0.2062E+03
     -0.060  0.4755E+02  0.2088E+03
     -0.006  0.3425E+02  0.2107E+03
      0.049  0.3064E+02  0.2124E+03
      0.103  0.2078E+02  0.2135E+03
      0.158  0.9187E+01  0.2140E+03
      0.213  0.1299E+02  0.2147E+03
      0.267  0.1906E+02  0.2158E+03
      0.322  0.2840E+02  0.2173E+03
      0.376  0.1211E+02  0.2180E+03
      0.431  0.2648E+02  0.2194E+03
      0.486  0.1982E+02  0.2205E+03
      0.540  0.3406E+02  0.2223E+03
      0.595  0.1236E+02  0.2230E+03
      0.649  0.1939E+02  0.2241E+03
      0.704  0.2015E+02  0.2252E+03
      0.758  0.2422E+02  0.2265E+03
      0.813  0.1826E+02  0.2275E+03
      0.868  0.4664E+01  0.2278E+03
      0.922  0.2158E+02  0.2289E+03
      0.977  0.2519E+02  0.2303E+03
      1.031  0.2096E+02  0.2315E+03
      1.086  0.2802E+02  0.2330E+03
      1.141  0.2922E+02  0.2346E+03
      1.195  0.1561E+02  0.2354E+03
      1.250  0.2444E+02  0.2368E+03
      1.304  0.3736E+02  0.2388E+03
      1.359  0.3285E+02  0.2406E+03
      1.413  0.3156E+02  0.2423E+03
      1.468  0.5109E+02  0.2451E+03
      1.523  0.8721E+02  0.2499E+03
      1.577  0.8255E+02  0.2544E+03
      1.632  0.9658E+02  0.2596E+03
      1.686  0.7253E+02  0.2636E+03
      1.741  0.5672E+02  0.2667E+03
      1.796  0.5427E+02  0.2697E+03
      1.850  0.4186E+02  0.2719E+03
      1.905  0.2261E+02  0.2732E+03
      1.959  0.1830E+02  0.2742E+03
      2.014  0.4025E+02  0.2764E+03
      2.068  0.5259E+02  0.2792E+03
      2.123  0.7867E+02  0.2835E+03
      2.178  0.1011E+03  0.2891E+03
      2.232  0.1144E+03  0.2953E+03
      2.287  0.1254E+03  0.3021E+03
      2.341  0.1232E+03  0.3089E+03
      2.396  0.1059E+03  0.3147E+03
      2.450  0.8209E+02  0.3191E+03
      2.505  0.5791E+02  0.3223E+03
      2.560  0.3398E+02  0.3242E+03
      2.614  0.3519E+02  0.3261E+03
      2.669  0.5052E+02  0.3288E+03
      2.723  0.7510E+02  0.3329E+03
      2.778  0.8782E+02  0.3377E+03
      2.833  0.1100E+03  0.3437E+03
      2.887  0.8463E+02  0.3483E+03
      2.942  0.9431E+02  0.3535E+03
      2.996  0.9912E+02  0.3589E+03
      3.051  0.9976E+02  0.3643E+03
      3.105  0.8135E+02  0.3688E+03
      3.160  0.7974E+02  0.3731E+03
      3.215  0.7965E+02  0.3775E+03
      3.269  0.8484E+02  0.3821E+03
      3.324  0.1053E+03  0.3879E+03
      3.378  0.9839E+02  0.3932E+03
      3.433  0.9750E+02  0.3986E+03
      3.488  0.7886E+02  0.4029E+03
      3.542  0.7281E+02  0.4068E+03
      3.597  0.8271E+02  0.4114E+03
      3.651  0.7098E+02  0.4152E+03
      3.706  0.6776E+02  0.4189E+03
      3.760  0.9445E+02  0.4241E+03
      3.815  0.9105E+02  0.4291E+03
      3.870  0.6674E+02  0.4327E+03
      3.924  0.7942E+02  0.4370E+03
      3.979  0.6801E+02  0.4407E+03
      4.033  0.6213E+02  0.4441E+03
      4.088  0.6683E+02  0.4478E+03
      4.143  0.8069E+02  0.4522E+03
      4.197  0.7221E+02  0.4561E+03
      4.252  0.7464E+02  0.4602E+03
      4.306  0.5996E+02  0.4635E+03
      4.361  0.7000E+02  0.4673E+03
      4.415  0.7972E+02  0.4716E+03
      4.470  0.6256E+02  0.4751E+03
      4.525  0.8173E+02  0.4795E+03
      4.579  0.6900E+02  0.4833E+03
      4.634  0.5377E+02  0.4862E+03
      4.688  0.4902E+02  0.4889E+03
      4.743  0.3502E+02  0.4908E+03
      4.798  0.1354E+02  0.4915E+03
      4.852  0.2268E+02  0.4928E+03
      4.907  0.3872E+02  0.4949E+03
      4.961  0.3061E+02  0.4966E+03
      5.016  0.3937E+02  0.4987E+03
      5.070  0.4982E+02  0.5014E+03
      5.125  0.2850E+02  0.5030E+03
      5.180  0.1243E+02  0.5037E+03
      5.234  0.6006E+01  0.5040E+03
      5.289  0.9157E+01  0.5045E+03
      5.343  0.9813E+01  0.5050E+03
      5.398  0.1779E+02  0.5060E+03
      5.453  0.2938E+02  0.5076E+03
      5.507  0.2503E+02  0.5090E+03
      5.562  0.2720E+02  0.5105E+03
      5.616  0.1113E+02  0.5111E+03
      5.671  0.7888E+01  0.5115E+03
      5.725  0.2802E-01  0.5115E+03
      5.780  0.4190E+01  0.5117E+03
      5.835  0.5050E+00  0.5118E+03
      5.889  0.4465E+01  0.5120E+03
      5.944  0.0000E+00  0.5120E+03
      5.998  0.0000E+00  0.5120E+03
      6.053  0.0000E+00  0.5120E+03
      6.107  0.4868E+00  0.5120E+03
      6.162  0.1778E+02  0.5130E+03
      6.217  0.1293E+02  0.5137E+03
      6.271  0.1530E+02  0.5145E+03
      6.326  0.1310E+02  0.5153E+03
      6.380  0.2942E+02  0.5169E+03
      6.435  0.3221E+02  0.5186E+03
      6.490  0.1277E+02  0.5193E+03
      6.544  0.2715E+02  0.5208E+03
      6.599  0.1427E+02  0.5216E+03
      6.653  0.2153E+02  0.5227E+03
      6.708  0.1169E+02  0.5234E+03
      6.762  0.4100E+02  0.5256E+03
      6.817  0.3756E+02  0.5277E+03
      6.872  0.3054E+02  0.5293E+03
      6.926  0.2391E+02  0.5306E+03
      6.981  0.5245E+02  0.5335E+03
      7.035  0.3676E+02  0.5355E+03
      7.090  0.4310E+02  0.5379E+03
      7.145  0.2655E+02  0.5393E+03
      7.199  0.2525E+02  0.5407E+03
      7.254  0.4257E+02  0.5430E+03
      7.308  0.6801E+02  0.5467E+03
      7.363  0.7299E+02  0.5507E+03
      7.417  0.9047E+02  0.5557E+03
      7.472  0.7935E+02  0.5600E+03
      7.527  0.8465E+02  0.5646E+03
      7.581  0.7990E+02  0.5690E+03
      7.636  0.7201E+02  0.5729E+03
      7.690  0.9673E+02  0.5782E+03
      7.745  0.1069E+03  0.5840E+03
      7.800  0.8968E+02  0.5889E+03
      7.854  0.9853E+02  0.5943E+03
      7.909  0.7737E+02  0.5985E+03
      7.963  0.1005E+03  0.6040E+03
      8.018  0.1006E+03  0.6095E+03
      8.072  0.7441E+02  0.6135E+03
      8.127  0.8941E+02  0.6184E+03
      8.182  0.7709E+02  0.6226E+03
      8.236  0.8285E+02  0.6272E+03
      8.291  0.8831E+02  0.6320E+03
      8.345  0.8351E+02  0.6365E+03
      8.400  0.7241E+02  0.6405E+03
      8.455  0.4585E+02  0.6430E+03
      8.509  0.4744E+01  0.6433E+03
      8.564  0.5437E+01  0.6435E+03
      8.618  0.8275E+01  0.6440E+03
      8.673  0.0000E+00  0.6440E+03
      8.727  0.0000E+00  0.6440E+03
      8.782  0.0000E+00  0.6440E+03
      8.837  0.0000E+00  0.6440E+03
      8.891  0.0000E+00  0.6440E+03
      8.946  0.0000E+00  0.6440E+03
      9.000  0.0000E+00  0.6440E+03
      9.055  0.0000E+00  0.6440E+03
      9.110  0.0000E+00  0.6440E+03
      9.164  0.0000E+00  0.6440E+03
      9.219  0.0000E+00  0.6440E+03
      9.273  0.0000E+00  0.6440E+03
      9.328  0.0000E+00  0.6440E+03
