       N       E                     dE             d eps       ncg     rms          rms(c)
DAV:   1     0.138300741852E+04    0.13830E+04   -0.19081E+05  5152   0.127E+03
DAV:   2    -0.537686258319E+03   -0.19207E+04   -0.18271E+04  6120   0.187E+02
DAV:   3    -0.687132304051E+03   -0.14945E+03   -0.14644E+03  6288   0.454E+01
DAV:   4    -0.691328773121E+03   -0.41965E+01   -0.41615E+01  6192   0.919E+00
DAV:   5    -0.691471740288E+03   -0.14297E+00   -0.14254E+00  6296   0.163E+00    0.240E+01
DAV:   6    -0.683095086520E+03    0.83767E+01   -0.56926E+00  5912   0.293E+00    0.142E+01
DAV:   7    -0.679552993193E+03    0.35421E+01   -0.10912E+01  5760   0.396E+00    0.152E+00
DAV:   8    -0.679613204864E+03   -0.60212E-01   -0.98945E-01  5840   0.146E+00    0.584E-01
DAV:   9    -0.679634227395E+03   -0.21023E-01   -0.92370E-02  6144   0.448E-01    0.269E-01
DAV:  10    -0.679636809414E+03   -0.25820E-02   -0.86096E-03  5984   0.130E-01    0.981E-02
DAV:  11    -0.679638035121E+03   -0.12257E-02   -0.18749E-03  5832   0.644E-02    0.344E-02
DAV:  12    -0.679638113796E+03   -0.78675E-04   -0.40108E-04  6152   0.283E-02    0.176E-02
DAV:  13    -0.679638137564E+03   -0.23768E-04   -0.99824E-05  5760   0.148E-02    0.543E-03
DAV:  14    -0.679638143356E+03   -0.57921E-05   -0.90490E-06  6208   0.407E-03    0.161E-03
DAV:  15    -0.679638145561E+03   -0.22052E-05   -0.13472E-06  6128   0.186E-03    0.628E-04
DAV:  16    -0.679638145290E+03    0.27049E-06   -0.22458E-07  5992   0.711E-04    0.241E-04
DAV:  17    -0.679638145253E+03    0.37035E-07   -0.28105E-08  4064   0.257E-04    0.141E-04
DAV:  18    -0.679638145328E+03   -0.74928E-07   -0.71892E-09  3336   0.136E-04    0.693E-05
DAV:  19    -0.679638145299E+03    0.28956E-07   -0.17051E-09  3264   0.727E-05    0.536E-05
DAV:  20    -0.679638145305E+03   -0.55425E-08   -0.54417E-10  3168   0.344E-05
   1 F= -.67963815E+03 E0= -.67963815E+03  d E =-.101261E-15
