 vasp.5.4.4.18Apr17-6-g9f103f2a35 (build Nov 08 2017 09:05:29) complex          
  
 executed on          Intel_17.33 date 2020.07.18  21:53:28
 running on   32 total cores
 distrk:  each k-point on   32 cores,    1 groups
 distr:  one band on NCORES_PER_BAND=  16 cores,    2 groups


--------------------------------------------------------------------------------------------------------


 INCAR:
 POTCAR:   PAW_PBE Si 05Jan2001                   

 ----------------------------------------------------------------------------- 
|                                                                             |
|           W    W    AA    RRRRR   N    N  II  N    N   GGGG   !!!           |
|           W    W   A  A   R    R  NN   N  II  NN   N  G    G  !!!           |
|           W    W  A    A  R    R  N N  N  II  N N  N  G       !!!           |
|           W WW W  AAAAAA  RRRRR   N  N N  II  N  N N  G  GGG   !            |
|           WW  WW  A    A  R   R   N   NN  II  N   NN  G    G                |
|           W    W  A    A  R    R  N    N  II  N    N   GGGG   !!!           |
|                                                                             |
|      For optimal performance we recommend to set                            |
|        NCORE= 4 - approx SQRT( number of cores)                             |
|      NCORE specifies how many cores store one orbital (NPAR=cpu/NCORE).     |
|      This setting can  greatly improve the performance of VASP for DFT.     |
|      The default,   NCORE=1            might be grossly inefficient         |
|      on modern multi-core architectures or massively parallel machines.     |
|      Do your own testing !!!!                                               |
|      Unfortunately you need to use the default for GW and RPA calculations. |
|      (for HF NCORE is supported but not extensively tested yet)             |
|                                                                             |
 ----------------------------------------------------------------------------- 

 POTCAR:   PAW_PBE Si 05Jan2001                   
   VRHFIN =Si: s2p2                                                             
   LEXCH  = PE                                                                  
   EATOM  =   103.0669 eV,    7.5752 Ry                                         
                                                                                
   TITEL  = PAW_PBE Si 05Jan2001                                                
   LULTRA =        F    use ultrasoft PP ?                                      
   IUNSCR =        1    unscreen: 0-lin 1-nonlin 2-no                           
   RPACOR =    1.500    partial core radius                                     
   POMASS =   28.085; ZVAL   =    4.000    mass and valenz                      
   RCORE  =    1.900    outmost cutoff radius                                   
   RWIGS  =    2.480; RWIGS  =    1.312    wigner-seitz radius (au A)           
   ENMAX  =  245.345; ENMIN  =  184.009 eV                                      
   ICORE  =        2    local potential                                         
   LCOR   =        T    correct aug charges                                     
   LPAW   =        T    paw PP                                                  
   EAUG   =  322.069                                                            
   DEXC   =    -.007                                                            
   RMAX   =    2.944    core radius for proj-oper                               
   RAUG   =    1.300    factor for augmentation sphere                          
   RDEP   =    1.993    radius for radial grids                                 
   QCUT   =   -4.246; QGAM   =    8.493    optimization parameters              
                                                                                
   Description                                                                  
     l     E      TYP  RCUT    TYP  RCUT                                        
     0   .000     23  1.900                                                     
     0   .000     23  1.900                                                     
     1   .000     23  1.900                                                     
     1   .000     23  1.900                                                     
     2   .000      7  1.900                                                     
  local pseudopotential read in
  partial core-charges read in
  atomic valenz-charges read in
  non local Contribution for L=           0  read in
    real space projection operators read in
  non local Contribution for L=           0  read in
    real space projection operators read in
  non local Contribution for L=           1  read in
    real space projection operators read in
  non local Contribution for L=           1  read in
    real space projection operators read in
    PAW grid and wavefunctions read in
 
   number of l-projection  operators is LMAX  =           4
   number of lm-projection operators is LMMAX =           8
 

 ----------------------------------------------------------------------------- 
|                                                                             |
|  ADVICE TO THIS USER RUNNING 'VASP/VAMP'   (HEAR YOUR MASTER'S VOICE ...):  |
|                                                                             |
|      You have a (more or less) 'large supercell' and for larger cells       |
|      it might be more efficient to use real space projection operators      |
|      So try LREAL= Auto  in the INCAR   file.                               |
|      Mind: If you want to do a very accurate calculations keep the          |
|      reciprocal projection scheme          (i.e. LREAL=.FALSE.)             |
|                                                                             |
 ----------------------------------------------------------------------------- 

 PAW_PBE Si 05Jan2001                   :
 energy of atom  1       EATOM= -103.0669
 kinetic energy error for atom=    0.0006 (will be added to EATOM!!)
 
 
 POSCAR: kk                                      
  positions in direct lattice
  No initial velocities read in
 exchange correlation table for  LEXCH =        8
   RHO(1)=    0.500       N(1)  =     2000
   RHO(2)=  100.500       N(2)  =     4000
 


--------------------------------------------------------------------------------------------------------


 ion  position               nearest neighbor table
   1  0.996  0.001  0.003-  65 2.36  77 2.37  68 2.39 113 2.39
   2  0.254  0.001  0.995- 114 2.30  78 2.36  66 2.40  65 2.51
   3  0.505  0.001  0.992- 115 2.31  67 2.32  66 2.37  79 2.60
   4  0.752  0.005  0.997- 116 2.36  68 2.37  67 2.40  80 2.48
   5  0.003  0.245  0.012-  72 2.25  65 2.28  69 2.34 117 2.67
   6  0.249  0.248  0.001-  69 2.26  66 2.31 118 2.39  70 2.46
   7  0.504  0.252  0.000-  71 2.32 119 2.49  70 2.50  67 2.50
   8  0.754  0.253  0.998-  72 2.31 120 2.32  68 2.43  71 2.45
   9  0.998  0.510  0.999-  76 2.18 121 2.21  73 2.37  69 2.51
  10  0.253  0.502  0.997- 122 2.29  73 2.36  74 2.38  70 2.41
  11  0.506  0.496  0.009-  75 2.23  71 2.24  74 2.51 123 2.54
  12  0.742  0.504  0.006-  75 2.21 124 2.41  76 2.47  72 2.59
  13  0.006  0.754  0.998-  77 2.19 125 2.31  80 2.46  73 2.60
  14  0.248  0.749  0.010-  78 2.24  74 2.27  77 2.46 126 2.56
  15  0.495  0.747  1.000-  75 2.33 127 2.34  79 2.39  78 2.43
  16  0.753  0.742  0.002-  76 2.24  80 2.41  79 2.42 128 2.44
  17  0.007  0.989  0.255-  93 2.33  81 2.38  65 2.40  84 2.47
  18  0.250  0.004  0.255-  81 2.28  82 2.28  94 2.43  66 2.50
  19  0.507  0.998  0.251-  83 2.36  67 2.36  82 2.39  95 2.43
  20  0.756  0.001  0.246-  68 2.18  96 2.37  84 2.46  83 2.50
  21  0.001  0.253  0.241-  69 2.23  85 2.42  88 2.45  81 2.49
  22  0.262  0.249  0.252-  70 2.26  82 2.31  86 2.33  85 2.36
  23  0.490  0.250  0.262-  86 2.27  83 2.38  87 2.39  71 2.56
  24  0.745  0.248  0.250-  87 2.32  84 2.36  72 2.39  88 2.43
  25  0.007  0.492  0.252-  73 2.22  85 2.24  89 2.36  92 2.39
  26  0.241  0.512  0.244-  74 2.29  90 2.34  89 2.34  86 2.37
  27  0.505  0.490  0.256-  87 2.30  91 2.34  75 2.49  90 2.60
  28  0.751  0.508  0.259-  92 2.25  88 2.38  91 2.46  76 2.56
  29  0.008  0.743  0.254-  89 2.21  93 2.22  77 2.40  96 2.43
  30  0.251  0.748  0.261-  90 2.18  94 2.19  93 2.30  78 2.48
  31  0.494  0.749  0.271-  95 2.21  91 2.29  94 2.29  79 2.50
  32  0.741  0.747  0.246-  95 2.18  80 2.27  92 2.42  96 2.53
  33  0.997  0.994  0.505-  81 2.42 109 2.45  97 2.56 100 2.57
  34  0.259  0.998  0.501-  98 2.36  97 2.41 110 2.41  82 2.49
  35  0.496  0.008  0.502-  83 2.26  98 2.35  99 2.39 111 2.45
  36  0.748  0.002  0.493-  84 2.16 100 2.25  99 2.34 112 2.38
  37  0.996  0.263  0.500- 101 2.23 104 2.50  97 2.53  85 2.59
  38  0.244  0.253  0.504- 101 2.22  98 2.33 102 2.40  86 2.45
  39  0.502  0.253  0.500- 103 2.23  87 2.25 102 2.26  99 2.39
  40  0.751  0.246  0.509- 104 2.21 100 2.30 103 2.40  88 2.55
  41  0.008  0.498  0.491-  89 2.25 105 2.41 101 2.45 108 2.46
  42  0.260  0.503  0.485-  90 2.30 105 2.40 106 2.42 102 2.46
  43  0.500  0.499  0.490-  91 2.31 103 2.33 106 2.35 107 2.47
  44  0.751  0.502  0.506- 104 2.32  92 2.34 108 2.35 107 2.56
  45  0.988  0.752  0.510- 109 2.20 112 2.31 105 2.43  93 2.58
  46  0.243  0.754  0.502- 109 2.37  94 2.47 106 2.47 110 2.52
  47  0.509  0.745  0.493-  95 2.26 107 2.27 110 2.30 111 2.44
  48  0.749  0.747  0.498- 108 2.25 111 2.28 112 2.36  96 2.45
  49  0.994  0.004  0.753-  97 2.35 125 2.36 116 2.37 113 2.43
  50  0.249  0.992  0.752- 113 2.32 126 2.33  98 2.36 114 2.41
  51  0.504  0.994  0.749- 127 2.29  99 2.30 115 2.32 114 2.33
  52  0.750  0.007  0.748- 116 2.28 115 2.32 100 2.37 128 2.53
  53  0.001  0.257  0.754- 117 2.21 120 2.33 101 2.45 113 2.45
  54  0.248  0.244  0.760- 117 2.34 118 2.37 114 2.42 102 2.56
  55  0.500  0.253  0.748- 118 2.25 119 2.29 103 2.43 115 2.54
  56  0.737  0.263  0.742- 119 2.24 104 2.26 116 2.46 120 2.51
  57  0.003  0.501  0.752- 117 2.27 121 2.28 105 2.45 124 2.46
  58  0.244  0.512  0.747- 106 2.30 121 2.33 122 2.40 118 2.62
  59  0.509  0.495  0.751- 119 2.21 107 2.33 123 2.44 122 2.70
  60  0.738  0.496  0.763- 123 2.19 124 2.27 120 2.40 108 2.55
  61  0.001  0.749  0.742- 109 2.21 128 2.32 125 2.44 121 2.54
  62  0.235  0.761  0.752- 122 2.27 125 2.30 110 2.41 126 2.42
  63  0.498  0.747  0.757- 123 2.20 126 2.24 127 2.38 111 2.55
  64  0.749  0.753  0.741- 112 2.26 127 2.35 128 2.42 124 2.54
  65  0.055  0.066  0.066-   5 2.28   1 2.36  17 2.40   2 2.51
  66  0.317  0.065  0.057-   6 2.31   3 2.37   2 2.40  18 2.50
  67  0.563  0.054  0.064-   3 2.32  19 2.36   4 2.40   7 2.50
  68  0.807  0.061  0.073-  20 2.18   4 2.37   1 2.39   8 2.43
  69  0.070  0.311  0.065-  21 2.23   6 2.26   5 2.34   9 2.51
  70  0.306  0.312  0.074-  22 2.26  10 2.41   6 2.46   7 2.50
  71  0.560  0.320  0.059-  11 2.24   7 2.32   8 2.45  23 2.56
  72  0.826  0.300  0.062-   5 2.25   8 2.31  24 2.39  12 2.59
  73  0.068  0.548  0.077-  25 2.22  10 2.36   9 2.37  13 2.60
  74  0.308  0.569  0.063-  14 2.27  26 2.29  10 2.38  11 2.51
  75  0.567  0.563  0.058-  12 2.21  11 2.23  15 2.33  27 2.49
  76  0.825  0.565  0.056-   9 2.18  16 2.24  12 2.47  28 2.56
  77  0.053  0.813  0.065-  13 2.19   1 2.37  29 2.40  14 2.46
  78  0.303  0.815  0.065-  14 2.24   2 2.36  15 2.43  30 2.48
  79  0.561  0.796  0.074-  15 2.39  16 2.42  31 2.50   3 2.60
  80  0.812  0.809  0.067-  32 2.27  16 2.41  13 2.46   4 2.48
  81  0.069  0.056  0.314-  18 2.28  17 2.38  33 2.42  21 2.49
  82  0.318  0.066  0.304-  18 2.28  22 2.31  19 2.39  34 2.49
  83  0.558  0.061  0.324-  35 2.26  19 2.36  23 2.38  20 2.50
  84  0.812  0.061  0.323-  36 2.16  24 2.36  20 2.46  17 2.47
  85  0.076  0.316  0.295-  25 2.24  22 2.36  21 2.42  37 2.59
  86  0.312  0.324  0.310-  23 2.27  22 2.33  26 2.37  38 2.45
  87  0.561  0.308  0.321-  39 2.25  27 2.30  24 2.32  23 2.39
  88  0.807  0.321  0.307-  28 2.38  24 2.43  21 2.45  40 2.55
  89  0.056  0.568  0.313-  29 2.21  41 2.25  26 2.34  25 2.36
  90  0.301  0.577  0.304-  30 2.18  42 2.30  26 2.34  27 2.60
  91  0.557  0.570  0.308-  31 2.29  43 2.31  27 2.34  28 2.46
  92  0.818  0.557  0.320-  28 2.25  44 2.34  25 2.39  32 2.42
  93  0.070  0.804  0.307-  29 2.22  30 2.30  17 2.33  45 2.58
  94  0.315  0.812  0.307-  30 2.19  31 2.29  18 2.43  46 2.47
  95  0.568  0.806  0.314-  32 2.18  31 2.21  47 2.26  19 2.43
  96  0.816  0.813  0.305-  20 2.37  29 2.43  48 2.45  32 2.53
  97  0.068  0.063  0.567-  49 2.35  34 2.41  37 2.53  33 2.56
  98  0.310  0.068  0.566-  38 2.33  35 2.35  50 2.36  34 2.36
  99  0.564  0.064  0.567-  51 2.30  36 2.34  35 2.39  39 2.39
 100  0.794  0.066  0.562-  36 2.25  40 2.30  52 2.37  33 2.57
 101  0.069  0.304  0.562-  38 2.22  37 2.23  53 2.45  41 2.45
 102  0.323  0.309  0.558-  39 2.26  38 2.40  42 2.46  54 2.56
 103  0.561  0.314  0.556-  39 2.23  43 2.33  40 2.40  55 2.43
 104  0.798  0.320  0.563-  40 2.21  56 2.26  44 2.32  37 2.50
 105  0.071  0.560  0.557-  42 2.40  41 2.41  45 2.43  57 2.45
 106  0.314  0.558  0.566-  58 2.30  43 2.35  42 2.42  46 2.47
 107  0.548  0.567  0.568-  47 2.27  59 2.33  43 2.47  44 2.56
 108  0.814  0.569  0.562-  48 2.25  44 2.35  41 2.46  60 2.55
 109  0.056  0.800  0.568-  45 2.20  61 2.21  46 2.37  33 2.45
 110  0.327  0.807  0.563-  47 2.30  34 2.41  62 2.41  46 2.52
 111  0.569  0.815  0.555-  48 2.28  47 2.44  35 2.45  63 2.55
 112  0.805  0.814  0.562-  64 2.26  45 2.31  48 2.36  36 2.38
 113  0.066  0.063  0.814-  50 2.32   1 2.39  49 2.43  53 2.45
 114  0.319  0.052  0.813-   2 2.30  51 2.33  50 2.41  54 2.42
 115  0.568  0.052  0.810-   3 2.31  52 2.32  51 2.32  55 2.54
 116  0.807  0.069  0.810-  52 2.28   4 2.36  49 2.37  56 2.46
 117  0.064  0.322  0.801-  53 2.21  57 2.27  54 2.34   5 2.67
 118  0.322  0.304  0.812-  55 2.25  54 2.37   6 2.39  58 2.62
 119  0.559  0.321  0.803-  59 2.21  56 2.24  55 2.29   7 2.49
 120  0.817  0.306  0.815-   8 2.32  53 2.33  60 2.40  56 2.51
 121  0.061  0.549  0.825-   9 2.21  57 2.28  58 2.33  61 2.54
 122  0.295  0.581  0.816-  62 2.27  10 2.29  58 2.40  59 2.70
 123  0.567  0.573  0.808-  60 2.19  63 2.20  59 2.44  11 2.54
 124  0.809  0.552  0.816-  60 2.27  12 2.41  57 2.46  64 2.54
 125  0.053  0.817  0.815-  62 2.30  13 2.31  49 2.36  61 2.44
 126  0.322  0.808  0.808-  63 2.24  50 2.33  62 2.42  14 2.56
 127  0.563  0.813  0.815-  51 2.29  15 2.34  64 2.35  63 2.38
 128  0.818  0.807  0.809-  61 2.32  64 2.42  16 2.44  52 2.53
 
  LATTYP: Found a face centered cubic cell.
 ALAT       =    21.8746673814
  
  Lattice vectors:
  
 A1 = (   0.0000000000,  10.9373336907,  10.9373336907)
 A2 = (  10.9373336907,   0.0000000000,  10.9373336907)
 A3 = (  10.9373336907,  10.9373336907,   0.0000000000)


Analysis of symmetry for initial positions (statically):
=====================================================================
 Subroutine PRICEL returns:
 Original cell was already a primitive cell.
 

 Routine SETGRP: Setting up the symmetry group for a 
 face centered cubic supercell.


 Subroutine GETGRP returns: Found  1 space group operations
 (whereof  1 operations were pure point group operations)
 out of a pool of 48 trial point group operations.


The static configuration has the point symmetry C_1 .


Analysis of symmetry for dynamics (positions and initial velocities):
=====================================================================
 Subroutine PRICEL returns:
 Original cell was already a primitive cell.
 

 Routine SETGRP: Setting up the symmetry group for a 
 face centered cubic supercell.


 Subroutine GETGRP returns: Found  1 space group operations
 (whereof  1 operations were pure point group operations)
 out of a pool of 48 trial point group operations.


The dynamic configuration has the point symmetry C_1 .


 Subroutine INISYM returns: Found  1 space group operations
 (whereof  1 operations are pure point group operations),
 and found     1 'primitive' translations

 
 
 KPOINTS: KPOINTS File, automatically generated by

Automatic generation of k-mesh.
Space group operators:
 irot       det(A)        alpha          n_x          n_y          n_z        tau_x        tau_y        tau_z
    1     1.000000     0.000001     1.000000     0.000000     0.000000     0.000000     0.000000     0.000000
 
 Subroutine IBZKPT returns following result:
 ===========================================
 
 Found      8 irreducible k-points:
 
 Following reciprocal coordinates:
            Coordinates               Weight
  0.000000  0.000000  0.000000      1.000000
  0.500000  0.000000  0.000000      1.000000
  0.000000  0.500000  0.000000      1.000000
  0.500000  0.500000  0.000000      1.000000
  0.000000  0.000000  0.500000      1.000000
  0.500000  0.000000  0.500000      1.000000
  0.000000  0.500000  0.500000      1.000000
  0.500000  0.500000  0.500000      1.000000
 
 Following cartesian coordinates:
            Coordinates               Weight
  0.000000  0.000000  0.000000      1.000000
 -0.022857  0.022857  0.022857      1.000000
  0.022857 -0.022857  0.022857      1.000000
  0.000000  0.000000  0.045715      1.000000
  0.022857  0.022857 -0.022857      1.000000
  0.000000  0.045715  0.000000      1.000000
  0.045715  0.000000  0.000000      1.000000
  0.022857  0.022857  0.022857      1.000000
 


--------------------------------------------------------------------------------------------------------




 Dimension of arrays:
   k-points           NKPTS =      8   k-points in BZ     NKDIM =      8   number of bands    NBANDS=    322
   number of dos      NEDOS =    301   number of ions     NIONS =    128
   non local maximal  LDIM  =      4   non local SUM 2l+1 LMDIM =      8
   total plane-waves  NPLWV = ******
   max r-space proj   IRMAX =      1   max aug-charges    IRDMAX= 176811
   dimension x,y,z NGX =   120 NGY =  120 NGZ =  120
   dimension x,y,z NGXF=   240 NGYF=  240 NGZF=  240
   support grid    NGXF=   480 NGYF=  480 NGZF=  480
   ions per type =             128
   NGX,Y,Z   is equivalent  to a cutoff of  12.90, 12.90, 12.90 a.u.
   NGXF,Y,Z  is equivalent  to a cutoff of  25.80, 25.80, 25.80 a.u.

 SYSTEM =  potpaw_PBE@./ARUN.APL1ZEROSTATE         
 POSCAR =  kk                                      

 Startparameter for this run:
   NWRITE =      2    write-flag & timer
   PREC   = accura    normal or accurate (medium, high low for compatibility)
   ISTART =      0    job   : 0-new  1-cont  2-samecut
   ICHARG =      2    charge: 1-file 2-atom 10-const
   ISPIN  =      1    spin polarized calculation?
   LNONCOLLINEAR =      F non collinear calculations
   LSORBIT =      F    spin-orbit coupling
   INIWAV =      1    electr: 0-lowe 1-rand  2-diag
   LASPH  =      F    aspherical Exc in radial PAW
   METAGGA=      F    non-selfconsistent MetaGGA calc.

 Electronic Relaxation 1
   ENCUT  =  500.0 eV  36.75 Ry    6.06 a.u.  28.20 28.20 28.20*2*pi/ulx,y,z
   ENINI  =  500.0     initial cutoff
   ENAUG  =  322.1 eV  augmentation charge cutoff
   NELM   =    120;   NELMIN=  4; NELMDL= -5     # of ELM steps 
   EDIFF  = 0.1E-07   stopping-criterion for ELM
   LREAL  =      F    real-space projection
   NLSPLINE    = F    spline interpolate recip. space projectors
   LCOMPAT=      F    compatible to vasp.4.4
   GGA_COMPAT  = T    GGA compatible to vasp.4.4-vasp.4.6
   LMAXPAW     = -100 max onsite density
   LMAXMIX     =    2 max onsite mixed and CHGCAR
   VOSKOWN=      0    Vosko Wilk Nusair interpolation
   ROPT   =    0.00000
 Ionic relaxation
   EDIFFG = 0.1E-06   stopping-criterion for IOM
   NSW    =      0    number of steps for IOM
   NBLOCK =      1;   KBLOCK =      1    inner block; outer block 
   IBRION =     -1    ionic relax: 0-MD 1-quasi-New 2-CG
   NFREE  =      0    steps in history (QN), initial steepest desc. (CG)
   ISIF   =      2    stress and relaxation
   IWAVPR =     10    prediction:  0-non 1-charg 2-wave 3-comb
   ISYM   =      2    0-nonsym 1-usesym 2-fastsym
   LCORR  =      T    Harris-Foulkes like correction to forces

   POTIM  = 0.5000    time-step for ionic-motion
   TEIN   =    0.0    initial temperature
   TEBEG  =    0.0;   TEEND  =   0.0 temperature during run
   SMASS  =  -3.00    Nose mass-parameter (am)
   estimated Nose-frequenzy (Omega)   =  0.10E-29 period in steps =****** mass=  -0.547E-26a.u.
   SCALEE = 1.0000    scale energy and forces
   NPACO  =    256;   APACO  = 16.0  distance and # of slots for P.C.
   PSTRESS=    0.0 pullay stress

  Mass of Ions in am
   POMASS =  28.09
  Ionic Valenz
   ZVAL   =   4.00
  Atomic Wigner-Seitz radii
   RWIGS  =  -1.00
  virtual crystal weights 
   VCA    =   1.00
   NELECT =     512.0000    total number of electrons
   NUPDOWN=      -1.0000    fix difference up-down

 DOS related values:
   EMIN   =  10.00;   EMAX   =-10.00  energy-range for DOS
   EFERMI =   0.00
   ISMEAR =     0;   SIGMA  =   0.01  broadening in eV -4-tet -1-fermi 0-gaus

 Electronic relaxation 2 (details)
   IALGO  =     38    algorithm
   LDIAG  =      T    sub-space diagonalisation (order eigenvalues)
   LSUBROT=      F    optimize rotation matrix (better conditioning)
   TURBO    =      0    0=normal 1=particle mesh
   IRESTART =      0    0=no restart 2=restart with 2 vectors
   NREBOOT  =      0    no. of reboots
   NMIN     =      0    reboot dimension
   EREF     =   0.00    reference energy to select bands
   IMIX   =      4    mixing-type and parameters
     AMIX     =   0.40;   BMIX     =  1.00
     AMIX_MAG =   1.60;   BMIX_MAG =  1.00
     AMIN     =   0.10
     WC   =   100.;   INIMIX=   1;  MIXPRE=   1;  MAXMIX= -45

 Intra band minimization:
   WEIMIN = 0.0000     energy-eigenvalue tresh-hold
   EBREAK =  0.78E-11  absolut break condition
   DEPER  =   0.30     relativ break condition  

   TIME   =   0.40     timestep for ELM

  volume/ion in A,a.u.               =      20.44       137.96
  Fermi-wavevector in a.u.,A,eV,Ry     =   0.950408  1.796010 12.289804  0.903275
  Thomas-Fermi vector in A             =   2.078782
 
 Write flags
   LWAVE        =      F    write WAVECAR
   LDOWNSAMPLE  =      F    k-point downsampling of WAVECAR
   LCHARG       =      F    write CHGCAR
   LVTOT        =      F    write LOCPOT, total local potential
   LVHAR        =      F    write LOCPOT, Hartree potential only
   LELF         =      F    write electronic localiz. function (ELF)
   LORBIT       =      0    0 simple, 1 ext, 2 COOP (PROOUT), +10 PAW based schemes


 Dipole corrections
   LMONO  =      F    monopole corrections only (constant potential shift)
   LDIPOL =      F    correct potential (dipole corrections)
   IDIPOL =      0    1-x, 2-y, 3-z, 4-all directions 
   EPSILON=  1.0000000 bulk dielectric constant

 Exchange correlation treatment:
   GGA     =    --    GGA type
   LEXCH   =     8    internal setting for exchange type
   VOSKOWN=      0    Vosko Wilk Nusair interpolation
   LHFCALC =     F    Hartree Fock is set to
   LHFONE  =     F    Hartree Fock one center treatment
   AEXX    =    0.0000 exact exchange contribution

 Linear response parameters
   LEPSILON=     F    determine dielectric tensor
   LRPA    =     F    only Hartree local field effects (RPA)
   LNABLA  =     F    use nabla operator in PAW spheres
   LVEL    =     F    velocity operator in full k-point grid
   LINTERFAST=   F  fast interpolation
   KINTER  =     0    interpolate to denser k-point grid
   CSHIFT  =0.1000    complex shift for real part using Kramers Kronig
   OMEGAMAX=  -1.0    maximum frequency
   DEG_THRESHOLD= 0.2000000E-02 threshold for treating states as degnerate
   RTIME   =   -0.100 relaxation time in fs
  (WPLASMAI=    0.000 imaginary part of plasma frequency in eV, 0.658/RTIME)
   DFIELD  = 0.0000000 0.0000000 0.0000000 field for delta impulse in time
 
 Orbital magnetization related:
   ORBITALMAG=     F  switch on orbital magnetization
   LCHIMAG   =     F  perturbation theory with respect to B field
   DQ        =  0.001000  dq finite difference perturbation B field
   LLRAUG    =     F  two centre corrections for induced B field



--------------------------------------------------------------------------------------------------------


 Static calculation
 charge density and potential will be updated during run
 non-spin polarized calculation
 Variant of blocked Davidson
 Davidson routine will perform the subspace rotation
 perform sub-space diagonalisation
    after iterative eigenvector-optimisation
 modified Broyden-mixing scheme, WC =      100.0
 initial mixing is a Kerker type mixing with AMIX =  0.4000 and BMIX =      1.0000
 Hartree-type preconditioning will be used
 using additional bands           66
 reciprocal scheme for non local part
 use partial core corrections
 calculate Harris-corrections to forces 
   (improved forces if not selfconsistent)
 use gradient corrections 
 use of overlap-Matrix (Vanderbilt PP)
 Gauss-broadening in eV      SIGMA  =   0.01


--------------------------------------------------------------------------------------------------------


  energy-cutoff  :      500.00
  volume of cell :     2616.76
      direct lattice vectors                 reciprocal lattice vectors
     0.000000000 10.937333691 10.937333691    -0.045714981  0.045714981  0.045714981
    10.937333691  0.000000000 10.937333691     0.045714981 -0.045714981  0.045714981
    10.937333691 10.937333691  0.000000000     0.045714981  0.045714981 -0.045714981

  length of vectors
    15.467725642 15.467725642 15.467725642     0.079180669  0.079180669  0.079180669


 
 k-points in units of 2pi/SCALE and weight: KPOINTS File, automatically generated by
   0.00000000  0.00000000  0.00000000       0.125
  -0.02285749  0.02285749  0.02285749       0.125
   0.02285749 -0.02285749  0.02285749       0.125
   0.00000000  0.00000000  0.04571498       0.125
   0.02285749  0.02285749 -0.02285749       0.125
   0.00000000  0.04571498  0.00000000       0.125
   0.04571498  0.00000000  0.00000000       0.125
   0.02285749  0.02285749  0.02285749       0.125
 
 k-points in reciprocal lattice and weights: KPOINTS File, automatically generated by
   0.00000000  0.00000000  0.00000000       0.125
   0.50000000  0.00000000  0.00000000       0.125
   0.00000000  0.50000000  0.00000000       0.125
   0.50000000  0.50000000  0.00000000       0.125
   0.00000000  0.00000000  0.50000000       0.125
   0.50000000  0.00000000  0.50000000       0.125
   0.00000000  0.50000000  0.50000000       0.125
   0.50000000  0.50000000  0.50000000       0.125
 
 position of ions in fractional coordinates (direct lattice) 
   0.99605489  0.00050103  0.00306762
   0.25383730  0.00132272  0.99459878
   0.50457716  0.00148851  0.99246167
   0.75241676  0.00468337  0.99703134
   0.00335089  0.24549524  0.01195246
   0.24885401  0.24796791  0.00098501
   0.50383851  0.25167876  0.00013744
   0.75391435  0.25260549  0.99819562
   0.99757951  0.51013861  0.99909345
   0.25321686  0.50215728  0.99658865
   0.50596416  0.49643527  0.00919138
   0.74156246  0.50417989  0.00632083
   0.00630045  0.75398350  0.99784289
   0.24780966  0.74856317  0.00970513
   0.49525022  0.74696378  0.99995447
   0.75258608  0.74197375  0.00205263
   0.00747231  0.98858347  0.25470261
   0.24954481  0.00383324  0.25521122
   0.50723183  0.99831030  0.25102183
   0.75568837  0.00068344  0.24611056
   0.00075068  0.25322553  0.24136134
   0.26168325  0.24851177  0.25201195
   0.49044526  0.24956673  0.26197699
   0.74508944  0.24770623  0.25037971
   0.00682048  0.49215017  0.25211529
   0.24085188  0.51157962  0.24436898
   0.50545203  0.49026440  0.25555803
   0.75056846  0.50808489  0.25875452
   0.00825795  0.74301288  0.25383334
   0.25052143  0.74828004  0.26102716
   0.49399428  0.74937385  0.27068586
   0.74075949  0.74657865  0.24637884
   0.99692853  0.99396548  0.50501914
   0.25862945  0.99759824  0.50121825
   0.49574187  0.00807892  0.50223105
   0.74827860  0.00231007  0.49349394
   0.99552625  0.26346801  0.49960573
   0.24417645  0.25266032  0.50364681
   0.50197206  0.25318757  0.49955173
   0.75063642  0.24645083  0.50867830
   0.00843762  0.49782951  0.49111878
   0.26046634  0.50277702  0.48461713
   0.49965418  0.49893436  0.49040633
   0.75092220  0.50205624  0.50581669
   0.98804499  0.75171573  0.51034078
   0.24337730  0.75371368  0.50187763
   0.50876304  0.74525089  0.49284256
   0.74932542  0.74720504  0.49844497
   0.99410429  0.00435150  0.75271055
   0.24907207  0.99219100  0.75240064
   0.50354533  0.99360273  0.74943980
   0.75010611  0.00730534  0.74816230
   0.00114333  0.25703541  0.75436074
   0.24787702  0.24393234  0.76000943
   0.50031357  0.25343631  0.74784964
   0.73656332  0.26344873  0.74151223
   0.00306872  0.50123701  0.75173119
   0.24435568  0.51180871  0.74731459
   0.50855333  0.49505322  0.75109378
   0.73838294  0.49608527  0.76322401
   0.00126022  0.74946894  0.74186430
   0.23474818  0.76077886  0.75159438
   0.49846450  0.74703447  0.75732678
   0.74900407  0.75315767  0.74053382
   0.05520753  0.06564213  0.06586334
   0.31714308  0.06527612  0.05745829
   0.56334129  0.05383171  0.06440321
   0.80720380  0.06057516  0.07330902
   0.06990875  0.31112429  0.06481639
   0.30620178  0.31211884  0.07394149
   0.56013234  0.31967651  0.05946500
   0.82554088  0.29986254  0.06187286
   0.06770611  0.54806305  0.07671350
   0.30759522  0.56915178  0.06324919
   0.56657875  0.56274690  0.05849896
   0.82499453  0.56519734  0.05611235
   0.05305841  0.81289407  0.06513207
   0.30288371  0.81526554  0.06547026
   0.56119647  0.79595584  0.07396610
   0.81162981  0.80865422  0.06710184
   0.06934537  0.05613976  0.31395690
   0.31823284  0.06604171  0.30442227
   0.55792860  0.06097870  0.32371429
   0.81245165  0.06140008  0.32290669
   0.07573423  0.31586273  0.29519871
   0.31163822  0.32397958  0.31016551
   0.56149590  0.30849261  0.32142382
   0.80683042  0.32125480  0.30698683
   0.05569521  0.56833538  0.31329370
   0.30110932  0.57705560  0.30365517
   0.55690809  0.57015890  0.30816001
   0.81810693  0.55706854  0.32038918
   0.06992710  0.80406039  0.30682165
   0.31454382  0.81173206  0.30664469
   0.56839954  0.80580817  0.31407046
   0.81604258  0.81302616  0.30484336
   0.06823164  0.06297560  0.56713652
   0.30980809  0.06836882  0.56611230
   0.56360425  0.06381933  0.56740339
   0.79352850  0.06622999  0.56181971
   0.06868207  0.30381061  0.56174212
   0.32303373  0.30859886  0.55781663
   0.56108401  0.31444615  0.55568297
   0.79783292  0.31978810  0.56269513
   0.07056744  0.56028639  0.55747533
   0.31445753  0.55810813  0.56605856
   0.54849410  0.56662425  0.56834179
   0.81389906  0.56920349  0.56198735
   0.05630445  0.79988014  0.56754082
   0.32684613  0.80713723  0.56331773
   0.56935957  0.81482356  0.55549291
   0.80530966  0.81434534  0.56192416
   0.06605855  0.06291233  0.81406249
   0.31912789  0.05233480  0.81274007
   0.56768660  0.05237848  0.80995350
   0.80674855  0.06897748  0.81040819
   0.06364526  0.32194211  0.80115797
   0.32236299  0.30421056  0.81215266
   0.55899474  0.32078769  0.80317568
   0.81704854  0.30643738  0.81495015
   0.06145738  0.54923404  0.82518928
   0.29542841  0.58144863  0.81629999
   0.56655560  0.57284624  0.80831336
   0.80865403  0.55218729  0.81610312
   0.05286145  0.81727782  0.81538583
   0.32169447  0.80785829  0.80753510
   0.56345034  0.81276430  0.81532965
   0.81793038  0.80736427  0.80862904
 
 position of ions in cartesian coordinates  (Angst):
   0.03903152 10.92773626 10.89966457
  10.89272571 13.65456191  2.79077020
  10.87116487 16.37361323  5.53500911
  10.95608806 19.13429770  8.28065681
   2.81579139  0.16737789  2.72171319
   2.72288116  2.73257267  5.43390710
   2.75419788  5.51215316  8.26334449
  13.68042914 19.16341142 11.00864333
  16.50697459 21.83827840 16.49041616
  16.39228442 13.66953999  8.26177907
   5.53020732  5.63442796 10.96357700
   5.58351678  8.17984912 13.62509977
  19.16030976 10.98265077  8.31547929
   8.29343343  2.81652515 10.89766210
  19.10662787 16.35355270 13.58650910
   8.13766483  8.25373539 16.34649956
  13.59823471  2.86749456 10.89419435
   2.83325570  5.52068519  2.77128026
  13.66436239  8.29327323 16.46661666
   2.69926833 10.95700922  8.27269088
   5.40946169  2.64806003  2.77782260
   5.47439498  5.61845588  5.58017318
   5.59492437  8.22949320  8.09375807
   5.44773220 10.88777833 10.85853756
   8.14027971  2.83206691  5.45740849
   8.26806207  5.30702247  8.22959442
   8.15730889  8.32342099 10.89048288
   8.38717849 11.03930219 13.76631167
  10.90283977  2.86657993  8.21689971
  11.03912972  5.59497765 10.92422499
  11.15673344  8.36356182 13.59913210
  10.86030736 10.79666122 16.26751351
  16.39489490 16.42730275 21.77507204
  16.39305615  8.31070785 13.73978143
   5.58143037 10.91516285  5.51045610
   5.42277388 13.58168063  8.20943871
   8.34599207 16.35275738 13.77004033
   8.27198339  8.17919247  5.43406947
   8.23296095 10.95399988  8.25943287
   8.25909929 13.77354531 10.90547588
  10.81645752  5.46381513  5.53721262
  10.79945931  8.14922658  8.34784739
  10.82074925 10.82862217 10.92189615
  11.02344250 13.74537258 13.70424326
  13.80353319 16.38834518 19.02834354
  13.73282113  8.15110175 10.90551676
  13.54144121 10.95489471 13.71556884
  13.62408982 13.64728106 16.36805305
   8.28024029 19.10549677 10.92044411
  19.08118096 10.95344125 13.57610846
  19.06423770 13.70431638 16.37480784
   8.26280169 16.38706161  8.28406176
  11.06197721  8.26320013  2.82378706
  10.98044611 11.02359040  5.37908310
  10.95139855 13.65157750  8.24401392
  10.99159333 16.16620551 10.93746541
  13.70413130  8.25549849  5.51576006
  13.77145170 10.84622866  8.27042224
  13.62952559 13.77718088 10.97677976
  13.77348583 16.42357628 13.50179080
  16.31120926  8.12780087  8.21097536
  16.54133074 10.78795773 10.88841147
  16.45370096 13.73500825 13.62243790
  16.33700218 16.29157285 16.42964412
   1.43831916  1.32419250  1.32177300
   1.34238715  4.09714020  4.18264636
   1.29317482  6.86585112  6.75022706
   1.46433597  9.63046254  9.49118811
   4.11178868  1.47353378  4.16748557
   4.22247057  4.15775370  6.76277885
   4.14679720  6.77674284  9.62276304
   3.95642074  9.70594016 12.30891269
   6.83338960  1.57956551  6.73487274
   6.91678043  4.05604899  9.58927448
   6.79477336  6.83668353 12.35181153
   6.79547137  9.63695999 15.20499239
   9.60326481  1.29268874  9.47121125
   9.63290136  4.02881027 12.22957146
   9.51462656  6.94698495 14.84362762
   9.57843620  9.61098121 17.72158702
   4.04787061  4.19230479  1.37247271
   4.05188810  6.81018667  4.20293893
   4.20751556  9.64282249  6.76919562
   4.20329140 12.41779310  9.55760796
   6.68338284  4.05701733  4.28302658
   6.93585644  6.80087486  6.95196397
   6.88960621  9.65678762  9.51535459
   6.87128835 12.18219089 12.33824446
   9.64267148  4.03575488  6.82523086
   9.63262755  6.61451099  9.60478270
   9.60646701  9.46153853 12.32710773
   9.59704787 12.45211190 15.04075303
  12.15008752  4.12062672  9.55909280
  12.23205967  6.79414599 12.31845516
  12.24848631  9.65186883 15.03016831
  12.22651197 12.25950356 17.81766839
   6.89174657  6.94923362  1.43505744
   6.93953176  9.58023358  4.13624709
   6.90389351 12.37020792  6.86234100
   6.86918909 14.82389565  9.40346551
   9.46683907  6.89515974  4.07407667
   9.47627538  9.63415434  6.90837641
   9.51689258 12.21445306  9.57596551
   9.65201358 14.88054934 12.22379408
  12.22533298  6.86911341  6.89985892
  12.29538628  9.63049826  9.54354180
  12.41350229 12.21520675 12.19642149
  12.37221165 15.04852882 15.12745413
  14.95593932  6.82320387  9.36437651
  14.98912327  9.73601927 12.40275448
  14.98760847 12.30288685 15.13927280
  15.05271871 14.95389250 17.71470715
   9.59176626  9.62617751  1.41059749
   9.46161247 12.37961756  4.06281138
   9.43161271 15.06770951  6.78185871
   9.61813449 17.68738292  9.57810781
  12.28372041  9.45864153  4.21729773
  12.21003706 12.40857630  6.85304403
  12.29316248 14.89851246  9.62247407
  12.26498965 17.84971426 12.28794042
  15.03252649  9.69755047  6.67933586
  15.28764305 12.15934449  9.59069673
  15.10620345 15.03740058 12.46201817
  14.96544888 17.77051112 14.88397562
  17.85698722  9.49631024  9.51700354
  17.66809660 12.35076065 12.35429543
  17.80700690 15.08017683 15.05211874
  17.67465801 17.79022312 17.77638993
 


--------------------------------------------------------------------------------------------------------


 k-point  1 :   0.0000 0.0000 0.0000  plane waves:   66299
 k-point  2 :   0.5000 0.0000 0.0000  plane waves:   66394
 k-point  3 :   0.0000 0.5000 0.0000  plane waves:   66394
 k-point  4 :   0.5000 0.5000 0.0000  plane waves:   66552
 k-point  5 :   0.0000 0.0000 0.5000  plane waves:   66394
 k-point  6 :   0.5000 0.0000 0.5000  plane waves:   66552
 k-point  7 :   0.0000 0.5000 0.5000  plane waves:   66552
 k-point  8 :   0.5000 0.5000 0.5000  plane waves:   66394

 maximum and minimum number of plane-waves per node :      4207     4110

 maximum number of plane-waves:     66552
 maximum index in each direction: 
   IXMAX=   28   IYMAX=   28   IZMAX=   28
   IXMIN=  -28   IYMIN=  -28   IZMIN=  -28


 parallel 3D FFT for wavefunctions:
    minimum data exchange during FFTs selected (reduces bandwidth)
 parallel 3D FFT for charge:
    minimum data exchange during FFTs selected (reduces bandwidth)


 total amount of memory used by VASP MPI-rank0   221701. kBytes
=======================================================================

   base      :      30000. kBytes
   nonl-proj :      10690. kBytes
   fftplans  :      66746. kBytes
   grid      :      26864. kBytes
   one-center:         24. kBytes
   wavefun   :      87377. kBytes
 
     INWAV:  cpu time    0.0000: real time    0.0002
 Broyden mixing: mesh for mixing (old mesh)
   NGX = 57   NGY = 57   NGZ = 57
  (NGX  =240   NGY  =240   NGZ  =240)
  gives a total of 185193 points

 initial charge density was supplied:
 charge density of overlapping atoms calculated
 number of electron     512.0000000 magnetization 
 keeping initial charge density in first step


--------------------------------------------------------------------------------------------------------


 Maximum index for augmentation-charges         5609 (set IRDMAX)


--------------------------------------------------------------------------------------------------------


 First call to EWALD:  gamma=   0.129
 Maximum number of real-space cells 3x 3x 3
 Maximum number of reciprocal cells 3x 3x 3

    FEWALD:  cpu time    0.0059: real time    0.0059


--------------------------------------- Iteration      1(   1)  ---------------------------------------


    POTLOK:  cpu time    0.4896: real time    0.4991
    SETDIJ:  cpu time    0.5061: real time    0.5061
     EDDAV:  cpu time   69.6670: real time   69.6920
       DOS:  cpu time    0.0056: real time    0.0056
    --------------------------------------------
      LOOP:  cpu time   70.6683: real time   70.7028

 eigenvalue-minimisations  :  5152
 total energy-change (2. order) : 0.1383007E+04  (-0.1908140E+05)
 number of electron     512.0000000 magnetization 
 augmentation part      512.0000000 magnetization 

 Free energy of the ion-electron system (eV)
  ---------------------------------------------------
  alpha Z        PSCENC =       210.77028614
  Ewald energy   TEWEN  =    -14472.55600038
  -Hartree energ DENC   =      -756.24781657
  -exchange      EXHF   =         0.00000000
  -V(xc)+E(xc)   XCENC  =     -1195.37280378
  PAW double counting   =      4221.13331941    -1969.18571412
  entropy T*S    EENTRO =        -0.00094857
  eigenvalues    EBANDS =      2151.98623640
  atomic energy  EATOM  =     13192.48085998
  Solvation  Ediel_sol  =         0.00000000
  ---------------------------------------------------
  free energy    TOTEN  =      1383.00741852 eV

  energy without entropy =     1383.00836710  energy(sigma->0) =     1383.00789281


--------------------------------------------------------------------------------------------------------




--------------------------------------- Iteration      1(   2)  ---------------------------------------


     EDDAV:  cpu time   79.2302: real time   79.2503
       DOS:  cpu time    0.0017: real time    0.0017
    --------------------------------------------
      LOOP:  cpu time   79.2319: real time   79.2520

 eigenvalue-minimisations  :  6120
 total energy-change (2. order) :-0.1920694E+04  (-0.1827077E+04)
 number of electron     512.0000000 magnetization 
 augmentation part      512.0000000 magnetization 

 Free energy of the ion-electron system (eV)
  ---------------------------------------------------
  alpha Z        PSCENC =       210.77028614
  Ewald energy   TEWEN  =    -14472.55600038
  -Hartree energ DENC   =      -756.24781657
  -exchange      EXHF   =         0.00000000
  -V(xc)+E(xc)   XCENC  =     -1195.37280378
  PAW double counting   =      4221.13331941    -1969.18571412
  entropy T*S    EENTRO =        -0.00000000
  eigenvalues    EBANDS =       231.29161099
  atomic energy  EATOM  =     13192.48085998
  Solvation  Ediel_sol  =         0.00000000
  ---------------------------------------------------
  free energy    TOTEN  =      -537.68625832 eV

  energy without entropy =     -537.68625832  energy(sigma->0) =     -537.68625832


--------------------------------------------------------------------------------------------------------




--------------------------------------- Iteration      1(   3)  ---------------------------------------


     EDDAV:  cpu time   80.8938: real time   80.9151
       DOS:  cpu time    0.0016: real time    0.0016
    --------------------------------------------
      LOOP:  cpu time   80.8954: real time   80.9167

 eigenvalue-minimisations  :  6288
 total energy-change (2. order) :-0.1494460E+03  (-0.1464434E+03)
 number of electron     512.0000000 magnetization 
 augmentation part      512.0000000 magnetization 

 Free energy of the ion-electron system (eV)
  ---------------------------------------------------
  alpha Z        PSCENC =       210.77028614
  Ewald energy   TEWEN  =    -14472.55600038
  -Hartree energ DENC   =      -756.24781657
  -exchange      EXHF   =         0.00000000
  -V(xc)+E(xc)   XCENC  =     -1195.37280378
  PAW double counting   =      4221.13331941    -1969.18571412
  entropy T*S    EENTRO =        -0.00000000
  eigenvalues    EBANDS =        81.84556525
  atomic energy  EATOM  =     13192.48085998
  Solvation  Ediel_sol  =         0.00000000
  ---------------------------------------------------
  free energy    TOTEN  =      -687.13230405 eV

  energy without entropy =     -687.13230405  energy(sigma->0) =     -687.13230405


--------------------------------------------------------------------------------------------------------




--------------------------------------- Iteration      1(   4)  ---------------------------------------


     EDDAV:  cpu time   79.9496: real time   79.9695
       DOS:  cpu time    0.0011: real time    0.0011
    --------------------------------------------
      LOOP:  cpu time   79.9507: real time   79.9707

 eigenvalue-minimisations  :  6192
 total energy-change (2. order) :-0.4196469E+01  (-0.4161456E+01)
 number of electron     512.0000000 magnetization 
 augmentation part      512.0000000 magnetization 

 Free energy of the ion-electron system (eV)
  ---------------------------------------------------
  alpha Z        PSCENC =       210.77028614
  Ewald energy   TEWEN  =    -14472.55600038
  -Hartree energ DENC   =      -756.24781657
  -exchange      EXHF   =         0.00000000
  -V(xc)+E(xc)   XCENC  =     -1195.37280378
  PAW double counting   =      4221.13331941    -1969.18571412
  entropy T*S    EENTRO =        -0.00000000
  eigenvalues    EBANDS =        77.64909618
  atomic energy  EATOM  =     13192.48085998
  Solvation  Ediel_sol  =         0.00000000
  ---------------------------------------------------
  free energy    TOTEN  =      -691.32877312 eV

  energy without entropy =     -691.32877312  energy(sigma->0) =     -691.32877312


--------------------------------------------------------------------------------------------------------




--------------------------------------- Iteration      1(   5)  ---------------------------------------


     EDDAV:  cpu time   81.0826: real time   81.1010
       DOS:  cpu time    0.0012: real time    0.0012
    CHARGE:  cpu time    3.3476: real time    3.3483
    MIXING:  cpu time    0.0278: real time    0.0279
    --------------------------------------------
      LOOP:  cpu time   84.4592: real time   84.4784

 eigenvalue-minimisations  :  6296
 total energy-change (2. order) :-0.1429672E+00  (-0.1425433E+00)
 number of electron     511.9999998 magnetization 
 augmentation part      -30.1709534 magnetization 

 Broyden mixing:
  rms(total) = 0.23960E+01    rms(broyden)= 0.23960E+01
  rms(prec ) = 0.29015E+01
  weight for this iteration     100.00

 Free energy of the ion-electron system (eV)
  ---------------------------------------------------
  alpha Z        PSCENC =       210.77028614
  Ewald energy   TEWEN  =    -14472.55600038
  -Hartree energ DENC   =      -756.24781657
  -exchange      EXHF   =         0.00000000
  -V(xc)+E(xc)   XCENC  =     -1195.37280378
  PAW double counting   =      4221.13331941    -1969.18571412
  entropy T*S    EENTRO =        -0.00000000
  eigenvalues    EBANDS =        77.50612902
  atomic energy  EATOM  =     13192.48085998
  Solvation  Ediel_sol  =         0.00000000
  ---------------------------------------------------
  free energy    TOTEN  =      -691.47174029 eV

  energy without entropy =     -691.47174029  energy(sigma->0) =     -691.47174029


--------------------------------------------------------------------------------------------------------




--------------------------------------- Iteration      1(   6)  ---------------------------------------


    POTLOK:  cpu time    0.4926: real time    0.4949
    SETDIJ:  cpu time    0.5076: real time    0.5077
     EDDAV:  cpu time   76.9946: real time   77.0115
       DOS:  cpu time    0.0012: real time    0.0012
    CHARGE:  cpu time    3.3275: real time    3.3281
    MIXING:  cpu time    0.0395: real time    0.0395
    --------------------------------------------
      LOOP:  cpu time   81.3629: real time   81.3829

 eigenvalue-minimisations  :  5912
 total energy-change (2. order) : 0.8376654E+01  (-0.5692586E+00)
 number of electron     511.9999998 magnetization 
 augmentation part      -29.8281772 magnetization 

 Broyden mixing:
  rms(total) = 0.14235E+01    rms(broyden)= 0.14235E+01
  rms(prec ) = 0.17151E+01
  weight for this iteration     100.00

 eigenvalues of (default mixing * dielectric matrix)
  average eigenvalue GAMMA=   2.4317
  2.4317

 Free energy of the ion-electron system (eV)
  ---------------------------------------------------
  alpha Z        PSCENC =       210.77028614
  Ewald energy   TEWEN  =    -14472.55600038
  -Hartree energ DENC   =      -851.30093125
  -exchange      EXHF   =         0.00000000
  -V(xc)+E(xc)   XCENC  =     -1180.71984463
  PAW double counting   =      4465.44354400    -2220.25851953
  entropy T*S    EENTRO =        -0.00000000
  eigenvalues    EBANDS =       173.04551915
  atomic energy  EATOM  =     13192.48085998
  Solvation  Ediel_sol  =         0.00000000
  ---------------------------------------------------
  free energy    TOTEN  =      -683.09508652 eV

  energy without entropy =     -683.09508652  energy(sigma->0) =     -683.09508652


--------------------------------------------------------------------------------------------------------




--------------------------------------- Iteration      1(   7)  ---------------------------------------


    POTLOK:  cpu time    0.4910: real time    0.4918
    SETDIJ:  cpu time    0.5079: real time    0.5079
     EDDAV:  cpu time   75.5143: real time   75.5332
       DOS:  cpu time    0.0010: real time    0.0010
    CHARGE:  cpu time    3.3250: real time    3.3265
    MIXING:  cpu time    0.0340: real time    0.0340
    --------------------------------------------
      LOOP:  cpu time   79.8731: real time   79.8945

 eigenvalue-minimisations  :  5760
 total energy-change (2. order) : 0.3542093E+01  (-0.1091153E+01)
 number of electron     511.9999998 magnetization 
 augmentation part      -29.3809782 magnetization 

 Broyden mixing:
  rms(total) = 0.15238E+00    rms(broyden)= 0.15238E+00
  rms(prec ) = 0.19535E+00
  weight for this iteration     100.00

 eigenvalues of (default mixing * dielectric matrix)
  average eigenvalue GAMMA=   2.1449
  2.1449  2.1449

 Free energy of the ion-electron system (eV)
  ---------------------------------------------------
  alpha Z        PSCENC =       210.77028614
  Ewald energy   TEWEN  =    -14472.55600038
  -Hartree energ DENC   =     -1002.02129721
  -exchange      EXHF   =         0.00000000
  -V(xc)+E(xc)   XCENC  =     -1156.72855015
  PAW double counting   =      4785.30843097    -2548.65662575
  entropy T*S    EENTRO =        -0.00000000
  eigenvalues    EBANDS =       311.84990320
  atomic energy  EATOM  =     13192.48085998
  Solvation  Ediel_sol  =         0.00000000
  ---------------------------------------------------
  free energy    TOTEN  =      -679.55299319 eV

  energy without entropy =     -679.55299319  energy(sigma->0) =     -679.55299319


--------------------------------------------------------------------------------------------------------




--------------------------------------- Iteration      1(   8)  ---------------------------------------


    POTLOK:  cpu time    0.4901: real time    0.4921
    SETDIJ:  cpu time    0.5116: real time    0.5116
     EDDAV:  cpu time   76.3327: real time   76.3523
       DOS:  cpu time    0.0011: real time    0.0011
    CHARGE:  cpu time    3.3434: real time    3.3447
    MIXING:  cpu time    0.0359: real time    0.0359
    --------------------------------------------
      LOOP:  cpu time   80.7147: real time   80.7377

 eigenvalue-minimisations  :  5840
 total energy-change (2. order) :-0.6021167E-01  (-0.9894461E-01)
 number of electron     511.9999998 magnetization 
 augmentation part      -29.4495674 magnetization 

 Broyden mixing:
  rms(total) = 0.58418E-01    rms(broyden)= 0.58418E-01
  rms(prec ) = 0.72560E-01
  weight for this iteration     100.00

 eigenvalues of (default mixing * dielectric matrix)
  average eigenvalue GAMMA=   2.0223
  2.6827  1.6921  1.6921

 Free energy of the ion-electron system (eV)
  ---------------------------------------------------
  alpha Z        PSCENC =       210.77028614
  Ewald energy   TEWEN  =    -14472.55600038
  -Hartree energ DENC   =      -995.69850116
  -exchange      EXHF   =         0.00000000
  -V(xc)+E(xc)   XCENC  =     -1156.82746464
  PAW double counting   =      4737.17865846    -2499.02891635
  entropy T*S    EENTRO =        -0.00000000
  eigenvalues    EBANDS =       304.06787308
  atomic energy  EATOM  =     13192.48085998
  Solvation  Ediel_sol  =         0.00000000
  ---------------------------------------------------
  free energy    TOTEN  =      -679.61320486 eV

  energy without entropy =     -679.61320486  energy(sigma->0) =     -679.61320486


--------------------------------------------------------------------------------------------------------




--------------------------------------- Iteration      1(   9)  ---------------------------------------


    POTLOK:  cpu time    0.4892: real time    0.4920
    SETDIJ:  cpu time    0.5085: real time    0.5086
     EDDAV:  cpu time   79.3254: real time   79.3487
       DOS:  cpu time    0.0010: real time    0.0010
    CHARGE:  cpu time    3.3340: real time    3.3343
    MIXING:  cpu time    0.0283: real time    0.0283
    --------------------------------------------
      LOOP:  cpu time   83.6864: real time   83.7130

 eigenvalue-minimisations  :  6144
 total energy-change (2. order) :-0.2102253E-01  (-0.9236954E-02)
 number of electron     511.9999998 magnetization 
 augmentation part      -29.4537820 magnetization 

 Broyden mixing:
  rms(total) = 0.26931E-01    rms(broyden)= 0.26931E-01
  rms(prec ) = 0.31262E-01
  weight for this iteration     100.00

 eigenvalues of (default mixing * dielectric matrix)
  average eigenvalue GAMMA=   1.8121
  2.5824  0.9331  1.9106  1.8225

 Free energy of the ion-electron system (eV)
  ---------------------------------------------------
  alpha Z        PSCENC =       210.77028614
  Ewald energy   TEWEN  =    -14472.55600038
  -Hartree energ DENC   =     -1001.98374991
  -exchange      EXHF   =         0.00000000
  -V(xc)+E(xc)   XCENC  =     -1155.73039958
  PAW double counting   =      4739.67530067    -2501.59681490
  entropy T*S    EENTRO =        -0.00000000
  eigenvalues    EBANDS =       309.30629058
  atomic energy  EATOM  =     13192.48085998
  Solvation  Ediel_sol  =         0.00000000
  ---------------------------------------------------
  free energy    TOTEN  =      -679.63422740 eV

  energy without entropy =     -679.63422740  energy(sigma->0) =     -679.63422740


--------------------------------------------------------------------------------------------------------




--------------------------------------- Iteration      1(  10)  ---------------------------------------


    POTLOK:  cpu time    0.4889: real time    0.4899
    SETDIJ:  cpu time    0.5059: real time    0.5059
     EDDAV:  cpu time   77.7066: real time   77.7348
       DOS:  cpu time    0.0011: real time    0.0011
    CHARGE:  cpu time    3.3338: real time    3.3353
    MIXING:  cpu time    0.0283: real time    0.0283
    --------------------------------------------
      LOOP:  cpu time   82.0645: real time   82.0953

 eigenvalue-minimisations  :  5984
 total energy-change (2. order) :-0.2582019E-02  (-0.8609602E-03)
 number of electron     511.9999998 magnetization 
 augmentation part      -29.4631669 magnetization 

 Broyden mixing:
  rms(total) = 0.98073E-02    rms(broyden)= 0.98073E-02
  rms(prec ) = 0.12036E-01
  weight for this iteration     100.00

 eigenvalues of (default mixing * dielectric matrix)
  average eigenvalue GAMMA=   1.8540
  2.6690  2.6690  1.5076  1.5076  0.9168

 Free energy of the ion-electron system (eV)
  ---------------------------------------------------
  alpha Z        PSCENC =       210.77028614
  Ewald energy   TEWEN  =    -14472.55600038
  -Hartree energ DENC   =     -1000.87905239
  -exchange      EXHF   =         0.00000000
  -V(xc)+E(xc)   XCENC  =     -1155.89592852
  PAW double counting   =      4732.58512962    -2494.33108597
  entropy T*S    EENTRO =        -0.00000000
  eigenvalues    EBANDS =       308.18898210
  atomic energy  EATOM  =     13192.48085998
  Solvation  Ediel_sol  =         0.00000000
  ---------------------------------------------------
  free energy    TOTEN  =      -679.63680941 eV

  energy without entropy =     -679.63680941  energy(sigma->0) =     -679.63680941


--------------------------------------------------------------------------------------------------------




--------------------------------------- Iteration      1(  11)  ---------------------------------------


    POTLOK:  cpu time    0.4884: real time    0.4911
    SETDIJ:  cpu time    0.5092: real time    0.5093
     EDDAV:  cpu time   76.1982: real time   76.2261
       DOS:  cpu time    0.0011: real time    0.0011
    CHARGE:  cpu time    3.2969: real time    3.2980
    MIXING:  cpu time    0.0382: real time    0.0382
    --------------------------------------------
      LOOP:  cpu time   80.5321: real time   80.5639

 eigenvalue-minimisations  :  5832
 total energy-change (2. order) :-0.1225707E-02  (-0.1874904E-03)
 number of electron     511.9999998 magnetization 
 augmentation part      -29.4650020 magnetization 

 Broyden mixing:
  rms(total) = 0.34408E-02    rms(broyden)= 0.34408E-02
  rms(prec ) = 0.48747E-02
  weight for this iteration     100.00

 eigenvalues of (default mixing * dielectric matrix)
  average eigenvalue GAMMA=   1.7880
  2.8465  2.1179  2.1179  1.4110  1.3676  0.8669

 Free energy of the ion-electron system (eV)
  ---------------------------------------------------
  alpha Z        PSCENC =       210.77028614
  Ewald energy   TEWEN  =    -14472.55600038
  -Hartree energ DENC   =     -1000.93285334
  -exchange      EXHF   =         0.00000000
  -V(xc)+E(xc)   XCENC  =     -1155.88945206
  PAW double counting   =      4729.24451550    -2490.91656958
  entropy T*S    EENTRO =        -0.00000000
  eigenvalues    EBANDS =       308.16117860
  atomic energy  EATOM  =     13192.48085998
  Solvation  Ediel_sol  =         0.00000000
  ---------------------------------------------------
  free energy    TOTEN  =      -679.63803512 eV

  energy without entropy =     -679.63803512  energy(sigma->0) =     -679.63803512


--------------------------------------------------------------------------------------------------------




--------------------------------------- Iteration      1(  12)  ---------------------------------------


    POTLOK:  cpu time    0.4880: real time    0.4908
    SETDIJ:  cpu time    0.5105: real time    0.5105
     EDDAV:  cpu time   79.2583: real time   79.2796
       DOS:  cpu time    0.0011: real time    0.0011
    CHARGE:  cpu time    3.3098: real time    3.3115
    MIXING:  cpu time    0.0308: real time    0.0308
    --------------------------------------------
      LOOP:  cpu time   83.5985: real time   83.6244

 eigenvalue-minimisations  :  6152
 total energy-change (2. order) :-0.7867528E-04  (-0.4010811E-04)
 number of electron     511.9999998 magnetization 
 augmentation part      -29.4631782 magnetization 

 Broyden mixing:
  rms(total) = 0.17593E-02    rms(broyden)= 0.17593E-02
  rms(prec ) = 0.21017E-02
  weight for this iteration     100.00

 eigenvalues of (default mixing * dielectric matrix)
  average eigenvalue GAMMA=   1.8244
  3.1452  2.6782  1.7748  1.7748  0.8938  1.2519  1.2519

 Free energy of the ion-electron system (eV)
  ---------------------------------------------------
  alpha Z        PSCENC =       210.77028614
  Ewald energy   TEWEN  =    -14472.55600038
  -Hartree energ DENC   =     -1001.49970718
  -exchange      EXHF   =         0.00000000
  -V(xc)+E(xc)   XCENC  =     -1155.82773763
  PAW double counting   =      4730.37583081    -2492.08795960
  entropy T*S    EENTRO =        -0.00000000
  eigenvalues    EBANDS =       308.70631406
  atomic energy  EATOM  =     13192.48085998
  Solvation  Ediel_sol  =         0.00000000
  ---------------------------------------------------
  free energy    TOTEN  =      -679.63811380 eV

  energy without entropy =     -679.63811380  energy(sigma->0) =     -679.63811380


--------------------------------------------------------------------------------------------------------




--------------------------------------- Iteration      1(  13)  ---------------------------------------


    POTLOK:  cpu time    0.4918: real time    0.4924
    SETDIJ:  cpu time    0.5079: real time    0.5080
     EDDAV:  cpu time   75.4182: real time   75.4351
       DOS:  cpu time    0.0014: real time    0.0014
    CHARGE:  cpu time    3.3114: real time    3.3118
    MIXING:  cpu time    0.0312: real time    0.0314
    --------------------------------------------
      LOOP:  cpu time   79.7619: real time   79.7800

 eigenvalue-minimisations  :  5760
 total energy-change (2. order) :-0.2376776E-04  (-0.9982361E-05)
 number of electron     511.9999998 magnetization 
 augmentation part      -29.4632482 magnetization 

 Broyden mixing:
  rms(total) = 0.54266E-03    rms(broyden)= 0.54264E-03
  rms(prec ) = 0.70768E-03
  weight for this iteration     100.00

 eigenvalues of (default mixing * dielectric matrix)
  average eigenvalue GAMMA=   1.7824
  3.1340  2.5126  1.9396  1.9396  1.4032  1.4032  0.9635  0.9635

 Free energy of the ion-electron system (eV)
  ---------------------------------------------------
  alpha Z        PSCENC =       210.77028614
  Ewald energy   TEWEN  =    -14472.55600038
  -Hartree energ DENC   =     -1001.47940073
  -exchange      EXHF   =         0.00000000
  -V(xc)+E(xc)   XCENC  =     -1155.83908142
  PAW double counting   =      4729.82004235    -2491.52071464
  entropy T*S    EENTRO =        -0.00000000
  eigenvalues    EBANDS =       308.68587113
  atomic energy  EATOM  =     13192.48085998
  Solvation  Ediel_sol  =         0.00000000
  ---------------------------------------------------
  free energy    TOTEN  =      -679.63813756 eV

  energy without entropy =     -679.63813756  energy(sigma->0) =     -679.63813756


--------------------------------------------------------------------------------------------------------




--------------------------------------- Iteration      1(  14)  ---------------------------------------


    POTLOK:  cpu time    0.4882: real time    0.4912
    SETDIJ:  cpu time    0.5070: real time    0.5070
     EDDAV:  cpu time   79.8283: real time   79.8516
       DOS:  cpu time    0.0011: real time    0.0011
    CHARGE:  cpu time    3.2361: real time    3.2366
    MIXING:  cpu time    0.0380: real time    0.0380
    --------------------------------------------
      LOOP:  cpu time   84.0987: real time   84.1255

 eigenvalue-minimisations  :  6208
 total energy-change (2. order) :-0.5792077E-05  (-0.9048967E-06)
 number of electron     511.9999998 magnetization 
 augmentation part      -29.4630440 magnetization 

 Broyden mixing:
  rms(total) = 0.16149E-03    rms(broyden)= 0.16142E-03
  rms(prec ) = 0.22432E-03
  weight for this iteration     100.00

 eigenvalues of (default mixing * dielectric matrix)
  average eigenvalue GAMMA=   1.7687
  3.2263  2.6036  2.1647  1.6527  1.6527  0.9307  1.0094  1.3393  1.3393

 Free energy of the ion-electron system (eV)
  ---------------------------------------------------
  alpha Z        PSCENC =       210.77028614
  Ewald energy   TEWEN  =    -14472.55600038
  -Hartree energ DENC   =     -1001.53675146
  -exchange      EXHF   =         0.00000000
  -V(xc)+E(xc)   XCENC  =     -1155.83187351
  PAW double counting   =      4729.99207294    -2491.69682554
  entropy T*S    EENTRO =        -0.00000000
  eigenvalues    EBANDS =       308.74008847
  atomic energy  EATOM  =     13192.48085998
  Solvation  Ediel_sol  =         0.00000000
  ---------------------------------------------------
  free energy    TOTEN  =      -679.63814336 eV

  energy without entropy =     -679.63814336  energy(sigma->0) =     -679.63814336


--------------------------------------------------------------------------------------------------------




--------------------------------------- Iteration      1(  15)  ---------------------------------------


    POTLOK:  cpu time    0.4906: real time    0.4910
    SETDIJ:  cpu time    0.5076: real time    0.5076
     EDDAV:  cpu time   79.0302: real time   79.0452
       DOS:  cpu time    0.0010: real time    0.0010
    CHARGE:  cpu time    3.2374: real time    3.2377
    MIXING:  cpu time    0.0460: real time    0.0460
    --------------------------------------------
      LOOP:  cpu time   83.3126: real time   83.3285

 eigenvalue-minimisations  :  6128
 total energy-change (2. order) :-0.2205166E-05  (-0.1347237E-06)
 number of electron     511.9999998 magnetization 
 augmentation part      -29.4629735 magnetization 

 Broyden mixing:
  rms(total) = 0.62768E-04    rms(broyden)= 0.62580E-04
  rms(prec ) = 0.84855E-04
  weight for this iteration     100.00

 eigenvalues of (default mixing * dielectric matrix)
  average eigenvalue GAMMA=   1.7317
  3.2566  2.5808  2.1348  1.7177  1.7177  1.4684  1.4684  0.9480  0.9480  1.0768

 Free energy of the ion-electron system (eV)
  ---------------------------------------------------
  alpha Z        PSCENC =       210.77028614
  Ewald energy   TEWEN  =    -14472.55600038
  -Hartree energ DENC   =     -1001.55238708
  -exchange      EXHF   =         0.00000000
  -V(xc)+E(xc)   XCENC  =     -1155.83129407
  PAW double counting   =      4730.03017349    -2491.73613346
  entropy T*S    EENTRO =        -0.00000000
  eigenvalues    EBANDS =       308.75634981
  atomic energy  EATOM  =     13192.48085998
  Solvation  Ediel_sol  =         0.00000000
  ---------------------------------------------------
  free energy    TOTEN  =      -679.63814556 eV

  energy without entropy =     -679.63814556  energy(sigma->0) =     -679.63814556


--------------------------------------------------------------------------------------------------------




--------------------------------------- Iteration      1(  16)  ---------------------------------------


    POTLOK:  cpu time    0.4907: real time    0.4913
    SETDIJ:  cpu time    0.5088: real time    0.5090
     EDDAV:  cpu time   77.8998: real time   77.9234
       DOS:  cpu time    0.0012: real time    0.0012
    CHARGE:  cpu time    3.1559: real time    3.1562
    MIXING:  cpu time    0.0308: real time    0.0308
    --------------------------------------------
      LOOP:  cpu time   82.0873: real time   82.1120

 eigenvalue-minimisations  :  5992
 total energy-change (2. order) : 0.2704910E-06  (-0.2245806E-07)
 number of electron     511.9999998 magnetization 
 augmentation part      -29.4629710 magnetization 

 Broyden mixing:
  rms(total) = 0.24092E-04    rms(broyden)= 0.23599E-04
  rms(prec ) = 0.31149E-04
  weight for this iteration     100.00

 eigenvalues of (default mixing * dielectric matrix)
  average eigenvalue GAMMA=   1.6943
  3.2878  2.6282  2.0658  2.0658  1.4239  1.4239  1.5000  1.3424  0.9046  0.9972
  0.9972

 Free energy of the ion-electron system (eV)
  ---------------------------------------------------
  alpha Z        PSCENC =       210.77028614
  Ewald energy   TEWEN  =    -14472.55600038
  -Hartree energ DENC   =     -1001.55269874
  -exchange      EXHF   =         0.00000000
  -V(xc)+E(xc)   XCENC  =     -1155.83116308
  PAW double counting   =      4730.02975705    -2491.73545212
  entropy T*S    EENTRO =        -0.00000000
  eigenvalues    EBANDS =       308.75626585
  atomic energy  EATOM  =     13192.48085998
  Solvation  Ediel_sol  =         0.00000000
  ---------------------------------------------------
  free energy    TOTEN  =      -679.63814529 eV

  energy without entropy =     -679.63814529  energy(sigma->0) =     -679.63814529


--------------------------------------------------------------------------------------------------------




--------------------------------------- Iteration      1(  17)  ---------------------------------------


    POTLOK:  cpu time    0.4894: real time    0.4928
    SETDIJ:  cpu time    0.5098: real time    0.5099
     EDDAV:  cpu time   58.6517: real time   58.6705
       DOS:  cpu time    0.0010: real time    0.0010
    CHARGE:  cpu time    3.1439: real time    3.1477
    MIXING:  cpu time    0.0272: real time    0.0272
    --------------------------------------------
      LOOP:  cpu time   62.8230: real time   62.8491

 eigenvalue-minimisations  :  4064
 total energy-change (2. order) : 0.3703462E-07  (-0.2810459E-08)
 number of electron     511.9999998 magnetization 
 augmentation part      -29.4629708 magnetization 

 Broyden mixing:
  rms(total) = 0.14080E-04    rms(broyden)= 0.13218E-04
  rms(prec ) = 0.16773E-04
  weight for this iteration     100.00

 eigenvalues of (default mixing * dielectric matrix)
  average eigenvalue GAMMA=   1.7121
  3.3126  2.6304  2.2683  1.9128  1.9128  1.5029  1.5029  0.9469  0.9469  1.1190
  1.2450  1.2450

 Free energy of the ion-electron system (eV)
  ---------------------------------------------------
  alpha Z        PSCENC =       210.77028614
  Ewald energy   TEWEN  =    -14472.55600038
  -Hartree energ DENC   =     -1001.55235554
  -exchange      EXHF   =         0.00000000
  -V(xc)+E(xc)   XCENC  =     -1155.83121175
  PAW double counting   =      4730.03087296    -2491.73649674
  entropy T*S    EENTRO =        -0.00000000
  eigenvalues    EBANDS =       308.75590006
  atomic energy  EATOM  =     13192.48085998
  Solvation  Ediel_sol  =         0.00000000
  ---------------------------------------------------
  free energy    TOTEN  =      -679.63814525 eV

  energy without entropy =     -679.63814525  energy(sigma->0) =     -679.63814525


--------------------------------------------------------------------------------------------------------




--------------------------------------- Iteration      1(  18)  ---------------------------------------


    POTLOK:  cpu time    0.4898: real time    0.4914
    SETDIJ:  cpu time    0.5093: real time    0.5093
     EDDAV:  cpu time   51.4836: real time   51.5027
       DOS:  cpu time    0.0012: real time    0.0012
    CHARGE:  cpu time    3.1583: real time    3.1589
    MIXING:  cpu time    0.0410: real time    0.0410
    --------------------------------------------
      LOOP:  cpu time   55.6833: real time   55.7045

 eigenvalue-minimisations  :  3336
 total energy-change (2. order) :-0.7492781E-07  (-0.7189229E-09)
 number of electron     511.9999998 magnetization 
 augmentation part      -29.4629670 magnetization 

 Broyden mixing:
  rms(total) = 0.69257E-05    rms(broyden)= 0.49447E-05
  rms(prec ) = 0.70617E-05
  weight for this iteration     100.00
  WARNING: grid for Broyden might be to small

 eigenvalues of (default mixing * dielectric matrix)
  average eigenvalue GAMMA=   1.7068
  3.2662  2.6820  2.3372  2.3372  1.6853  1.6853  1.3352  1.3352  1.3111  1.3111
  0.9299  0.9862  0.9862

 Free energy of the ion-electron system (eV)
  ---------------------------------------------------
  alpha Z        PSCENC =       210.77028614
  Ewald energy   TEWEN  =    -14472.55600038
  -Hartree energ DENC   =     -1001.55311925
  -exchange      EXHF   =         0.00000000
  -V(xc)+E(xc)   XCENC  =     -1155.83112167
  PAW double counting   =      4730.03398086    -2491.73964270
  entropy T*S    EENTRO =        -0.00000000
  eigenvalues    EBANDS =       308.75661169
  atomic energy  EATOM  =     13192.48085998
  Solvation  Ediel_sol  =         0.00000000
  ---------------------------------------------------
  free energy    TOTEN  =      -679.63814533 eV

  energy without entropy =     -679.63814533  energy(sigma->0) =     -679.63814533


--------------------------------------------------------------------------------------------------------




--------------------------------------- Iteration      1(  19)  ---------------------------------------


    POTLOK:  cpu time    0.4895: real time    0.4928
    SETDIJ:  cpu time    0.5090: real time    0.5090
     EDDAV:  cpu time   50.7723: real time   50.7801
       DOS:  cpu time    0.0010: real time    0.0010
    CHARGE:  cpu time    3.1449: real time    3.1453
    MIXING:  cpu time    0.0344: real time    0.0344
    --------------------------------------------
      LOOP:  cpu time   54.9511: real time   54.9627

 eigenvalue-minimisations  :  3264
 total energy-change (2. order) : 0.2895649E-07  (-0.1705065E-09)
 number of electron     511.9999998 magnetization 
 augmentation part      -29.4629684 magnetization 

 Broyden mixing:
  rms(total) = 0.53611E-05    rms(broyden)= 0.22860E-05
  rms(prec ) = 0.31233E-05
  weight for this iteration     100.00
  WARNING: grid for Broyden might be to small

 eigenvalues of (default mixing * dielectric matrix)
  average eigenvalue GAMMA=   1.6651
  3.3080  2.6906  2.2958  2.2958  1.7017  1.7017  1.4305  1.4305  1.3367  1.3367
  0.9988  0.9988  0.8932  0.8932

 Free energy of the ion-electron system (eV)
  ---------------------------------------------------
  alpha Z        PSCENC =       210.77028614
  Ewald energy   TEWEN  =    -14472.55600038
  -Hartree energ DENC   =     -1001.55279442
  -exchange      EXHF   =         0.00000000
  -V(xc)+E(xc)   XCENC  =     -1155.83114413
  PAW double counting   =      4730.03411356    -2491.73974623
  entropy T*S    EENTRO =        -0.00000000
  eigenvalues    EBANDS =       308.75628018
  atomic energy  EATOM  =     13192.48085998
  Solvation  Ediel_sol  =         0.00000000
  ---------------------------------------------------
  free energy    TOTEN  =      -679.63814530 eV

  energy without entropy =     -679.63814530  energy(sigma->0) =     -679.63814530


--------------------------------------------------------------------------------------------------------




--------------------------------------- Iteration      1(  20)  ---------------------------------------


    POTLOK:  cpu time    0.4899: real time    0.4933
    SETDIJ:  cpu time    0.5067: real time    0.5070
     EDDAV:  cpu time   49.8242: real time   49.8348
       DOS:  cpu time    0.0010: real time    0.0010
    --------------------------------------------
      LOOP:  cpu time   50.8218: real time   50.8360

 eigenvalue-minimisations  :  3168
 total energy-change (2. order) :-0.5542461E-08  (-0.5441696E-10)
 number of electron     511.9999998 magnetization 
 augmentation part      -29.4629684 magnetization 

 Free energy of the ion-electron system (eV)
  ---------------------------------------------------
  alpha Z        PSCENC =       210.77028614
  Ewald energy   TEWEN  =    -14472.55600038
  -Hartree energ DENC   =     -1001.55292953
  -exchange      EXHF   =         0.00000000
  -V(xc)+E(xc)   XCENC  =     -1155.83113033
  PAW double counting   =      4730.03422282    -2491.73986067
  entropy T*S    EENTRO =        -0.00000000
  eigenvalues    EBANDS =       308.75640667
  atomic energy  EATOM  =     13192.48085998
  Solvation  Ediel_sol  =         0.00000000
  ---------------------------------------------------
  free energy    TOTEN  =      -679.63814530 eV

  energy without entropy =     -679.63814530  energy(sigma->0) =     -679.63814530


--------------------------------------------------------------------------------------------------------




 average (electrostatic) potential at core
  the test charge radii are     0.9892
  (the norm of the test charge is              1.0000)
       1 -83.4728       2 -83.4570       3 -83.4783       4 -83.4871       5 -83.4292
       6 -83.4067       7 -83.5115       8 -83.4695       9 -83.5328      10 -83.4922
      11 -83.4897      12 -83.4741      13 -83.5123      14 -83.4387      15 -83.5562
      16 -83.3721      17 -83.5554      18 -83.5217      19 -83.6820      20 -83.5976
      21 -83.5354      22 -83.5416      23 -83.6033      24 -83.5470      25 -83.5253
      26 -83.5866      27 -83.6528      28 -83.5069      29 -83.6314      30 -83.5823
      31 -83.6085      32 -83.6377      33 -83.4524      34 -83.4201      35 -83.5381
      36 -83.5248      37 -83.5359      38 -83.5091      39 -83.4700      40 -83.5309
      41 -83.4973      42 -83.4233      43 -83.3984      44 -83.4413      45 -83.5052
      46 -83.4618      47 -83.5363      48 -83.4824      49 -83.4591      50 -83.5398
      51 -83.5816      52 -83.4343      53 -83.6283      54 -83.5734      55 -83.5171
      56 -83.5231      57 -83.4887      58 -83.4890      59 -83.6113      60 -83.4399
      61 -83.4674      62 -83.5457      63 -83.5748      64 -83.4570      65 -83.4361
      66 -83.4165      67 -83.5010      68 -83.4476      69 -83.4084      70 -83.4516
      71 -83.5365      72 -83.4883      73 -83.4926      74 -83.4947      75 -83.4231
      76 -83.4118      77 -83.4935      78 -83.4916      79 -83.5846      80 -83.4693
      81 -83.4725      82 -83.5753      83 -83.6454      84 -83.5678      85 -83.5670
      86 -83.6014      87 -83.5627      88 -83.5396      89 -83.5132      90 -83.5727
      91 -83.5375      92 -83.5091      93 -83.6501      94 -83.5737      95 -83.6513
      96 -83.6386      97 -83.4220      98 -83.4297      99 -83.5718     100 -83.5333
     101 -83.4929     102 -83.5240     103 -83.4309     104 -83.5443     105 -83.4544
     106 -83.3749     107 -83.4647     108 -83.5291     109 -83.3978     110 -83.5808
     111 -83.5922     112 -83.5303     113 -83.6092     114 -83.4959     115 -83.5023
     116 -83.5534     117 -83.4887     118 -83.4205     119 -83.5151     120 -83.6283
     121 -83.4922     122 -83.5214     123 -83.5455     124 -83.4440     125 -83.6314
     126 -83.5436     127 -83.5535     128 -83.4138
 
 
 
 E-fermi :   5.9028     XC(G=0):  -9.3322     alpha+bet :-11.7321


 k-point     1 :       0.0000    0.0000    0.0000
  band No.  band energies     occupation 
      1      -6.3025      2.00000
      2      -5.7380      2.00000
      3      -5.6360      2.00000
      4      -5.5997      2.00000
      5      -5.5511      2.00000
      6      -5.4910      2.00000
      7      -5.4705      2.00000
      8      -5.4443      2.00000
      9      -5.3842      2.00000
     10      -5.3332      2.00000
     11      -5.2978      2.00000
     12      -5.2355      2.00000
     13      -5.1874      2.00000
     14      -5.0930      2.00000
     15      -5.0132      2.00000
     16      -4.5449      2.00000
     17      -4.5171      2.00000
     18      -4.3888      2.00000
     19      -4.3715      2.00000
     20      -4.3553      2.00000
     21      -4.3244      2.00000
     22      -4.2928      2.00000
     23      -4.2624      2.00000
     24      -4.2415      2.00000
     25      -4.2098      2.00000
     26      -4.1482      2.00000
     27      -4.1136      2.00000
     28      -4.0444      2.00000
     29      -4.0190      2.00000
     30      -3.9831      2.00000
     31      -3.9343      2.00000
     32      -3.8701      2.00000
     33      -3.8521      2.00000
     34      -3.8152      2.00000
     35      -3.7925      2.00000
     36      -3.7537      2.00000
     37      -3.7080      2.00000
     38      -3.6981      2.00000
     39      -3.6540      2.00000
     40      -3.6437      2.00000
     41      -3.6048      2.00000
     42      -3.5703      2.00000
     43      -3.5648      2.00000
     44      -3.5355      2.00000
     45      -3.4870      2.00000
     46      -3.4624      2.00000
     47      -3.4555      2.00000
     48      -3.4274      2.00000
     49      -3.4013      2.00000
     50      -3.3870      2.00000
     51      -3.3648      2.00000
     52      -3.3572      2.00000
     53      -3.2989      2.00000
     54      -3.2429      2.00000
     55      -3.1788      2.00000
     56      -2.3811      2.00000
     57      -2.3493      2.00000
     58      -2.2893      2.00000
     59      -2.2630      2.00000
     60      -2.2104      2.00000
     61      -2.1781      2.00000
     62      -2.1326      2.00000
     63      -2.1002      2.00000
     64      -2.0793      2.00000
     65      -2.0565      2.00000
     66      -1.9891      2.00000
     67      -1.9653      2.00000
     68      -1.9556      2.00000
     69      -1.8943      2.00000
     70      -1.8616      2.00000
     71      -1.8436      2.00000
     72      -1.8302      2.00000
     73      -1.7396      2.00000
     74      -1.3738      2.00000
     75      -1.3010      2.00000
     76      -1.2703      2.00000
     77      -1.2071      2.00000
     78      -1.0781      2.00000
     79      -1.0176      2.00000
     80      -0.9899      2.00000
     81      -0.9428      2.00000
     82      -0.9168      2.00000
     83      -0.8997      2.00000
     84      -0.8809      2.00000
     85      -0.8148      2.00000
     86      -0.7835      2.00000
     87      -0.7741      2.00000
     88      -0.7570      2.00000
     89      -0.7419      2.00000
     90      -0.7126      2.00000
     91      -0.6866      2.00000
     92      -0.6643      2.00000
     93      -0.6515      2.00000
     94      -0.6209      2.00000
     95      -0.5371      2.00000
     96      -0.5224      2.00000
     97      -0.4808      2.00000
     98      -0.4674      2.00000
     99      -0.4366      2.00000
    100      -0.4230      2.00000
    101      -0.3512      2.00000
    102      -0.0477      2.00000
    103       0.0111      2.00000
[...]
   0.216E+01 -.466E+00 0.154E+02   -.144E+01 -.227E+00 -.133E+02   0.402E+00 0.208E+00 -.507E+01   -.654E-05 0.451E-05 0.128E-05
   -.397E+01 0.146E+01 -.586E+01   0.310E+01 -.223E+01 0.569E+01   0.162E+01 0.252E+01 0.187E+01   -.896E-06 0.260E-05 -.262E-06
   -.714E+01 -.387E+01 -.683E+01   0.663E+01 0.282E+01 0.664E+01   0.106E+01 0.246E+01 0.872E+00   -.222E-06 -.121E-05 0.104E-05
   -.538E+01 0.238E+01 -.402E+01   0.490E+01 -.249E+01 0.407E+01   0.128E+01 -.265E+00 0.870E+00   -.348E-05 -.129E-05 -.455E-06
   0.317E+01 0.692E+01 -.837E+01   -.321E+01 -.714E+01 0.781E+01   -.759E+00 -.763E+00 0.179E+01   -.502E-05 0.151E-05 0.174E-05
   -.112E+02 0.131E+01 0.115E+00   0.107E+02 -.332E+00 -.421E+00   0.147E+01 -.168E+01 -.158E+00   0.324E-05 -.374E-05 0.992E-07
   -.122E+01 -.242E+01 0.467E+01   0.101E+01 0.260E+01 -.490E+01   0.787E+00 0.144E+01 -.146E+00   0.831E-06 -.302E-05 -.163E-05
   0.852E+01 0.266E+01 -.616E+01   -.760E+01 -.237E+01 0.547E+01   -.195E+01 -.727E+00 0.197E+01   -.573E-06 0.339E-05 0.343E-05
   0.944E+01 0.196E+01 -.116E+02   -.831E+01 -.174E+01 0.108E+02   -.343E+01 -.167E+01 0.234E+01   0.414E-06 0.357E-05 -.997E-06
   0.503E+01 -.926E+01 0.193E+02   -.450E+01 0.870E+01 -.185E+02   -.206E+00 0.189E+01 -.277E+01   0.251E-05 -.524E-05 -.141E-05
   -.450E+01 0.503E+00 0.704E+00   0.342E+01 0.216E+00 -.823E+00   0.186E+01 -.593E+00 -.830E+00   0.528E-05 -.315E-05 0.120E-05
   0.846E+01 0.494E+01 -.363E+01   -.820E+01 -.442E+01 0.331E+01   -.132E+01 -.125E+01 0.327E+00   0.549E-05 0.114E-05 0.125E-05
   0.310E+01 -.510E+01 0.360E+00   -.258E+01 0.456E+01 -.761E-01   -.435E+00 0.146E+01 -.660E+00   0.197E-06 0.120E-05 0.218E-05
   0.184E+01 0.287E+01 0.848E+01   -.132E+01 -.211E+01 -.795E+01   -.212E+01 -.317E+00 -.931E+00   -.141E-06 -.286E-05 -.337E-05
   0.127E+02 -.724E+01 -.318E+01   -.110E+02 0.714E+01 0.278E+01   -.379E+01 0.232E+01 0.139E+00   -.637E-05 -.579E-06 0.521E-06
   0.107E+02 0.234E+01 -.519E+01   -.942E+01 -.180E+01 0.452E+01   -.185E+01 0.526E+00 0.914E+00   -.775E-05 0.769E-06 -.125E-05
   -.999E+00 -.581E+01 -.432E+01   0.815E+00 0.526E+01 0.263E+01   0.644E+00 0.548E+00 0.222E+01   -.375E-05 0.437E-05 0.360E-05
   -.118E+02 -.227E+01 0.358E+00   0.118E+02 0.175E+01 0.218E+00   0.230E+01 0.167E+01 -.672E+00   -.668E-06 -.182E-05 -.309E-05
   -.954E+01 0.255E+01 -.796E+01   0.981E+01 -.192E+01 0.738E+01   0.241E+01 0.507E+00 0.122E+01   -.519E-06 -.320E-05 0.821E-07
   -.904E+01 0.794E+01 -.822E+01   0.835E+01 -.727E+01 0.754E+01   0.252E+01 -.175E+01 0.114E+01   0.257E-06 0.132E-05 0.156E-05
   0.266E+01 0.389E+01 0.174E+01   -.179E+01 -.373E+01 -.155E+01   -.810E+00 0.102E-01 -.878E+00   -.238E-05 0.548E-05 -.131E-06
   0.487E+01 0.109E+02 0.523E-01   -.430E+01 -.103E+02 -.260E+00   -.931E+00 -.183E+01 -.118E-01   -.125E-06 -.655E-05 -.172E-07
   -.959E+00 0.140E+01 0.336E+01   0.482E+00 -.194E+01 -.369E+01   -.762E-01 0.498E+00 -.279E-01   0.462E-05 0.377E-05 0.235E-05
   -.196E+01 0.170E+01 0.172E+01   0.135E+01 -.172E+01 -.175E+01   0.330E-01 -.887E+00 0.189E+00   0.385E-05 0.205E-05 0.239E-05
   0.325E+01 -.110E+02 -.980E+01   -.305E+01 0.110E+02 0.982E+01   -.261E+00 0.232E+01 0.144E+01   -.125E-05 -.220E-05 -.439E-06
   -.802E+01 -.106E+01 0.856E+01   0.695E+01 0.601E+00 -.844E+01   0.352E+01 0.218E-01 -.685E-01   0.401E-05 -.259E-05 0.133E-05
   -.116E+02 0.327E+00 0.885E+01   0.112E+02 -.219E+00 -.840E+01   0.199E+01 -.917E+00 -.153E+01   0.450E-06 0.495E-05 0.571E-06
   -.573E+01 -.735E+01 -.313E+01   0.547E+01 0.663E+01 0.316E+01   0.131E+01 0.217E+01 0.633E+00   -.108E-05 -.605E-06 -.417E-05
   0.103E+02 -.689E+01 -.884E+01   -.908E+01 0.691E+01 0.796E+01   -.143E+01 0.143E+01 0.282E+01   -.407E-05 -.762E-06 0.387E-05
   -.315E+01 -.511E+01 0.508E+01   0.263E+01 0.488E+01 -.444E+01   0.987E+00 0.121E+00 -.825E+00   0.753E-06 -.677E-06 -.398E-05
   -.480E+01 -.408E+00 0.328E+01   0.471E+01 0.173E+00 -.265E+01   -.894E-01 -.125E+01 0.214E-01   0.150E-05 0.392E-05 -.378E-05
   0.286E+01 -.144E+01 0.668E+01   -.232E+01 0.154E+01 -.622E+01   -.242E+01 0.704E+00 -.120E+00   -.121E-05 0.347E-05 -.371E-05
   0.489E+00 -.143E+02 0.371E+01   -.641E+00 0.132E+02 -.373E+01   -.546E+00 0.265E+01 -.121E+01   -.241E-05 0.160E-05 0.292E-05
   -.191E+01 -.642E+00 -.137E+02   0.245E+01 0.509E+00 0.128E+02   0.654E-01 0.507E-02 0.368E+01   0.155E-05 0.107E-05 -.190E-06
   -.220E+01 0.473E+01 0.527E+01   0.240E+01 -.521E+01 -.443E+01   0.405E+00 -.121E+01 -.181E+01   0.171E-06 0.245E-05 -.439E-05
   -.703E+01 0.449E+01 0.552E+01   0.613E+01 -.392E+01 -.492E+01   0.200E+01 -.919E+00 -.186E+01   0.181E-05 0.315E-05 -.136E-06
   0.195E+01 0.304E+01 -.236E+01   -.192E+01 -.216E+01 0.161E+01   -.334E+00 -.149E+01 0.117E+01   -.111E-06 -.326E-05 0.228E-05
   -.312E+01 0.547E+01 0.302E-02   0.284E+01 -.520E+01 -.657E+00   0.862E+00 -.925E+00 -.990E-02   0.287E-05 0.276E-05 0.803E-06
   -.171E+01 0.613E+01 -.919E+00   0.222E+01 -.578E+01 0.196E+00   -.209E+00 -.142E+01 0.799E+00   0.681E-06 0.106E-05 0.222E-05
   -.635E+01 -.258E+00 -.138E+01   0.593E+01 0.158E+01 0.146E+01   0.155E+01 -.173E+01 0.971E+00   -.137E-05 -.594E-05 -.258E-06
   -.356E+01 -.190E+01 -.463E+01   0.302E+01 0.179E+01 0.455E+01   0.118E+01 0.117E+00 0.979E+00   0.449E-06 -.135E-05 -.107E-05
   -.450E+01 -.899E+01 0.156E+01   0.442E+01 0.760E+01 -.980E+00   0.133E+01 0.377E+01 -.101E+01   0.313E-05 0.479E-05 0.258E-05
   -.858E+01 0.570E+01 -.246E+01   0.801E+01 -.497E+01 0.257E+01   0.239E+01 -.207E+01 -.295E+00   0.317E-05 -.902E-06 -.186E-06
   -.799E+01 -.435E+01 0.142E+02   0.751E+01 0.439E+01 -.129E+02   0.113E+01 0.129E+01 -.301E+01   0.324E-05 -.440E-05 -.480E-05
   0.111E+02 0.309E+01 0.351E+01   -.980E+01 -.253E+01 -.358E+01   -.124E+01 -.197E+01 -.253E+00   -.304E-05 -.150E-05 0.104E-05
   0.177E+01 0.125E+01 -.283E+01   -.190E+01 -.979E+00 0.298E+01   0.660E-01 -.169E+01 0.203E+01   0.410E-05 0.600E-05 -.408E-05
   0.113E+02 -.653E+01 -.329E+01   -.102E+02 0.559E+01 0.304E+01   -.324E+01 0.187E+01 0.355E+00   -.204E-05 0.416E-05 -.451E-05
   -.639E+00 0.437E+01 0.139E+02   0.390E+00 -.370E+01 -.125E+02   0.305E+00 -.343E+00 -.447E+01   0.158E-05 -.352E-05 -.669E-05
   -.495E+00 -.688E+01 -.931E+01   0.318E+00 0.628E+01 0.769E+01   0.128E+01 0.105E+01 0.316E+01   0.182E-05 0.475E-05 0.430E-05
   0.378E+00 0.975E+01 0.449E+01   -.942E-02 -.947E+01 -.348E+01   -.602E+00 -.114E+01 -.987E+00   -.240E-05 0.228E-05 -.564E-05
   -.555E+00 0.156E+01 0.780E+01   0.532E+00 -.184E+01 -.733E+01   0.139E+01 -.238E+00 -.236E+01   0.119E-05 0.280E-05 -.276E-05
   -.111E+01 -.581E+01 0.236E+00   0.963E+00 0.566E+01 0.213E+00   -.554E+00 0.210E+00 -.869E+00   0.249E-05 -.144E-05 0.135E-05
   -.833E+01 0.115E+01 0.933E+00   0.775E+01 -.634E+00 -.429E+00   0.152E+01 -.131E+01 -.643E+00   0.403E-06 0.126E-05 -.144E-05
 -----------------------------------------------------------------------------------------------
   -.299E+00 -.474E-02 0.120E+00   -.391E-13 0.343E-12 -.444E-14   0.299E+00 0.475E-02 -.120E+00   0.111E-05 0.259E-06 -.158E-05
 
 
 POSITION                                       TOTAL-FORCE (eV/Angst)
 -----------------------------------------------------------------------------------
      0.03903     10.92774     10.89966         0.121576     -0.016642      0.056032
     10.89273     13.65456      2.79077         0.975194      0.107571     -0.774410
     10.87116     16.37361      5.53501        -0.328752      0.744302     -1.461971
     10.95609     19.13430      8.28066        -0.089533      0.254031     -1.193448
      2.81579      0.16738      2.72171        -0.975085     -0.987978      1.452044
      2.72288      2.73257      5.43391        -0.085874      0.698019      1.333442
      2.75420      5.51215      8.26334        -0.505482     -0.813676     -0.959718
     13.68043     19.16341     11.00864        -0.017796      0.087557     -1.181695
     16.50697     21.83828     16.49042        -0.859873      2.747092     -0.311098
     16.39228     13.66954      8.26178         0.464879      0.589849     -0.816869
      5.53021      5.63443     10.96358        -0.183585     -2.640609     -0.051562
      5.58352      8.17985     13.62510        -1.881738      1.870369      1.255184
     19.16031     10.98265      8.31548        -1.011028     -0.368164     -2.832279
      8.29343      2.81653     10.89766        -0.552823     -2.233857      0.137813
     19.10663     16.35355     13.58651         0.879036      0.217919     -0.051959
      8.13766      8.25374     16.34650         0.700745     -0.997279      1.013604
     13.59823      2.86749     10.89419         0.535911     -0.758493      0.310597
      2.83326      5.52069      2.77128        -1.899018     -0.499241      0.186509
     13.66436      8.29327     16.46662        -0.170680     -0.281985     -0.626243
      2.69927     10.95701      8.27269         2.005711      1.267186     -1.519124
      5.40946      2.64806      2.77782         0.850501      1.207108     -1.093763
      5.47439      5.61846      5.58017         0.604137     -0.421601     -0.414339
      5.59492      8.22949      8.09376        -1.083993      0.066437      1.411241
      5.44773     10.88778     10.85854        -0.035674      0.579783      0.829084
      8.14028      2.83207      5.45741         1.689656     -0.274664     -0.128520
      8.26806      5.30702      8.22959         0.051595      0.525137     -0.343598
      8.15731      8.32342     10.89048         0.558171     -2.112470      0.534284
      8.38718     11.03930     13.76631        -1.478791     -1.500842     -0.615035
     10.90284      2.86658      8.21690         0.075959     -2.631514     -0.263236
     11.03913      5.59498     10.92422        -0.847039     -2.375631      0.826159
     11.15673      8.36356     13.59913        -1.932858     -1.906507     -0.042154
     10.86031     10.79666     16.26751        -0.579416      2.742289      1.544719
     16.39489     16.42730     21.77507         0.618449     -0.042157      0.143098
     16.39306      8.31071     13.73978        -0.218788     -0.497458      0.044595
      5.58143     10.91516      5.51046         0.109264      1.123799     -0.737317
      5.42277     13.58168      8.20944         0.819837      0.895905     -2.107118
      8.34599     16.35276     13.77004        -2.012931     -0.860368     -1.345941
      8.27198      8.17919      5.43407        -0.995524      0.692034      1.602785
      8.23296     10.95400      8.25943        -0.802027      0.660204     -1.095855
      8.25910     13.77355     10.90548        -1.338058     -2.522274     -0.147427
     10.81646      5.46382      5.53721         1.337891      0.988003     -1.091055
     10.79946      8.14923      8.34785         0.908611      0.850745     -1.013696
     10.82075     10.82862     10.92190         1.180178      0.884631      0.120705
     11.02344     13.74537     13.70424         0.667329     -1.152743     -0.512377
     13.80353     16.38835     19.02834        -2.636360     -0.872895     -0.302925
     13.73282      8.15110     10.90552        -0.759443      0.684244      0.419915
     13.54144     10.95489     13.71557         1.373045      0.933454      0.182735
     13.62409     13.64728     16.36805        -0.046526     -0.613632      1.505559
      8.28024     19.10550     10.92044         0.176487      0.154069      0.447291
     19.08118     10.95344     13.57611         0.192142      0.478799      0.954021
     19.06424     13.70432     16.37481         0.493609     -0.155745      0.093790
      8.26280     16.38706      8.28406        -1.566130      0.145616     -1.251680
     11.06198      8.26320      2.82379        -2.058283     -0.854427     -0.920336
     10.98045     11.02359      5.37908        -1.144740     -0.310437      0.925617
     10.95140     13.65158      8.24401        -1.757348      0.189057     -0.293396
     10.99159     16.16621     10.93747        -0.270271      2.618632      0.206254
     13.70413      8.25550      5.51576        -0.273823     -1.505775     -0.407766
     13.77145     10.84623      8.27042        -0.586849      1.586947     -0.999464
     13.62953     13.77718     10.97678         2.500348     -1.840189      0.540091
     13.77349     16.42358     13.50179        -2.316593      0.573931      1.647591
     16.31121      8.12780      8.21098         0.914830      2.033829     -1.351706
     16.54133     10.78796     10.88841        -0.253415      0.668178      1.505429
     16.45370     13.73501     13.62244        -0.411295     -0.891228      2.404240
     16.33700     16.29157     16.42964         0.405939      1.656294     -1.018395
      1.43832      1.32419      1.32177        -0.945537      1.147201      0.011478
      1.34239      4.09714      4.18265         0.109321      0.534657     -0.944585
      1.29317      6.86585      6.75023         0.571014      0.052468      1.514161
      1.46434      9.63046      9.49119        -1.208182     -1.700487      1.799022
      4.11179      1.47353      4.16749         0.253818     -1.760937      0.344715
      4.22247      4.15775      6.76278        -1.693889     -0.645089      1.461191
      4.14680      6.77674      9.62276        -0.327127      1.851123     -0.714269
      3.95642      9.70594     12.30891         2.020287     -1.230507     -0.078529
      6.83339      1.57957      6.73487        -0.155306     -2.081392      2.101538
      6.91678      4.05605      9.58927        -1.322041      0.704359      0.277832
      6.79477      6.83668     12.35181         1.740311      0.593242     -0.938599
      6.79547      9.63696     15.20499         1.130035     -0.485183     -2.965289
      9.60326      1.29269      9.47121         0.755373      1.749154      1.711928
      9.63290      4.02881     12.22957         0.543388      1.411069      0.684514
      9.51463      6.94698     14.84363         0.793701     -0.379314      0.921645
      9.57844      9.61098     17.72159        -0.796031     -0.991081      1.225310
      4.04787      4.19230      1.37247         0.972880     -0.703446     -0.463931
      4.05189      6.81019      4.20294         0.576596      1.626554     -0.373643
      4.20752      9.64282      6.76920        -1.018897     -0.438489      1.278508
      4.20329     12.41779      9.55761        -2.299345     -1.452411      1.524488
      6.68338      4.05702      4.28303         0.324085      1.332226     -1.974825
      6.93586      6.80087      6.95196         0.783280      0.125574     -0.948945
      6.88961      9.65679      9.51535        -1.063145     -0.729404      0.004833
      6.87129     12.18219     12.33824         0.084914      0.916726     -0.376301
      9.64267      4.03575      6.82523        -1.600202      0.440637     -0.408800
      9.63263      6.61451      9.60478        -2.058786      2.226874     -0.265591
      9.60647      9.46154     12.32711        -0.582214      1.065352      0.239521
      9.59705     12.45211     15.04075         0.459362     -0.008041      0.528248
     12.15009      4.12063      9.55909         2.339556      1.150152     -0.096438
     12.23206      6.79415     12.31846         2.674666      1.134070      0.648109
     12.24849      9.65187     15.03017         1.833621     -1.079063      0.454704
     12.22651     12.25950     17.81767         0.057242      0.167540     -0.687680
      6.89175      6.94923      1.43506        -0.368140     -1.234108     -0.219986
      6.93953      9.58023      4.13625        -0.552961     -0.038826     -0.361661
      6.90389     12.37021      6.86234        -0.571892     -0.906968      0.156902
      6.86919     14.82390      9.40347        -0.058152      2.381245      1.455319
      9.46684      6.89516      4.07408         2.448320     -0.433530      0.057749
      9.47628      9.63415      6.90838         1.592036     -0.809158     -1.079436
      9.51689     12.21445      9.57597         1.046420      1.457756      0.663847
      9.65201     14.88055     12.22379        -0.171929      1.455745      1.935578
     12.22533      6.86911      6.89986         0.462956     -0.111512     -0.189883
     12.29539      9.63050      9.54354        -0.184228     -1.487164      0.653851
     12.41350     12.21521     12.19642        -1.881644      0.797287      0.346232
     12.37221     15.04853     15.12745        -0.698222      1.587612     -1.228261
     14.95594      6.82320      9.36438         0.608963     -0.128012      2.751203
     14.98912      9.73602     12.40275         0.604763     -1.697303     -0.970149
     14.98761     12.30289     15.13927         1.094598     -0.349570     -1.252167
     15.05272     14.95389     17.71471        -0.306006     -0.603366      0.425057
      9.59177      9.62618      1.41060         0.580296     -0.657578     -0.663900
      9.46161     12.37962      4.06281         0.297808     -1.067400      0.075762
      9.43161     15.06771      6.78186         1.138967     -0.408372      1.046034
      9.61813     17.68738      9.57811         0.642539      0.005330      0.899456
     12.28372      9.45864      4.21730         1.254525      2.368820     -0.425698
     12.21004     12.40858      6.85304         1.827350     -1.336239     -0.186088
     12.29316     14.89851      9.62247         0.645922      1.326977     -1.685831
     12.26499     17.84971     12.28794         0.052906     -1.405937     -0.320301
     15.03253      9.69755      6.67934        -0.068254     -1.421200      2.184479
     15.28764     12.15934      9.59070        -2.184354      0.932779      0.097251
     15.10620     15.03740     12.46202         0.056843      0.322330     -3.125384
     14.96545     17.77051     14.88398         1.107068      0.452622      1.538963
     17.85699      9.49631      9.51700        -0.234059     -0.856222      0.014814
     17.66810     12.35076     12.35430         1.369055     -0.521874     -1.885128
     17.80701     15.08018     15.05212        -0.696836      0.052948     -0.421033
     17.67466     17.79022     17.77639         0.949007     -0.793787     -0.138860
 -----------------------------------------------------------------------------------
    total drift:                               -0.000009      0.000001     -0.000008


--------------------------------------------------------------------------------------------------------



  FREE ENERGIE OF THE ION-ELECTRON SYSTEM (eV)
  ---------------------------------------------------
  free  energy   TOTEN  =      -679.63814530 eV

  energy  without entropy=     -679.63814530  energy(sigma->0) =     -679.63814530
 


--------------------------------------------------------------------------------------------------------


    POTLOK:  cpu time    1.0000: real time    1.0002


--------------------------------------------------------------------------------------------------------


     LOOP+:  cpu time 1636.9945: real time 1637.4830
    4ORBIT:  cpu time    0.0000: real time    0.0000

 total amount of memory used by VASP MPI-rank0   221701. kBytes
=======================================================================

   base      :      30000. kBytes
   nonl-proj :      10690. kBytes
   fftplans  :      66746. kBytes
   grid      :      26864. kBytes
   one-center:         24. kBytes
   wavefun   :      87377. kBytes
 
  
  
 General timing and accounting informations for this job:
 ========================================================
  
                  Total CPU time used (sec):     1660.997
                            User time (sec):     1659.853
                          System time (sec):        1.144
                         Elapsed time (sec):     1662.497
  
                   Maximum memory used (kb):      338752.
                   Average memory used (kb):           0.
  
                          Minor page faults:       147294
                          Major page faults:            0
                 Voluntary context switches:         1296
