<?xml version="1.0" encoding="ISO-8859-1"?>
<modeling>
 <generator>
  <i name="program" type="string">vasp </i>
  <i name="version" type="string">5.4.4.18Apr17-6-g9f103f2a35  </i>
  <i name="subversion" type="string">(build Nov 08 2017 09:05:29) complex            parallel </i>
  <i name="platform" type="string">Intel_17.33 </i>
  <i name="date" type="string">2020 07 18 </i>
  <i name="time" type="string">21:53:28 </i>
 </generator>
 <incar>
  <i type="string" name="SYSTEM">potpaw_PBE@./ARUN.APL1ZEROSTATE</i>
  <i type="string" name="PREC">accurate</i>
  <i type="string" name="ALGO">Normal</i>
  <i type="int" name="NSIM">     4</i>
  <i type="logical" name="ADDGRID"> T  </i>
  <i type="int" name="NELM">   120</i>
  <i type="int" name="NELMIN">     4</i>
  <i name="EDIFF">      0.00000001</i>
  <i type="int" name="NSW">     0</i>
  <i type="int" name="ISYM">     2</i>
  <i name="ENMAX">    500.00000000</i>
  <i type="logical" name="LREAL"> F  </i>
  <i type="logical" name="LPLANE"> T  </i>
  <i type="int" name="ISMEAR">     0</i>
  <i name="SIGMA">      0.01000000</i>
  <i type="logical" name="LWAVE"> F  </i>
  <i type="logical" name="LCHARG"> F  </i>
  <i type="logical" name="LELF"> F  </i>
  <i type="logical" name="LAECHG"> F  </i>
  <v type="int" name="KPOINT_BSE">    -1     0     0     0</v>
  <i type="int" name="NELM">   120</i>
 </incar>
 <structure name="primitive_cell" >
  <crystal>
   <varray name="basis" >
    <v>       0.00000000      10.93733369      10.93733369 </v>
    <v>      10.93733369       0.00000000      10.93733369 </v>
    <v>      10.93733369      10.93733369       0.00000000 </v>
   </varray>
   <i name="volume">   2616.76295363 </i>
   <varray name="rec_basis" >
    <v>      -0.04571498       0.04571498       0.04571498 </v>
    <v>       0.04571498      -0.04571498       0.04571498 </v>
    <v>       0.04571498       0.04571498      -0.04571498 </v>
   </varray>
  </crystal>
  <varray name="positions" >
   <v>      -0.00394511       0.00050103       0.00306762 </v>
   <v>       0.05520753       0.06564213       0.06586334 </v>
   <v>       0.05305841      -0.18710593       0.06513207 </v>
   <v>      -0.19279620       0.06057516       0.07330902 </v>
   <v>       0.06605855       0.06291233      -0.18593751 </v>
   <v>      -0.24431163       0.00068344       0.24611056 </v>
   <v>       0.00630045      -0.24601650      -0.00215711 </v>
   <v>      -0.24758324       0.00468337      -0.00296866 </v>
   <v>      -0.24608565       0.25260549      -0.00180438 </v>
   <v>      -0.00589571       0.00435150      -0.24728945 </v>
   <v>       0.00747231      -0.01141653       0.25470261 </v>
   <v>       0.24780966      -0.25143683       0.00970513 </v>
   <v>       0.24907207      -0.00780900      -0.24759936 </v>
   <v>       0.00114333       0.25703541      -0.24563926 </v>
   <v>       0.00335089       0.24549524       0.01195246 </v>
   <v>       0.25383730       0.00132272      -0.00540122 </v>
   <v>       0.00825795      -0.25698712       0.25383334 </v>
   <v>      -0.17445912       0.29986254       0.06187286 </v>
   <v>      -0.18395742      -0.18697384       0.30484336 </v>
   <v>      -0.18295146       0.30643738      -0.18504985 </v>
   <v>       0.30288371      -0.18473446       0.06547026 </v>
   <v>       0.06992710      -0.19593961       0.30682165 </v>
   <v>       0.05286145      -0.18272218      -0.18461417 </v>
   <v>      -0.18837019      -0.19134578       0.06710184 </v>
   <v>      -0.19325145       0.06897748      -0.18959181 </v>
   <v>       0.31912789       0.05233480      -0.18725993 </v>
   <v>      -0.18754835       0.06140008       0.32290669 </v>
   <v>       0.06364526       0.32194211      -0.19884203 </v>
   <v>       0.32169447      -0.19214171      -0.19246490 </v>
   <v>       0.23474818      -0.23922114      -0.24840562 </v>
   <v>      -0.25491056       0.24770623       0.25037971 </v>
   <v>       0.24787702       0.24393234      -0.23999057 </v>
   <v>      -0.25924051      -0.25342135       0.24637884 </v>
   <v>       0.25052143      -0.25171996       0.26102716 </v>
   <v>      -0.26343668       0.26344873      -0.25848777 </v>
   <v>       0.06823164       0.06297560      -0.43286348 </v>
   <v>       0.30759522      -0.43084822       0.06324919 </v>
   <v>       0.05569521      -0.43166462       0.31329370 </v>
   <v>      -0.43665871       0.05383171       0.06440321 </v>
   <v>       0.06868207       0.30381061      -0.43825788 </v>
   <v>       0.30980809       0.06836882      -0.43388770 </v>
   <v>       0.06934537       0.05613976       0.31395690 </v>
   <v>      -0.43986766       0.31967651       0.05946500 </v>
   <v>      -0.44207140       0.06097870       0.32371429 </v>
   <v>       0.31714308       0.06527612       0.05745829 </v>
   <v>       0.06990875       0.31112429       0.06481639 </v>
   <v>       0.06770611      -0.45193695       0.07671350 </v>
   <v>       0.24085188      -0.48842038       0.24436898 </v>
   <v>      -0.49276817      -0.00168970       0.25102183 </v>
   <v>      -0.25172140       0.00231007       0.49349394 </v>
   <v>      -0.49616149       0.25167876       0.00013744 </v>
   <v>       0.00075068       0.25322553       0.24136134 </v>
   <v>      -0.26161706       0.49608527      -0.23677599 </v>
   <v>      -0.24989389       0.00730534      -0.25183770 </v>
   <v>      -0.25067458      -0.25279496       0.49844497 </v>
   <v>       0.49525022      -0.25303622      -0.00004553 </v>
   <v>       0.24885401       0.24796791       0.00098501 </v>
   <v>       0.24417645       0.25266032      -0.49635319 </v>
   <v>       0.25321686      -0.49784272      -0.00341135 </v>
   <v>       0.49846450      -0.25296553      -0.24267322 </v>
   <v>      -0.24741392      -0.25802625       0.00205263 </v>
   <v>       0.25862945      -0.00240176      -0.49878175 </v>
   <v>       0.00306872      -0.49876299      -0.24826881 </v>
   <v>      -0.00447375       0.26346801       0.49960573 </v>
   <v>      -0.01195501      -0.24828427      -0.48965922 </v>
   <v>      -0.25843754      -0.49582011       0.00632083 </v>
   <v>       0.00682048       0.49215017       0.25211529 </v>
   <v>      -0.49645467      -0.00639727      -0.25056020 </v>
   <v>       0.49044526       0.24956673       0.26197699 </v>
   <v>       0.24954481       0.00383324       0.25521122 </v>
   <v>       0.00126022      -0.25053106      -0.25813570 </v>
   <v>       0.29542841      -0.41855137      -0.18370001 </v>
   <v>       0.30110932      -0.42294440       0.30365517 </v>
   <v>      -0.19134597      -0.44781271      -0.18389688 </v>
   <v>      -0.43160046      -0.19419183       0.31407046 </v>
   <v>      -0.19469034      -0.18565466      -0.43807584 </v>
   <v>       0.31454382      -0.18826794       0.30664469 </v>
   <v>      -0.19316958       0.32125480       0.30698683 </v>
   <v>      -0.18189307      -0.44293146       0.32038918 </v>
   <v>      -0.43850410       0.30849261       0.32142382 </v>
   <v>      -0.18206962      -0.19263573      -0.19137096 </v>
   <v>       0.32236299       0.30421056      -0.18784734 </v>
   <v>      -0.43654966      -0.18723570      -0.18467035 </v>
   <v>       0.32684613      -0.19286277      -0.43668227 </v>
   <v>      -0.44100526       0.32078769      -0.19682432 </v>
   <v>       0.32303373       0.30859886      -0.44218337 </v>
   <v>      -0.20216708       0.31978810      -0.43730487 </v>
   <v>      -0.00242049      -0.48986139      -0.00090655 </v>
   <v>      -0.49403584       0.49643527       0.00919138 </v>
   <v>       0.00843762       0.49782951       0.49111878 </v>
   <v>      -0.49542284       0.00148851      -0.00753833 </v>
   <v>      -0.00307147      -0.00603452      -0.49498086 </v>
   <v>       0.49574187       0.00807892      -0.49776895 </v>
   <v>      -0.43064043      -0.18517644      -0.44450709 </v>
   <v>       0.06145738      -0.45076596      -0.17481072 </v>
   <v>      -0.17500547      -0.43480266       0.05611235 </v>
   <v>      -0.18610094      -0.43079651      -0.43801265 </v>
   <v>      -0.20647150       0.06622999      -0.43818029 </v>
   <v>      -0.43342125      -0.43725310       0.05849896 </v>
   <v>       0.07056744      -0.43971361      -0.44252467 </v>
   <v>       0.05630445      -0.20011986      -0.43245918 </v>
   <v>      -0.43639575       0.06381933      -0.43259661 </v>
   <v>      -0.43231340       0.05237848      -0.19004650 </v>
   <v>      -0.43344440      -0.42715376      -0.19168664 </v>
   <v>      -0.43880353      -0.20404416       0.07396610 </v>
   <v>      -0.24943154      -0.49191511       0.25875452 </v>
   <v>      -0.49144667       0.49505322      -0.24890622 </v>
   <v>      -0.49123696      -0.25474911       0.49284256 </v>
   <v>      -0.49454797       0.49026440       0.25555803 </v>
   <v>      -0.24936358       0.24645083      -0.49132170 </v>
   <v>       0.26046634      -0.49722298       0.48461713 </v>
   <v>       0.24435568      -0.48819129      -0.25268541 </v>
   <v>      -0.24907780      -0.49794376      -0.49418331 </v>
   <v>      -0.49802794       0.25318757       0.49955173 </v>
   <v>       0.24337730      -0.24628632      -0.49812237 </v>
   <v>       0.49399428      -0.25062615       0.27068586 </v>
   <v>      -0.49968643       0.25343631      -0.25215036 </v>
   <v>       0.31823284       0.06604171       0.30442227 </v>
   <v>       0.31163822       0.32397958       0.31016551 </v>
   <v>       0.07573423       0.31586273       0.29519871 </v>
   <v>       0.30620178       0.31211884       0.07394149 </v>
   <v>       0.26168325       0.24851177       0.25201195 </v>
   <v>      -0.25099593      -0.24684233      -0.25946618 </v>
   <v>      -0.43891599       0.31444615      -0.44431703 </v>
   <v>      -0.45150590      -0.43337575      -0.43165821 </v>
   <v>      -0.44309191      -0.42984110       0.30816001 </v>
   <v>       0.31445753      -0.44189187      -0.43394144 </v>
   <v>       0.49965418       0.49893436       0.49040633 </v>
  </varray>
 </structure>
 <varray name="primitive_index" >
  <v type="int" >        1 </v>
  <v type="int" >       65 </v>
  <v type="int" >       77 </v>
  <v type="int" >       68 </v>
  <v type="int" >      113 </v>
  <v type="int" >       20 </v>
  <v type="int" >       13 </v>
  <v type="int" >        4 </v>
  <v type="int" >        8 </v>
  <v type="int" >       49 </v>
  <v type="int" >       17 </v>
  <v type="int" >       14 </v>
  <v type="int" >       50 </v>
  <v type="int" >       53 </v>
  <v type="int" >        5 </v>
  <v type="int" >        2 </v>
  <v type="int" >       29 </v>
  <v type="int" >       72 </v>
  <v type="int" >       96 </v>
  <v type="int" >      120 </v>
  <v type="int" >       78 </v>
  <v type="int" >       93 </v>
  <v type="int" >      125 </v>
  <v type="int" >       80 </v>
  <v type="int" >      116 </v>
  <v type="int" >      114 </v>
  <v type="int" >       84 </v>
  <v type="int" >      117 </v>
  <v type="int" >      126 </v>
  <v type="int" >       62 </v>
  <v type="int" >       24 </v>
  <v type="int" >       54 </v>
  <v type="int" >       32 </v>
  <v type="int" >       30 </v>
  <v type="int" >       56 </v>
  <v type="int" >       97 </v>
  <v type="int" >       74 </v>
  <v type="int" >       89 </v>
  <v type="int" >       67 </v>
  <v type="int" >      101 </v>
  <v type="int" >       98 </v>
  <v type="int" >       81 </v>
  <v type="int" >       71 </v>
  <v type="int" >       83 </v>
  <v type="int" >       66 </v>
  <v type="int" >       69 </v>
  <v type="int" >       73 </v>
  <v type="int" >       26 </v>
  <v type="int" >       19 </v>
  <v type="int" >       36 </v>
  <v type="int" >        7 </v>
  <v type="int" >       21 </v>
  <v type="int" >       60 </v>
  <v type="int" >       52 </v>
  <v type="int" >       48 </v>
  <v type="int" >       15 </v>
  <v type="int" >        6 </v>
  <v type="int" >       38 </v>
  <v type="int" >       10 </v>
  <v type="int" >       63 </v>
  <v type="int" >       16 </v>
  <v type="int" >       34 </v>
  <v type="int" >       57 </v>
  <v type="int" >       37 </v>
  <v type="int" >       45 </v>
  <v type="int" >       12 </v>
  <v type="int" >       25 </v>
  <v type="int" >       51 </v>
  <v type="int" >       23 </v>
  <v type="int" >       18 </v>
  <v type="int" >       61 </v>
  <v type="int" >      122 </v>
  <v type="int" >       90 </v>
  <v type="int" >      124 </v>
  <v type="int" >       95 </v>
  <v type="int" >      112 </v>
  <v type="int" >       94 </v>
  <v type="int" >       88 </v>
  <v type="int" >       92 </v>
  <v type="int" >       87 </v>
  <v type="int" >      128 </v>
  <v type="int" >      118 </v>
  <v type="int" >      127 </v>
  <v type="int" >      110 </v>
  <v type="int" >      119 </v>
  <v type="int" >      102 </v>
  <v type="int" >      104 </v>
  <v type="int" >        9 </v>
  <v type="int" >       11 </v>
  <v type="int" >       41 </v>
  <v type="int" >        3 </v>
  <v type="int" >       33 </v>
  <v type="int" >       35 </v>
  <v type="int" >      111 </v>
  <v type="int" >      121 </v>
  <v type="int" >       76 </v>
  <v type="int" >      108 </v>
  <v type="int" >      100 </v>
  <v type="int" >       75 </v>
  <v type="int" >      105 </v>
  <v type="int" >      109 </v>
  <v type="int" >       99 </v>
  <v type="int" >      115 </v>
  <v type="int" >      123 </v>
  <v type="int" >       79 </v>
  <v type="int" >       28 </v>
  <v type="int" >       59 </v>
  <v type="int" >       47 </v>
  <v type="int" >       27 </v>
  <v type="int" >       40 </v>
  <v type="int" >       42 </v>
  <v type="int" >       58 </v>
  <v type="int" >       44 </v>
  <v type="int" >       39 </v>
  <v type="int" >       46 </v>
  <v type="int" >       31 </v>
  <v type="int" >       55 </v>
  <v type="int" >       82 </v>
  <v type="int" >       86 </v>
  <v type="int" >       85 </v>
  <v type="int" >       70 </v>
  <v type="int" >       22 </v>
  <v type="int" >       64 </v>
  <v type="int" >      103 </v>
  <v type="int" >      107 </v>
  <v type="int" >       91 </v>
  <v type="int" >      106 </v>
  <v type="int" >       43 </v>
 </varray>
 <kpoints>
  <generation param="Gamma">
   <v type="int" name="divisions">       2        2        2 </v>
   <v name="usershift">      0.00000000       0.00000000       0.00000000 </v>
   <v name="genvec1">      0.50000000       0.00000000       0.00000000 </v>
   <v name="genvec2">      0.00000000       0.50000000       0.00000000 </v>
   <v name="genvec3">      0.00000000       0.00000000       0.50000000 </v>
   <v name="shift">      0.00000000       0.00000000       0.00000000 </v>
  </generation>
  <varray name="kpointlist" >
   <v>       0.00000000       0.00000000       0.00000000 </v>
   <v>       0.50000000       0.00000000       0.00000000 </v>
   <v>       0.00000000       0.50000000       0.00000000 </v>
   <v>       0.50000000       0.50000000       0.00000000 </v>
   <v>       0.00000000       0.00000000       0.50000000 </v>
   <v>       0.50000000       0.00000000       0.50000000 </v>
   <v>       0.00000000       0.50000000       0.50000000 </v>
   <v>       0.50000000       0.50000000       0.50000000 </v>
  </varray>
  <varray name="weights" >
   <v>       0.12500000 </v>
   <v>       0.12500000 </v>
   <v>       0.12500000 </v>
   <v>       0.12500000 </v>
   <v>       0.12500000 </v>
   <v>       0.12500000 </v>
   <v>       0.12500000 </v>
   <v>       0.12500000 </v>
  </varray>
 </kpoints>
 <parameters>
  <separator name="general" >
   <i type="string" name="SYSTEM">potpaw_PBE@./ARUN.APL1ZEROSTATE</i>
   <i type="logical" name="LCOMPAT"> F  </i>
  </separator>
  <separator name="electronic" >
   <i type="string" name="PREC">accura</i>
   <i name="ENMAX">    500.00000000</i>
   <i name="ENAUG">    322.06900000</i>
   <i name="EDIFF">      0.00000001</i>
   <i type="int" name="IALGO">    38</i>
   <i type="int" name="IWAVPR">    10</i>
   <i type="int" name="NBANDS">   322</i>
   <i name="NELECT">    512.00000000</i>
   <i type="int" name="TURBO">     0</i>
   <i type="int" name="IRESTART">     0</i>
   <i type="int" name="NREBOOT">     0</i>
   <i type="int" name="NMIN">     0</i>
   <i name="EREF">      0.00000000</i>
   <separator name="electronic smearing" >
    <i type="int" name="ISMEAR">     0</i>
    <i name="SIGMA">      0.01000000</i>
    <i name="KSPACING">      0.50000000</i>
    <i type="logical" name="KGAMMA"> T  </i>
   </separator>
   <separator name="electronic projectors" >
    <i type="logical" name="LREAL"> F  </i>
    <v name="ROPT">      0.00000000</v>
    <i type="int" name="LMAXPAW">  -100</i>
    <i type="int" name="LMAXMIX">     2</i>
    <i type="logical" name="NLSPLINE"> F  </i>
   </separator>
   <separator name="electronic startup" >
    <i type="int" name="ISTART">     0</i>
    <i type="int" name="ICHARG">     2</i>
    <i type="int" name="INIWAV">     1</i>
   </separator>
   <separator name="electronic spin" >
    <i type="int" name="ISPIN">     1</i>
    <i type="logical" name="LNONCOLLINEAR"> F  </i>
    <v name="MAGMOM">      1.00000000      1.00000000      1.00000000      1.00000000      1.00000000      1.00000000      1.00000000      1.00000000      1.00000000      1.00000000      1.00000000      1.00000000      1.00000000      1.00000000      1.00000000      1.00000000      1.00000000      1.00000000      1.00000000      1.00000000
      1.00000000      1.00000000      1.00000000      1.00000000      1.00000000      1.00000000      1.00000000      1.00000000      1.00000000      1.00000000      1.00000000      1.00000000      1.00000000      1.00000000      1.00000000      1.00000000      1.00000000      1.00000000      1.00000000      1.00000000
      1.00000000      1.00000000      1.00000000      1.00000000      1.00000000      1.00000000      1.00000000      1.00000000      1.00000000      1.00000000      1.00000000      1.00000000      1.00000000      1.00000000      1.00000000      1.00000000      1.00000000      1.00000000      1.00000000      1.00000000
      1.00000000      1.00000000      1.00000000      1.00000000      1.00000000      1.00000000      1.00000000      1.00000000      1.00000000      1.00000000      1.00000000      1.00000000      1.00000000      1.00000000      1.00000000      1.00000000      1.00000000      1.00000000      1.00000000      1.00000000
      1.00000000      1.00000000      1.00000000      1.00000000      1.00000000      1.00000000      1.00000000      1.00000000      1.00000000      1.00000000      1.00000000      1.00000000      1.00000000      1.00000000      1.00000000      1.00000000      1.00000000      1.00000000      1.00000000      1.00000000
      1.00000000      1.00000000      1.00000000      1.00000000      1.00000000      1.00000000      1.00000000      1.00000000      1.00000000      1.00000000      1.00000000      1.00000000      1.00000000      1.00000000      1.00000000      1.00000000      1.00000000      1.00000000      1.00000000      1.00000000
      1.00000000      1.00000000      1.00000000      1.00000000      1.00000000      1.00000000      1.00000000      1.00000000</v>
    <i name="NUPDOWN">     -1.00000000</i>
    <i type="logical" name="LSORBIT"> F  </i>
    <v name="SAXIS">      0.00000000      0.00000000      1.00000000</v>
    <i type="logical" name="LSPIRAL"> F  </i>
    <v name="QSPIRAL">      0.00000000      0.00000000      0.00000000</v>
    <i type="logical" name="LZEROZ"> F  </i>
   </separator>
   <separator name="electronic exchange-correlation" >
    <i type="logical" name="LASPH"> F  </i>
    <i type="logical" name="LMETAGGA"> F  </i>
   </separator>
   <separator name="electronic convergence" >
    <i type="int" name="NELM">   120</i>
    <i type="int" name="NELMDL">    -5</i>
    <i type="int" name="NELMIN">     4</i>
    <i name="ENINI">    500.00000000</i>
    <separator name="electronic convergence detail" >
     <i type="logical" name="LDIAG"> T  </i>
     <i type="logical" name="LSUBROT"> F  </i>
     <i name="WEIMIN">      0.00000000</i>
     <i name="EBREAK">      0.00000000</i>
     <i name="DEPER">      0.30000000</i>
     <i type="int" name="NRMM">     4</i>
     <i name="TIME">      0.40000000</i>
    </separator>
   </separator>
   <separator name="electronic mixer" >
    <i name="AMIX">      0.40000000</i>
    <i name="BMIX">      1.00000000</i>
    <i name="AMIN">      0.10000000</i>
    <i name="AMIX_MAG">      1.60000000</i>
    <i name="BMIX_MAG">      1.00000000</i>
    <separator name="electronic mixer details" >
     <i type="int" name="IMIX">     4</i>
     <i type="logical" name="MIXFIRST"> F  </i>
     <i type="int" name="MAXMIX">   -45</i>
     <i name="WC">    100.00000000</i>
     <i type="int" name="INIMIX">     1</i>
     <i type="int" name="MIXPRE">     1</i>
     <i type="int" name="MREMOVE">     5</i>
    </separator>
   </separator>
   <separator name="electronic dipolcorrection" >
    <i type="logical" name="LDIPOL"> F  </i>
    <i type="logical" name="LMONO"> F  </i>
    <i type="int" name="IDIPOL">     0</i>
    <i name="EPSILON">      1.00000000</i>
    <v name="DIPOL">   -100.00000000   -100.00000000   -100.00000000</v>
    <i name="EFIELD">      0.00000000</i>
   </separator>
  </separator>
  <separator name="grids" >
   <i type="int" name="NGX">   120</i>
   <i type="int" name="NGY">   120</i>
   <i type="int" name="NGZ">   120</i>
   <i type="int" name="NGXF">   240</i>
   <i type="int" name="NGYF">   240</i>
   <i type="int" name="NGZF">   240</i>
   <i type="logical" name="ADDGRID"> T  </i>
  </separator>
  <separator name="ionic" >
   <i type="int" name="NSW">     0</i>
   <i type="int" name="IBRION">    -1</i>
   <i type="int" name="MDALGO">     0</i>
   <i type="int" name="ISIF">     2</i>
   <i name="PSTRESS">      0.00000000</i>
   <i name="EDIFFG">      0.00000010</i>
   <i type="int" name="NFREE">     0</i>
   <i name="POTIM">      0.50000000</i>
   <i name="SMASS">     -3.00000000</i>
   <i name="SCALEE">      1.00000000</i>
  </separator>
  <separator name="ionic md" >
   <i name="TEBEG">      0.00010000</i>
   <i name="TEEND">      0.00010000</i>
   <i type="int" name="NBLOCK">     1</i>
   <i type="int" name="KBLOCK">     1</i>
   <i type="int" name="NPACO">   256</i>
   <i name="APACO">     16.00000000</i>
  </separator>
  <separator name="symmetry" >
   <i type="int" name="ISYM">     2</i>
   <i name="SYMPREC">      0.00001000</i>
  </separator>
  <separator name="dos" >
   <i type="int" name="LORBIT">     0</i>
   <v name="RWIGS">     -1.00000000</v>
   <i type="int" name="NEDOS">   301</i>
   <i name="EMIN">     10.00000000</i>
   <i name="EMAX">    -10.00000000</i>
   <i name="EFERMI">      0.00000000</i>
  </separator>
  <separator name="writing" >
   <i type="int" name="NWRITE">     2</i>
   <i type="logical" name="LWAVE"> F  </i>
   <i type="logical" name="LDOWNSAMPLE"> F  </i>
   <i type="logical" name="LCHARG"> F  </i>
   <i type="logical" name="LPARD"> F  </i>
   <i type="logical" name="LVTOT"> F  </i>
   <i type="logical" name="LVHAR"> F  </i>
   <i type="logical" name="LELF"> F  </i>
   <i type="logical" name="LOPTICS"> F  </i>
   <v name="STM">      0.00000000      0.00000000      0.00000000      0.00000000      0.00000000      0.00000000      0.00000000</v>
  </separator>
  <separator name="performance" >
   <i type="int" name="NPAR">     2</i>
   <i type="int" name="NSIM">     4</i>
   <i type="int" name="NBLK">    -1</i>
   <i type="logical" name="LPLANE"> T  </i>
   <i type="logical" name="LSCALAPACK"> T  </i>
   <i type="logical" name="LSCAAWARE"> F  </i>
   <i type="logical" name="LSCALU"> F  </i>
   <i type="logical" name="LASYNC"> F  </i>
   <i type="logical" name="LORBITALREAL"> F  </i>
  </separator>
  <separator name="miscellaneous" >
   <i type="int" name="IDIOT">     3</i>
   <i type="int" name="ISPECIAL">     0</i>
   <i type="logical" name="LMUSIC"> F  </i>
   <v name="POMASS">     28.08500000</v>
   <v name="DARWINR">      0.00000000</v>
   <v name="DARWINV">      1.00000000</v>
   <i type="logical" name="LCORR"> T  </i>
  </separator>
  <i type="logical" name="GGA_COMPAT"> T  </i>
  <i type="logical" name="LBERRY"> F  </i>
  <i type="int" name="ICORELEVEL">     0</i>
  <i type="logical" name="LDAU"> F  </i>
  <i type="int" name="I_CONSTRAINED_M">     0</i>
  <separator name="electronic exchange-correlation" >
   <i type="string" name="GGA">--</i>
   <i type="int" name="VOSKOWN">     0</i>
   <i type="logical" name="LHFCALC"> F  </i>
   <i type="string" name="PRECFOCK"></i>
   <i type="logical" name="LSYMGRAD"> F  </i>
   <i type="logical" name="LHFONE"> F  </i>
   <i type="logical" name="LRHFCALC"> F  </i>
   <i type="logical" name="LTHOMAS"> F  </i>
   <i type="logical" name="LMODELHF"> F  </i>
   <i name="ENCUT4O">     -1.00000000</i>
   <i type="int" name="EXXOEP">     0</i>
   <i type="int" name="FOURORBIT">     0</i>
   <i name="AEXX">      0.00000000</i>
   <i name="HFALPHA">      0.00000000</i>
   <i name="MCALPHA">      0.00000000</i>
   <i name="ALDAX">      1.00000000</i>
   <i name="AGGAX">      1.00000000</i>
   <i name="ALDAC">      1.00000000</i>
   <i name="AGGAC">      1.00000000</i>
   <i type="int" name="NKREDX">     1</i>
   <i type="int" name="NKREDY">     1</i>
   <i type="int" name="NKREDZ">     1</i>
   <i type="logical" name="SHIFTRED"> F  </i>
   <i type="logical" name="ODDONLY"> F  </i>
   <i type="logical" name="EVENONLY"> F  </i>
   <i type="int" name="LMAXFOCK">     0</i>
   <i type="int" name="NMAXFOCKAE">     0</i>
   <i type="logical" name="LFOCKAEDFT"> F  </i>
   <i name="HFSCREEN">      0.00000000</i>
   <i name="HFSCREENC">      0.00000000</i>
   <i type="int" name="NBANDSGWLOW">     0</i>
  </separator>
  <separator name="vdW DFT" >
   <i type="logical" name="LUSE_VDW"> F  </i>
   <i name="Zab_VDW">     -0.84910000</i>
   <i name="PARAM1">      0.12340000</i>
   <i name="PARAM2">      1.00000000</i>
   <i name="PARAM3">      0.00000000</i>
  </separator>
  <separator name="model GW" >
   <i type="int" name="MODEL_GW">     0</i>
   <i name="MODEL_EPS0">     12.26607635</i>
   <i name="MODEL_ALPHA">      1.00000000</i>
  </separator>
  <separator name="linear response parameters" >
   <i type="logical" name="LEPSILON"> F  </i>
   <i type="logical" name="LRPA"> F  </i>
   <i type="logical" name="LNABLA"> F  </i>
   <i type="logical" name="LVEL"> F  </i>
   <i type="int" name="KINTER">     0</i>
   <i name="CSHIFT">      0.10000000</i>
   <i name="OMEGAMAX">     -1.00000000</i>
   <i name="DEG_THRESHOLD">      0.00200000</i>
   <i name="RTIME">     -0.10000000</i>
   <i name="WPLASMAI">      0.00000000</i>
   <v name="DFIELD">      0.00000000      0.00000000      0.00000000</v>
   <v name="WPLASMA">      0.00000000      0.00000000      0.00000000      0.00000000      0.00000000      0.00000000      0.00000000      0.00000000      0.00000000</v>
  </separator>
  <separator name="orbital magnetization" >
   <i type="logical" name="NUCIND"> F  </i>
   <v name="MAGPOS">      0.00000000      0.00000000      0.00000000</v>
   <i type="logical" name="LNICSALL"> T  </i>
   <i type="logical" name="ORBITALMAG"> F  </i>
   <i type="logical" name="LMAGBLOCH"> F  </i>
   <i type="logical" name="LCHIMAG"> F  </i>
   <i type="logical" name="LGAUGE"> T  </i>
   <i type="int" name="MAGATOM">     0</i>
   <v name="MAGDIPOL">      0.00000000      0.00000000      0.00000000</v>
   <v name="AVECCONST">      0.00000000      0.00000000      0.00000000</v>
  </separator>
  <separator name="response functions" >
   <i type="logical" name="LADDER"> F  </i>
   <i type="logical" name="LRPAFORCE"> F  </i>
   <i type="logical" name="LFXC"> F  </i>
   <i type="logical" name="LHARTREE"> T  </i>
   <i type="int" name="IBSE">     0</i>
   <v type="int" name="KPOINT">    -1     0     0     0</v>
   <i type="logical" name="LTCTE"> F  </i>
   <i type="logical" name="LTETE"> F  </i>
   <i type="logical" name="LTRIPLET"> F  </i>
   <i type="logical" name="LFXCEPS"> F  </i>
   <i type="logical" name="LFXHEG"> F  </i>
   <i type="int" name="NATURALO">     2</i>
   <i type="logical" name="L2ORDER"> F  </i>
   <i type="logical" name="LMP2LT"> F  </i>
   <i type="logical" name="LUSEW"> F  </i>
   <i name="ENCUTGW">     -2.00000000</i>
   <i name="ENCUTGWSOFT">     -2.00000000</i>
   <i name="ENCUTLF">     -1.00000000</i>
   <i type="int" name="LMAXMP2">    -1</i>
   <i name="SCISSOR">      0.00000000</i>
   <i type="int" name="NOMEGA">     0</i>
   <i type="int" name="NOMEGAR">     0</i>
   <i type="int" name="NBANDSGW">    -1</i>
   <i type="int" name="NBANDSO">    -1</i>
   <i type="int" name="NBANDSV">    -1</i>
   <i type="int" name="NELM">   120</i>
   <i type="int" name="NELMHF">     1</i>
   <i type="int" name="DIM">     3</i>
   <i type="int" name="ANTIRES">     0</i>
   <i name="OMEGAMAX">    -30.00000000</i>
   <i name="OMEGAMIN">    -30.00000000</i>
   <i name="OMEGATL">   -200.00000000</i>
   <i type="int" name="OMEGAGRID">   140</i>
   <i name="CSHIFT">     -0.10000000</i>
   <i type="logical" name="SELFENERGY"> F  </i>
   <i type="logical" name="LSPECTRAL"> F  </i>
   <i type="logical" name="LSPECTRALGW"> F  </i>
   <i type="logical" name="LSINGLES"> F  </i>
   <i type="logical" name="LFERMIGW"> F  </i>
   <i type="logical" name="ODDONLYGW"> F  </i>
   <i type="logical" name="EVENONLYGW"> F  </i>
   <i type="int" name="NKREDLFX">     1</i>
   <i type="int" name="NKREDLFY">     1</i>
   <i type="int" name="NKREDLFZ">     1</i>
   <i type="int" name="MAXMEM">  2800</i>
   <i type="int" name="TELESCOPE">     0</i>
   <i type="int" name="TAUPAR">     1</i>
   <i type="int" name="OMEGAPAR">    -1</i>
   <i name="LAMBDA">      1.00000000</i>
  </separator>
  <separator name="External order field" >
   <i name="OFIELD_KAPPA">      0.00000000</i>
   <v name="OFIELD_K">      0.00000000      0.00000000      0.00000000</v>
   <i name="OFIELD_Q6_NEAR">      0.00000000</i>
   <i name="OFIELD_Q6_FAR">      0.00000000</i>
   <i name="OFIELD_A">      0.00000000</i>
  </separator>
 </parameters>
 <atominfo>
  <atoms>     128 </atoms>
  <types>       1 </types>
  <array name="atoms" >
   <dimension dim="1">ion</dimension>
   <field type="string">element</field>
   <field type="int">atomtype</field>
   <set>
    <rc><c>Si</c><c>   1</c></rc>
    <rc><c>Si</c><c>   1</c></rc>
    <rc><c>Si</c><c>   1</c></rc>
    <rc><c>Si</c><c>   1</c></rc>
    <rc><c>Si</c><c>   1</c></rc>
    <rc><c>Si</c><c>   1</c></rc>
    <rc><c>Si</c><c>   1</c></rc>
    <rc><c>Si</c><c>   1</c></rc>
    <rc><c>Si</c><c>   1</c></rc>
    <rc><c>Si</c><c>   1</c></rc>
    <rc><c>Si</c><c>   1</c></rc>
    <rc><c>Si</c><c>   1</c></rc>
    <rc><c>Si</c><c>   1</c></rc>
    <rc><c>Si</c><c>   1</c></rc>
    <rc><c>Si</c><c>   1</c></rc>
    <rc><c>Si</c><c>   1</c></rc>
    <rc><c>Si</c><c>   1</c></rc>
    <rc><c>Si</c><c>   1</c></rc>
    <rc><c>Si</c><c>   1</c></rc>
    <rc><c>Si</c><c>   1</c></rc>
    <rc><c>Si</c><c>   1</c></rc>
    <rc><c>Si</c><c>   1</c></rc>
    <rc><c>Si</c><c>   1</c></rc>
    <rc><c>Si</c><c>   1</c></rc>
    <rc><c>Si</c><c>   1</c></rc>
    <rc><c>Si</c><c>   1</c></rc>
    <rc><c>Si</c><c>   1</c></rc>
    <rc><c>Si</c><c>   1</c></rc>
    <rc><c>Si</c><c>   1</c></rc>
    <rc><c>Si</c><c>   1</c></rc>
    <rc><c>Si</c><c>   1</c></rc>
    <rc><c>Si</c><c>   1</c></rc>
    <rc><c>Si</c><c>   1</c></rc>
    <rc><c>Si</c><c>   1</c></rc>
    <rc><c>Si</c><c>   1</c></rc>
    <rc><c>Si</c><c>   1</c></rc>
    <rc><c>Si</c><c>   1</c></rc>
    <rc><c>Si</c><c>   1</c></rc>
    <rc><c>Si</c><c>   1</c></rc>
    <rc><c>Si</c><c>   1</c></rc>
    <rc><c>Si</c><c>   1</c></rc>
    <rc><c>Si</c><c>   1</c></rc>
    <rc><c>Si</c><c>   1</c></rc>
    <rc><c>Si</c><c>   1</c></rc>
    <rc><c>Si</c><c>   1</c></rc>
    <rc><c>Si</c><c>   1</c></rc>
    <rc><c>Si</c><c>   1</c></rc>
    <rc><c>Si</c><c>   1</c></rc>
    <rc><c>Si</c><c>   1</c></rc>
    <rc><c>Si</c><c>   1</c></rc>
    <rc><c>Si</c><c>   1</c></rc>
    <rc><c>Si</c><c>   1</c></rc>
    <rc><c>Si</c><c>   1</c></rc>
    <rc><c>Si</c><c>   1</c></rc>
    <rc><c>Si</c><c>   1</c></rc>
    <rc><c>Si</c><c>   1</c></rc>
    <rc><c>Si</c><c>   1</c></rc>
    <rc><c>Si</c><c>   1</c></rc>
    <rc><c>Si</c><c>   1</c></rc>
    <rc><c>Si</c><c>   1</c></rc>
    <rc><c>Si</c><c>   1</c></rc>
    <rc><c>Si</c><c>   1</c></rc>
    <rc><c>Si</c><c>   1</c></rc>
    <rc><c>Si</c><c>   1</c></rc>
    <rc><c>Si</c><c>   1</c></rc>
    <rc><c>Si</c><c>   1</c></rc>
    <rc><c>Si</c><c>   1</c></rc>
    <rc><c>Si</c><c>   1</c></rc>
    <rc><c>Si</c><c>   1</c></rc>
    <rc><c>Si</c><c>   1</c></rc>
    <rc><c>Si</c><c>   1</c></rc>
    <rc><c>Si</c><c>   1</c></rc>
    <rc><c>Si</c><c>   1</c></rc>
    <rc><c>Si</c><c>   1</c></rc>
    <rc><c>Si</c><c>   1</c></rc>
    <rc><c>Si</c><c>   1</c></rc>
    <rc><c>Si</c><c>   1</c></rc>
    <rc><c>Si</c><c>   1</c></rc>
    <rc><c>Si</c><c>   1</c></rc>
    <rc><c>Si</c><c>   1</c></rc>
    <rc><c>Si</c><c>   1</c></rc>
    <rc><c>Si</c><c>   1</c></rc>
    <rc><c>Si</c><c>   1</c></rc>
    <rc><c>Si</c><c>   1</c></rc>
    <rc><c>Si</c><c>   1</c></rc>
    <rc><c>Si</c><c>   1</c></rc>
    <rc><c>Si</c><c>   1</c></rc>
    <rc><c>Si</c><c>   1</c></rc>
    <rc><c>Si</c><c>   1</c></rc>
    <rc><c>Si</c><c>   1</c></rc>
    <rc><c>Si</c><c>   1</c></rc>
    <rc><c>Si</c><c>   1</c></rc>
    <rc><c>Si</c><c>   1</c></rc>
    <rc><c>Si</c><c>   1</c></rc>
    <rc><c>Si</c><c>   1</c></rc>
    <rc><c>Si</c><c>   1</c></rc>
    <rc><c>Si</c><c>   1</c></rc>
    <rc><c>Si</c><c>   1</c></rc>
    <rc><c>Si</c><c>   1</c></rc>
    <rc><c>Si</c><c>   1</c></rc>
    <rc><c>Si</c><c>   1</c></rc>
    <rc><c>Si</c><c>   1</c></rc>
    <rc><c>Si</c><c>   1</c></rc>
    <rc><c>Si</c><c>   1</c></rc>
    <rc><c>Si</c><c>   1</c></rc>
    <rc><c>Si</c><c>   1</c></rc>
    <rc><c>Si</c><c>   1</c></rc>
    <rc><c>Si</c><c>   1</c></rc>
    <rc><c>Si</c><c>   1</c></rc>
    <rc><c>Si</c><c>   1</c></rc>
    <rc><c>Si</c><c>   1</c></rc>
    <rc><c>Si</c><c>   1</c></rc>
    <rc><c>Si</c><c>   1</c></rc>
    <rc><c>Si</c><c>   1</c></rc>
    <rc><c>Si</c><c>   1</c></rc>
    <rc><c>Si</c><c>   1</c></rc>
    <rc><c>Si</c><c>   1</c></rc>
    <rc><c>Si</c><c>   1</c></rc>
    <rc><c>Si</c><c>   1</c></rc>
    <rc><c>Si</c><c>   1</c></rc>
    <rc><c>Si</c><c>   1</c></rc>
    <rc><c>Si</c><c>   1</c></rc>
    <rc><c>Si</c><c>   1</c></rc>
    <rc><c>Si</c><c>   1</c></rc>
    <rc><c>Si</c><c>   1</c></rc>
    <rc><c>Si</c><c>   1</c></rc>
    <rc><c>Si</c><c>   1</c></rc>
    <rc><c>Si</c><c>   1</c></rc>
   </set>
  </array>
  <array name="atomtypes" >
   <dimension dim="1">type</dimension>
   <field type="int">atomspertype</field>
   <field type="string">element</field>
   <field>mass</field>
   <field>valence</field>
   <field type="string">pseudopotential</field>
   <set>
    <rc><c> 128</c><c>Si</c><c>     28.08500000</c><c>      4.00000000</c><c> PAW_PBE Si 05Jan2001                   </c></rc>
   </set>
  </array>
 </atominfo>
 <structure name="initialpos" >
  <crystal>
   <varray name="basis" >
    <v>       0.00000000      10.93733369      10.93733369 </v>
    <v>      10.93733369       0.00000000      10.93733369 </v>
    <v>      10.93733369      10.93733369       0.00000000 </v>
   </varray>
   <i name="volume">   2616.76295363 </i>
   <varray name="rec_basis" >
    <v>      -0.04571498       0.04571498       0.04571498 </v>
    <v>       0.04571498      -0.04571498       0.04571498 </v>
    <v>       0.04571498       0.04571498      -0.04571498 </v>
   </varray>
  </crystal>
  <varray name="positions" >
   <v>       0.99605489       0.00050103       0.00306762 </v>
   <v>       0.25383730       0.00132272       0.99459878 </v>
   <v>       0.50457716       0.00148851       0.99246167 </v>
   <v>       0.75241676       0.00468337       0.99703134 </v>
   <v>       0.00335089       0.24549524       0.01195246 </v>
   <v>       0.24885401       0.24796791       0.00098501 </v>
   <v>       0.50383851       0.25167876       0.00013744 </v>
   <v>       0.75391435       0.25260549       0.99819562 </v>
   <v>       0.99757951       0.51013861       0.99909345 </v>
   <v>       0.25321686       0.50215728       0.99658865 </v>
   <v>       0.50596416       0.49643527       0.00919138 </v>
   <v>       0.74156246       0.50417989       0.00632083 </v>
   <v>       0.00630045       0.75398350       0.99784289 </v>
   <v>       0.24780966       0.74856317       0.00970513 </v>
   <v>       0.49525022       0.74696378       0.99995447 </v>
   <v>       0.75258608       0.74197375       0.00205263 </v>
   <v>       0.00747231       0.98858347       0.25470261 </v>
   <v>       0.24954481       0.00383324       0.25521122 </v>
   <v>       0.50723183       0.99831030       0.25102183 </v>
   <v>       0.75568837       0.00068344       0.24611056 </v>
   <v>       0.00075068       0.25322553       0.24136134 </v>
   <v>       0.26168325       0.24851177       0.25201195 </v>
   <v>       0.49044526       0.24956673       0.26197699 </v>
   <v>       0.74508944       0.24770623       0.25037971 </v>
   <v>       0.00682048       0.49215017       0.25211529 </v>
   <v>       0.24085188       0.51157962       0.24436898 </v>
   <v>       0.50545203       0.49026440       0.25555803 </v>
   <v>       0.75056846       0.50808489       0.25875452 </v>
   <v>       0.00825795       0.74301288       0.25383334 </v>
   <v>       0.25052143       0.74828004       0.26102716 </v>
   <v>       0.49399428       0.74937385       0.27068586 </v>
   <v>       0.74075949       0.74657865       0.24637884 </v>
   <v>       0.99692853       0.99396548       0.50501914 </v>
   <v>       0.25862945       0.99759824       0.50121825 </v>
   <v>       0.49574187       0.00807892       0.50223105 </v>
   <v>       0.74827860       0.00231007       0.49349394 </v>
   <v>       0.99552625       0.26346801       0.49960573 </v>
   <v>       0.24417645       0.25266032       0.50364681 </v>
   <v>       0.50197206       0.25318757       0.49955173 </v>
   <v>       0.75063642       0.24645083       0.50867830 </v>
   <v>       0.00843762       0.49782951       0.49111878 </v>
   <v>       0.26046634       0.50277702       0.48461713 </v>
   <v>       0.49965418       0.49893436       0.49040633 </v>
   <v>       0.75092220       0.50205624       0.50581669 </v>
   <v>       0.98804499       0.75171573       0.51034078 </v>
   <v>       0.24337730       0.75371368       0.50187763 </v>
   <v>       0.50876304       0.74525089       0.49284256 </v>
   <v>       0.74932542       0.74720504       0.49844497 </v>
   <v>       0.99410429       0.00435150       0.75271055 </v>
   <v>       0.24907207       0.99219100       0.75240064 </v>
   <v>       0.50354533       0.99360273       0.74943980 </v>
   <v>       0.75010611       0.00730534       0.74816230 </v>
   <v>       0.00114333       0.25703541       0.75436074 </v>
   <v>       0.24787702       0.24393234       0.76000943 </v>
   <v>       0.50031357       0.25343631       0.74784964 </v>
   <v>       0.73656332       0.26344873       0.74151223 </v>
   <v>       0.00306872       0.50123701       0.75173119 </v>
   <v>       0.24435568       0.51180871       0.74731459 </v>
   <v>       0.50855333       0.49505322       0.75109378 </v>
   <v>       0.73838294       0.49608527       0.76322401 </v>
   <v>       0.00126022       0.74946894       0.74186430 </v>
   <v>       0.23474818       0.76077886       0.75159438 </v>
   <v>       0.49846450       0.74703447       0.75732678 </v>
   <v>       0.74900407       0.75315767       0.74053382 </v>
   <v>       0.05520753       0.06564213       0.06586334 </v>
   <v>       0.31714308       0.06527612       0.05745829 </v>
   <v>       0.56334129       0.05383171       0.06440321 </v>
   <v>       0.80720380       0.06057516       0.07330902 </v>
   <v>       0.06990875       0.31112429       0.06481639 </v>
   <v>       0.30620178       0.31211884       0.07394149 </v>
   <v>       0.56013234       0.31967651       0.05946500 </v>
   <v>       0.82554088       0.29986254       0.06187286 </v>
   <v>       0.06770611       0.54806305       0.07671350 </v>
   <v>       0.30759522       0.56915178       0.06324919 </v>
   <v>       0.56657875       0.56274690       0.05849896 </v>
   <v>       0.82499453       0.56519734       0.05611235 </v>
   <v>       0.05305841       0.81289407       0.06513207 </v>
   <v>       0.30288371       0.81526554       0.06547026 </v>
   <v>       0.56119647       0.79595584       0.07396610 </v>
   <v>       0.81162981       0.80865422       0.06710184 </v>
   <v>       0.06934537       0.05613976       0.31395690 </v>
   <v>       0.31823284       0.06604171       0.30442227 </v>
   <v>       0.55792860       0.06097870       0.32371429 </v>
   <v>       0.81245165       0.06140008       0.32290669 </v>
   <v>       0.07573423       0.31586273       0.29519871 </v>
   <v>       0.31163822       0.32397958       0.31016551 </v>
   <v>       0.56149590       0.30849261       0.32142382 </v>
   <v>       0.80683042       0.32125480       0.30698683 </v>
   <v>       0.05569521       0.56833538       0.31329370 </v>
   <v>       0.30110932       0.57705560       0.30365517 </v>
   <v>       0.55690809       0.57015890       0.30816001 </v>
   <v>       0.81810693       0.55706854       0.32038918 </v>
   <v>       0.06992710       0.80406039       0.30682165 </v>
   <v>       0.31454382       0.81173206       0.30664469 </v>
   <v>       0.56839954       0.80580817       0.31407046 </v>
   <v>       0.81604258       0.81302616       0.30484336 </v>
   <v>       0.06823164       0.06297560       0.56713652 </v>
   <v>       0.30980809       0.06836882       0.56611230 </v>
   <v>       0.56360425       0.06381933       0.56740339 </v>
   <v>       0.79352850       0.06622999       0.56181971 </v>
   <v>       0.06868207       0.30381061       0.56174212 </v>
   <v>       0.32303373       0.30859886       0.55781663 </v>
   <v>       0.56108401       0.31444615       0.55568297 </v>
   <v>       0.79783292       0.31978810       0.56269513 </v>
   <v>       0.07056744       0.56028639       0.55747533 </v>
   <v>       0.31445753       0.55810813       0.56605856 </v>
   <v>       0.54849410       0.56662425       0.56834179 </v>
   <v>       0.81389906       0.56920349       0.56198735 </v>
   <v>       0.05630445       0.79988014       0.56754082 </v>
   <v>       0.32684613       0.80713723       0.56331773 </v>
   <v>       0.56935957       0.81482356       0.55549291 </v>
   <v>       0.80530966       0.81434534       0.56192416 </v>
   <v>       0.06605855       0.06291233       0.81406249 </v>
   <v>       0.31912789       0.05233480       0.81274007 </v>
   <v>       0.56768660       0.05237848       0.80995350 </v>
   <v>       0.80674855       0.06897748       0.81040819 </v>
   <v>       0.06364526       0.32194211       0.80115797 </v>
   <v>       0.32236299       0.30421056       0.81215266 </v>
   <v>       0.55899474       0.32078769       0.80317568 </v>
   <v>       0.81704854       0.30643738       0.81495015 </v>
   <v>       0.06145738       0.54923404       0.82518928 </v>
   <v>       0.29542841       0.58144863       0.81629999 </v>
   <v>       0.56655560       0.57284624       0.80831336 </v>
   <v>       0.80865403       0.55218729       0.81610312 </v>
   <v>       0.05286145       0.81727782       0.81538583 </v>
   <v>       0.32169447       0.80785829       0.80753510 </v>
   <v>       0.56345034       0.81276430       0.81532965 </v>
   <v>       0.81793038       0.80736427       0.80862904 </v>
  </varray>
 </structure>
 <calculation>
  <scstep>
   <time name="dav">   69.67   69.69</time>
   <time name="total">   70.67   70.70</time>
   <energy>
    <i name="alphaZ">    210.77028614 </i>
    <i name="ewald"> -14472.55600038 </i>
    <i name="hartreedc">   -756.24781657 </i>
    <i name="XCdc">  -1195.37280378 </i>
    <i name="pawpsdc">   4221.13331941 </i>
    <i name="pawaedc">  -1969.18571412 </i>
    <i name="eentropy">     -0.00094857 </i>
    <i name="bandstr">   2151.98623640 </i>
    <i name="atom">  13192.48085998 </i>
    <i name="e_fr_energy">   1383.00741852 </i>
    <i name="e_wo_entrp">   1383.00836710 </i>
    <i name="e_0_energy">   1383.00789281 </i>
   </energy>
  </scstep>
  <scstep>
   <time name="dav">   79.23   79.25</time>
   <time name="total">   79.23   79.25</time>
   <energy>
    <i name="e_fr_energy">   -537.68625832 </i>
    <i name="e_wo_entrp">   -537.68625832 </i>
    <i name="e_0_energy">   -537.68625832 </i>
   </energy>
  </scstep>
  <scstep>
   <time name="dav">   80.89   80.92</time>
   <time name="total">   80.90   80.92</time>
   <energy>
    <i name="e_fr_energy">   -687.13230405 </i>
    <i name="e_wo_entrp">   -687.13230405 </i>
    <i name="e_0_energy">   -687.13230405 </i>
   </energy>
  </scstep>
  <scstep>
   <time name="dav">   79.95   79.97</time>
   <time name="total">   79.95   79.97</time>
   <energy>
    <i name="e_fr_energy">   -691.32877312 </i>
    <i name="e_wo_entrp">   -691.32877312 </i>
    <i name="e_0_energy">   -691.32877312 </i>
   </energy>
  </scstep>
  <scstep>
   <time name="dav">   81.08   81.10</time>
   <time name="total">   84.46   84.48</time>
   <energy>
    <i name="e_fr_energy">   -691.47174029 </i>
    <i name="e_wo_entrp">   -691.47174029 </i>
    <i name="e_0_energy">   -691.47174029 </i>
   </energy>
  </scstep>
  <scstep>
   <time name="dav">   76.99   77.01</time>
   <time name="total">   81.36   81.38</time>
   <energy>
    <i name="e_fr_energy">   -683.09508652 </i>
    <i name="e_wo_entrp">   -683.09508652 </i>
    <i name="e_0_energy">   -683.09508652 </i>
   </energy>
  </scstep>
  <scstep>
   <time name="dav">   75.51   75.53</time>
   <time name="total">   79.87   79.89</time>
   <energy>
    <i name="e_fr_energy">   -679.55299319 </i>
    <i name="e_wo_entrp">   -679.55299319 </i>
    <i name="e_0_energy">   -679.55299319 </i>
   </energy>
  </scstep>
  <scstep>
   <time name="dav">   76.33   76.35</time>
   <time name="total">   80.71   80.74</time>
   <energy>
    <i name="e_fr_energy">   -679.61320486 </i>
    <i name="e_wo_entrp">   -679.61320486 </i>
    <i name="e_0_energy">   -679.61320486 </i>
   </energy>
  </scstep>
  <scstep>
   <time name="dav">   79.33   79.35</time>
   <time name="total">   83.69   83.71</time>
   <energy>
    <i name="e_fr_energy">   -679.63422740 </i>
    <i name="e_wo_entrp">   -679.63422740 </i>
    <i name="e_0_energy">   -679.63422740 </i>
   </energy>
  </scstep>
  <scstep>
   <time name="dav">   77.71   77.73</time>
   <time name="total">   82.06   82.10</time>
   <energy>
    <i name="e_fr_energy">   -679.63680941 </i>
    <i name="e_wo_entrp">   -679.63680941 </i>
    <i name="e_0_energy">   -679.63680941 </i>
   </energy>
  </scstep>
  <scstep>
   <time name="dav">   76.20   76.23</time>
   <time name="total">   80.53   80.56</time>
   <energy>
    <i name="e_fr_energy">   -679.63803512 </i>
    <i name="e_wo_entrp">   -679.63803512 </i>
    <i name="e_0_energy">   -679.63803512 </i>
   </energy>
  </scstep>
  <scstep>
   <time name="dav">   79.26   79.28</time>
   <time name="total">   83.60   83.62</time>
   <energy>
    <i name="e_fr_energy">   -679.63811380 </i>
    <i name="e_wo_entrp">   -679.63811380 </i>
    <i name="e_0_energy">   -679.63811380 </i>
   </energy>
  </scstep>
  <scstep>
   <time name="dav">   75.42   75.44</time>
   <time name="total">   79.76   79.78</time>
   <energy>
    <i name="e_fr_energy">   -679.63813756 </i>
    <i name="e_wo_entrp">   -679.63813756 </i>
    <i name="e_0_energy">   -679.63813756 </i>
   </energy>
  </scstep>
  <scstep>
   <time name="dav">   79.83   79.85</time>
   <time name="total">   84.10   84.13</time>
   <energy>
    <i name="e_fr_energy">   -679.63814336 </i>
    <i name="e_wo_entrp">   -679.63814336 </i>
    <i name="e_0_energy">   -679.63814336 </i>
   </energy>
  </scstep>
  <scstep>
   <time name="dav">   79.03   79.05</time>
   <time name="total">   83.31   83.33</time>
   <energy>
    <i name="e_fr_energy">   -679.63814556 </i>
    <i name="e_wo_entrp">   -679.63814556 </i>
    <i name="e_0_energy">   -679.63814556 </i>
   </energy>
  </scstep>
  <scstep>
   <time name="dav">   77.90   77.92</time>
   <time name="total">   82.09   82.11</time>
   <energy>
    <i name="e_fr_energy">   -679.63814529 </i>
    <i name="e_wo_entrp">   -679.63814529 </i>
    <i name="e_0_energy">   -679.63814529 </i>
   </energy>
  </scstep>
  <scstep>
   <time name="dav">   58.65   58.67</time>
   <time name="total">   62.82   62.85</time>
   <energy>
    <i name="e_fr_energy">   -679.63814525 </i>
    <i name="e_wo_entrp">   -679.63814525 </i>
    <i name="e_0_energy">   -679.63814525 </i>
   </energy>
  </scstep>
  <scstep>
   <time name="dav">   51.48   51.50</time>
   <time name="total">   55.68   55.70</time>
   <energy>
    <i name="e_fr_energy">   -679.63814533 </i>
    <i name="e_wo_entrp">   -679.63814533 </i>
    <i name="e_0_energy">   -679.63814533 </i>
   </energy>
  </scstep>
  <scstep>
   <time name="dav">   50.77   50.78</time>
   <time name="total">   54.95   54.96</time>
   <energy>
    <i name="e_fr_energy">   -679.63814530 </i>
    <i name="e_wo_entrp">   -679.63814530 </i>
    <i name="e_0_energy">   -679.63814530 </i>
   </energy>
  </scstep>
  <scstep>
   <time name="dav">   49.82   49.83</time>
   <time name="total">   50.82   50.84</time>
   <energy>
    <i name="alphaZ">    210.77028614 </i>
    <i name="ewald"> -14472.55600038 </i>
    <i name="hartreedc">  -1001.55292953 </i>
    <i name="XCdc">  -1155.83113033 </i>
    <i name="pawpsdc">   4730.03422282 </i>
    <i name="pawaedc">  -2491.73986067 </i>
    <i name="eentropy">     -0.00000000 </i>
    <i name="bandstr">    308.75640667 </i>
    <i name="atom">  13192.48085998 </i>
    <i name="e_fr_energy">   -679.63814530 </i>
    <i name="e_wo_entrp">   -679.63814530 </i>
    <i name="e_0_energy">   -679.63814530 </i>
   </energy>
  </scstep>
  <structure>
   <crystal>
    <varray name="basis" >
     <v>       0.00000000      10.93733369      10.93733369 </v>
     <v>      10.93733369       0.00000000      10.93733369 </v>
     <v>      10.93733369      10.93733369       0.00000000 </v>
    </varray>
    <i name="volume">   2616.76295363 </i>
    <varray name="rec_basis" >
     <v>      -0.04571498       0.04571498       0.04571498 </v>
     <v>       0.04571498      -0.04571498       0.04571498 </v>
     <v>       0.04571498       0.04571498      -0.04571498 </v>
    </varray>
   </crystal>
   <varray name="positions" >
    <v>       0.99605489       0.00050103       0.00306762 </v>
    <v>       0.25383730       0.00132272       0.99459878 </v>
    <v>       0.50457716       0.00148851       0.99246167 </v>
    <v>       0.75241676       0.00468337       0.99703134 </v>
    <v>       0.00335089       0.24549524       0.01195246 </v>
    <v>       0.24885401       0.24796791       0.00098501 </v>
    <v>       0.50383851       0.25167876       0.00013744 </v>
    <v>       0.75391435       0.25260549       0.99819562 </v>
    <v>       0.99757951       0.51013861       0.99909345 </v>
    <v>       0.25321686       0.50215728       0.99658865 </v>
    <v>       0.50596416       0.49643527       0.00919138 </v>
    <v>       0.74156246       0.50417989       0.00632083 </v>
    <v>       0.00630045       0.75398350       0.99784289 </v>
    <v>       0.24780966       0.74856317       0.00970513 </v>
    <v>       0.49525022       0.74696378       0.99995447 </v>
    <v>       0.75258608       0.74197375       0.00205263 </v>
    <v>       0.00747231       0.98858347       0.25470261 </v>
    <v>       0.24954481       0.00383324       0.25521122 </v>
    <v>       0.50723183       0.99831030       0.25102183 </v>
    <v>       0.75568837       0.00068344       0.24611056 </v>
    <v>       0.00075068       0.25322553       0.24136134 </v>
    <v>       0.26168325       0.24851177       0.25201195 </v>
    <v>       0.49044526       0.24956673       0.26197699 </v>
    <v>       0.74508944       0.24770623       0.25037971 </v>
    <v>       0.00682048       0.49215017       0.25211529 </v>
    <v>       0.24085188       0.51157962       0.24436898 </v>
    <v>       0.50545203       0.49026440       0.25555803 </v>
    <v>       0.75056846       0.50808489       0.25875452 </v>
    <v>       0.00825795       0.74301288       0.25383334 </v>
    <v>       0.25052143       0.74828004       0.26102716 </v>
    <v>       0.49399428       0.74937385       0.27068586 </v>
    <v>       0.74075949       0.74657865       0.24637884 </v>
    <v>       0.99692853       0.99396548       0.50501914 </v>
    <v>       0.25862945       0.99759824       0.50121825 </v>
    <v>       0.49574187       0.00807892       0.50223105 </v>
    <v>       0.74827860       0.00231007       0.49349394 </v>
    <v>       0.99552625       0.26346801       0.49960573 </v>
    <v>       0.24417645       0.25266032       0.50364681 </v>
    <v>       0.50197206       0.25318757       0.49955173 </v>
    <v>       0.75063642       0.24645083       0.50867830 </v>
    <v>       0.00843762       0.49782951       0.49111878 </v>
    <v>       0.26046634       0.50277702       0.48461713 </v>
    <v>       0.49965418       0.49893436       0.49040633 </v>
    <v>       0.75092220       0.50205624       0.50581669 </v>
    <v>       0.98804499       0.75171573       0.51034078 </v>
    <v>       0.24337730       0.75371368       0.50187763 </v>
    <v>       0.50876304       0.74525089       0.49284256 </v>
    <v>       0.74932542       0.74720504       0.49844497 </v>
    <v>       0.99410429       0.00435150       0.75271055 </v>
    <v>       0.24907207       0.99219100       0.75240064 </v>
    <v>       0.50354533       0.99360273       0.74943980 </v>
    <v>       0.75010611       0.00730534       0.74816230 </v>
    <v>       0.00114333       0.25703541       0.75436074 </v>
    <v>       0.24787702       0.24393234       0.76000943 </v>
    <v>       0.50031357       0.25343631       0.74784964 </v>
    <v>       0.73656332       0.26344873       0.74151223 </v>
    <v>       0.00306872       0.50123701       0.75173119 </v>
    <v>       0.24435568       0.51180871       0.74731459 </v>
    <v>       0.50855333       0.49505322       0.75109378 </v>
    <v>       0.73838294       0.49608527       0.76322401 </v>
    <v>       0.00126022       0.74946894       0.74186430 </v>
    <v>       0.23474818       0.76077886       0.75159438 </v>
    <v>       0.49846450       0.74703447       0.75732678 </v>
    <v>       0.74900407       0.75315767       0.74053382 </v>
    <v>       0.05520753       0.06564213       0.06586334 </v>
    <v>       0.31714308       0.06527612       0.05745829 </v>
    <v>       0.56334129       0.05383171       0.06440321 </v>
    <v>       0.80720380       0.06057516       0.07330902 </v>
    <v>       0.06990875       0.31112429       0.06481639 </v>
    <v>       0.30620178       0.31211884       0.07394149 </v>
    <v>       0.56013234       0.31967651       0.05946500 </v>
    <v>       0.82554088       0.29986254       0.06187286 </v>
    <v>       0.06770611       0.54806305       0.07671350 </v>
    <v>       0.30759522       0.56915178       0.06324919 </v>
    <v>       0.56657875       0.56274690       0.05849896 </v>
    <v>       0.82499453       0.56519734       0.05611235 </v>
    <v>       0.05305841       0.81289407       0.06513207 </v>
    <v>       0.30288371       0.81526554       0.06547026 </v>
    <v>       0.56119647       0.79595584       0.07396610 </v>
    <v>       0.81162981       0.80865422       0.06710184 </v>
    <v>       0.06934537       0.05613976       0.31395690 </v>
    <v>       0.31823284       0.06604171       0.30442227 </v>
    <v>       0.55792860       0.06097870       0.32371429 </v>
    <v>       0.81245165       0.06140008       0.32290669 </v>
    <v>       0.07573423       0.31586273       0.29519871 </v>
    <v>       0.31163822       0.32397958       0.31016551 </v>
    <v>       0.56149590       0.30849261       0.32142382 </v>
    <v>       0.80683042       0.32125480       0.30698683 </v>
    <v>       0.05569521       0.56833538       0.31329370 </v>
    <v>       0.30110932       0.57705560       0.30365517 </v>
    <v>       0.55690809       0.57015890       0.30816001 </v>
    <v>       0.81810693       0.55706854       0.32038918 </v>
    <v>       0.06992710       0.80406039       0.30682165 </v>
    <v>       0.31454382       0.81173206       0.30664469 </v>
    <v>       0.56839954       0.80580817       0.31407046 </v>
    <v>       0.81604258       0.81302616       0.30484336 </v>
    <v>       0.06823164       0.06297560       0.56713652 </v>
    <v>       0.30980809       0.06836882       0.56611230 </v>
    <v>       0.56360425       0.06381933       0.56740339 </v>
    <v>       0.79352850       0.06622999       0.56181971 </v>
    <v>       0.06868207       0.30381061       0.56174212 </v>
    <v>       0.32303373       0.30859886       0.55781663 </v>
    <v>       0.56108401       0.31444615       0.55568297 </v>
    <v>       0.79783292       0.31978810       0.56269513 </v>
    <v>       0.07056744       0.56028639       0.55747533 </v>
    <v>       0.31445753       0.55810813       0.56605856 </v>
    <v>       0.54849410       0.56662425       0.56834179 </v>
    <v>       0.81389906       0.56920349       0.56198735 </v>
    <v>       0.05630445       0.79988014       0.56754082 </v>
    <v>       0.32684613       0.80713723       0.56331773 </v>
    <v>       0.56935957       0.81482356       0.55549291 </v>
    <v>       0.80530966       0.81434534       0.56192416 </v>
    <v>       0.06605855       0.06291233       0.81406249 </v>
    <v>       0.31912789       0.05233480       0.81274007 </v>
    <v>       0.56768660       0.05237848       0.80995350 </v>
    <v>       0.80674855       0.06897748       0.81040819 </v>
    <v>       0.06364526       0.32194211       0.80115797 </v>
    <v>       0.32236299       0.30421056       0.81215266 </v>
    <v>       0.55899474       0.32078769       0.80317568 </v>
    <v>       0.81704854       0.30643738       0.81495015 </v>
    <v>       0.06145738       0.54923404       0.82518928 </v>
    <v>       0.29542841       0.58144863       0.81629999 </v>
    <v>       0.56655560       0.57284624       0.80831336 </v>
    <v>       0.80865403       0.55218729       0.81610312 </v>
    <v>       0.05286145       0.81727782       0.81538583 </v>
    <v>       0.32169447       0.80785829       0.80753510 </v>
    <v>       0.56345034       0.81276430       0.81532965 </v>
    <v>       0.81793038       0.80736427       0.80862904 </v>
   </varray>
  </structure>
  <varray name="forces" >
   <v>       0.12157615      -0.01664165       0.05603243 </v>
   <v>       0.97519371       0.10757096      -0.77441047 </v>
   <v>      -0.32875157       0.74430188      -1.46197053 </v>
   <v>      -0.08953340       0.25403143      -1.19344762 </v>
   <v>      -0.97508485      -0.98797824       1.45204402 </v>
   <v>      -0.08587448       0.69801936       1.33344188 </v>
   <v>      -0.50548228      -0.81367592      -0.95971806 </v>
   <v>      -0.01779639       0.08755665      -1.18169454 </v>
   <v>      -0.85987253       2.74709155      -0.31109844 </v>
   <v>       0.46487853       0.58984867      -0.81686921 </v>
   <v>      -0.18358492      -2.64060867      -0.05156182 </v>
   <v>      -1.88173837       1.87036880       1.25518384 </v>
   <v>      -1.01102765      -0.36816352      -2.83227916 </v>
   <v>      -0.55282326      -2.23385730       0.13781316 </v>
   <v>       0.87903568       0.21791921      -0.05195882 </v>
   <v>       0.70074537      -0.99727907       1.01360424 </v>
   <v>       0.53591092      -0.75849263       0.31059689 </v>
   <v>      -1.89901815      -0.49924118       0.18650852 </v>
   <v>      -0.17067990      -0.28198480      -0.62624333 </v>
   <v>       2.00571066       1.26718604      -1.51912353 </v>
   <v>       0.85050109       1.20710781      -1.09376301 </v>
   <v>       0.60413677      -0.42160066      -0.41433853 </v>
   <v>      -1.08399337       0.06643659       1.41124102 </v>
   <v>      -0.03567389       0.57978318       0.82908426 </v>
   <v>       1.68965560      -0.27466360      -0.12851956 </v>
   <v>       0.05159536       0.52513680      -0.34359839 </v>
   <v>       0.55817091      -2.11247018       0.53428439 </v>
   <v>      -1.47879101      -1.50084183      -0.61503538 </v>
   <v>       0.07595926      -2.63151368      -0.26323585 </v>
   <v>      -0.84703902      -2.37563068       0.82615900 </v>
   <v>      -1.93285835      -1.90650701      -0.04215441 </v>
   <v>      -0.57941551       2.74228870       1.54471853 </v>
   <v>       0.61844892      -0.04215661       0.14309780 </v>
   <v>      -0.21878826      -0.49745833       0.04459534 </v>
   <v>       0.10926408       1.12379883      -0.73731730 </v>
   <v>       0.81983734       0.89590507      -2.10711836 </v>
   <v>      -2.01293123      -0.86036848      -1.34594095 </v>
   <v>      -0.99552445       0.69203396       1.60278475 </v>
   <v>      -0.80202712       0.66020391      -1.09585500 </v>
   <v>      -1.33805816      -2.52227419      -0.14742744 </v>
   <v>       1.33789146       0.98800251      -1.09105522 </v>
   <v>       0.90861138       0.85074526      -1.01369601 </v>
   <v>       1.18017774       0.88463100       0.12070478 </v>
   <v>       0.66732919      -1.15274334      -0.51237740 </v>
   <v>      -2.63636006      -0.87289536      -0.30292532 </v>
   <v>      -0.75944343       0.68424375       0.41991529 </v>
   <v>       1.37304530       0.93345356       0.18273507 </v>
   <v>      -0.04652624      -0.61363150       1.50555901 </v>
   <v>       0.17648664       0.15406894       0.44729095 </v>
   <v>       0.19214214       0.47879925       0.95402085 </v>
   <v>       0.49360854      -0.15574457       0.09379004 </v>
   <v>      -1.56613042       0.14561610      -1.25167977 </v>
   <v>      -2.05828341      -0.85442662      -0.92033550 </v>
   <v>      -1.14474027      -0.31043745       0.92561651 </v>
   <v>      -1.75734840       0.18905704      -0.29339646 </v>
   <v>      -0.27027114       2.61863247       0.20625425 </v>
   <v>      -0.27382342      -1.50577503      -0.40776648 </v>
   <v>      -0.58684893       1.58694692      -0.99946377 </v>
   <v>       2.50034810      -1.84018904       0.54009055 </v>
   <v>      -2.31659343       0.57393065       1.64759136 </v>
   <v>       0.91483037       2.03382912      -1.35170628 </v>
   <v>      -0.25341470       0.66817780       1.50542928 </v>
   <v>      -0.41129516      -0.89122772       2.40423973 </v>
   <v>       0.40593921       1.65629377      -1.01839539 </v>
   <v>      -0.94553662       1.14720054       0.01147772 </v>
   <v>       0.10932147       0.53465748      -0.94458539 </v>
   <v>       0.57101361       0.05246812       1.51416122 </v>
   <v>      -1.20818184      -1.70048689       1.79902166 </v>
   <v>       0.25381817      -1.76093704       0.34471509 </v>
   <v>      -1.69388947      -0.64508863       1.46119117 </v>
   <v>      -0.32712695       1.85112288      -0.71426939 </v>
   <v>       2.02028707      -1.23050669      -0.07852877 </v>
   <v>      -0.15530610      -2.08139228       2.10153761 </v>
   <v>      -1.32204060       0.70435854       0.27783206 </v>
   <v>       1.74031100       0.59324203      -0.93859883 </v>
   <v>       1.13003548      -0.48518269      -2.96528904 </v>
   <v>       0.75537327       1.74915379       1.71192799 </v>
   <v>       0.54338836       1.41106865       0.68451440 </v>
   <v>       0.79370100      -0.37931438       0.92164457 </v>
   <v>      -0.79603087      -0.99108093       1.22530953 </v>
   <v>       0.97288029      -0.70344596      -0.46393134 </v>
   <v>       0.57659575       1.62655351      -0.37364255 </v>
   <v>      -1.01889702      -0.43848895       1.27850774 </v>
   <v>      -2.29934467      -1.45241068       1.52448781 </v>
   <v>       0.32408516       1.33222612      -1.97482463 </v>
   <v>       0.78327994       0.12557392      -0.94894514 </v>
   <v>      -1.06314494      -0.72940369       0.00483315 </v>
   <v>       0.08491356       0.91672618      -0.37630066 </v>
   <v>      -1.60020200       0.44063659      -0.40880001 </v>
   <v>      -2.05878592       2.22687364      -0.26559069 </v>
   <v>      -0.58221358       1.06535203       0.23952074 </v>
   <v>       0.45936196      -0.00804102       0.52824829 </v>
   <v>       2.33955595       1.15015226      -0.09643824 </v>
   <v>       2.67466639       1.13406989       0.64810935 </v>
   <v>       1.83362126      -1.07906276       0.45470367 </v>
   <v>       0.05724172       0.16753952      -0.68768020 </v>
   <v>      -0.36814035      -1.23410756      -0.21998593 </v>
   <v>      -0.55296128      -0.03882561      -0.36166069 </v>
   <v>      -0.57189177      -0.90696765       0.15690245 </v>
   <v>      -0.05815154       2.38124530       1.45531883 </v>
   <v>       2.44832018      -0.43352980       0.05774892 </v>
   <v>       1.59203617      -0.80915768      -1.07943647 </v>
   <v>       1.04642045       1.45775590       0.66384661 </v>
   <v>      -0.17192861       1.45574482       1.93557753 </v>
   <v>       0.46295566      -0.11151151      -0.18988335 </v>
   <v>      -0.18422844      -1.48716359       0.65385085 </v>
   <v>      -1.88164358       0.79728659       0.34623236 </v>
   <v>      -0.69822179       1.58761241      -1.22826081 </v>
   <v>       0.60896307      -0.12801213       2.75120269 </v>
   <v>       0.60476286      -1.69730303      -0.97014909 </v>
   <v>       1.09459791      -0.34957002      -1.25216696 </v>
   <v>      -0.30600556      -0.60336565       0.42505692 </v>
   <v>       0.58029584      -0.65757785      -0.66390031 </v>
   <v>       0.29780841      -1.06740014       0.07576224 </v>
   <v>       1.13896745      -0.40837211       1.04603449 </v>
   <v>       0.64253930       0.00533036       0.89945599 </v>
   <v>       1.25452467       2.36882001      -0.42569808 </v>
   <v>       1.82735002      -1.33623911      -0.18608761 </v>
   <v>       0.64592183       1.32697686      -1.68583062 </v>
   <v>       0.05290584      -1.40593744      -0.32030107 </v>
   <v>      -0.06825397      -1.42119952       2.18447859 </v>
   <v>      -2.18435449       0.93277874       0.09725105 </v>
   <v>       0.05684303       0.32233034      -3.12538397 </v>
   <v>       1.10706764       0.45262238       1.53896261 </v>
   <v>      -0.23405921      -0.85622224       0.01481379 </v>
   <v>       1.36905520      -0.52187350      -1.88512762 </v>
   <v>      -0.69683565       0.05294751      -0.42103286 </v>
   <v>       0.94900662      -0.79378685      -0.13885980 </v>
  </varray>
  <varray name="stress" >
   <v>      12.65098528       2.30676024       1.71404774 </v>
   <v>       2.30676022      10.97542437       5.28305374 </v>
   <v>       1.71404777       5.28305373      12.77300158 </v>
  </varray>
  <energy>
   <i name="e_fr_energy">   -679.63814530 </i>
   <i name="e_wo_entrp">   -679.63814530 </i>
   <i name="e_0_energy">     -0.00000000 </i>
  </energy>
  <time name="totalsc"> 1636.99 1637.48</time>
  <eigenvalues>
   <array>
    <dimension dim="1">band</dimension>
    <dimension dim="2">kpoint</dimension>
    <dimension dim="3">spin</dimension>
    <field>eigene</field>
    <field>occ</field>
    <set>
     <set comment="spin 1">
      <set comment="kpoint 1">
       <r>   -6.3025    1.0000 </r>
       <r>   -5.7380    1.0000 </r>
       <r>   -5.6360    1.0000 </r>
       <r>   -5.5997    1.0000 </r>
       <r>   -5.5511    1.0000 </r>
       <r>   -5.4910    1.0000 </r>
       <r>   -5.4705    1.0000 </r>
       <r>   -5.4443    1.0000 </r>
       <r>   -5.3842    1.0000 </r>
       <r>   -5.3332    1.0000 </r>
       <r>   -5.2978    1.0000 </r>
       <r>   -5.2355    1.0000 </r>
       <r>   -5.1874    1.0000 </r>
       <r>   -5.0930    1.0000 </r>
       <r>   -5.0132    1.0000 </r>
       <r>   -4.5449    1.0000 </r>
       <r>   -4.5171    1.0000 </r>
       <r>   -4.3888    1.0000 </r>
       <r>   -4.3715    1.0000 </r>
       <r>   -4.3553    1.0000 </r>
       <r>   -4.3244    1.0000 </r>
       <r>   -4.2928    1.0000 </r>
       <r>   -4.2624    1.0000 </r>
       <r>   -4.2415    1.0000 </r>
       <r>   -4.2098    1.0000 </r>
       <r>   -4.1482    1.0000 </r>
       <r>   -4.1136    1.0000 </r>
       <r>   -4.0444    1.0000 </r>
       <r>   -4.0190    1.0000 </r>
       <r>   -3.9831    1.0000 </r>
       <r>   -3.9343    1.0000 </r>
       <r>   -3.8701    1.0000 </r>
       <r>   -3.8521    1.0000 </r>
       <r>   -3.8152    1.0000 </r>
       <r>   -3.7925    1.0000 </r>
       <r>   -3.7537    1.0000 </r>
       <r>   -3.7080    1.0000 </r>
       <r>   -3.6981    1.0000 </r>
       <r>   -3.6540    1.0000 </r>
       <r>   -3.6437    1.0000 </r>
       <r>   -3.6048    1.0000 </r>
       <r>   -3.5703    1.0000 </r>
       <r>   -3.5648    1.0000 </r>
       <r>   -3.5355    1.0000 </r>
       <r>   -3.4870    1.0000 </r>
       <r>   -3.4624    1.0000 </r>
       <r>   -3.4555    1.0000 </r>
       <r>   -3.4274    1.0000 </r>
       <r>   -3.4013    1.0000 </r>
       <r>   -3.3870    1.0000 </r>
       <r>   -3.3648    1.0000 </r>
       <r>   -3.3572    1.0000 </r>
       <r>   -3.2989    1.0000 </r>
       <r>   -3.2429    1.0000 </r>
       <r>   -3.1788    1.0000 </r>
       <r>   -2.3811    1.0000 </r>
       <r>   -2.3493    1.0000 </r>
       <r>   -2.2893    1.0000 </r>
       <r>   -2.2630    1.0000 </r>
       <r>   -2.2104    1.0000 </r>
       <r>   -2.1781    1.0000 </r>
       <r>   -2.1326    1.0000 </r>
       <r>   -2.1002    1.0000 </r>
       <r>   -2.0793    1.0000 </r>
       <r>   -2.0565    1.0000 </r>
       <r>   -1.9891    1.0000 </r>
       <r>   -1.9653    1.0000 </r>
       <r>   -1.9556    1.0000 </r>
       <r>   -1.8943    1.0000 </r>
       <r>   -1.8616    1.0000 </r>
       <r>   -1.8436    1.0000 </r>
       <r>   -1.8302    1.0000 </r>
       <r>   -1.7396    1.0000 </r>
       <r>   -1.3738    1.0000 </r>
       <r>   -1.3010    1.0000 </r>
       <r>   -1.2703    1.0000 </r>
       <r>   -1.2071    1.0000 </r>
       <r>   -1.0781    1.0000 </r>
       <r>   -1.0176    1.0000 </r>
       <r>   -0.9899    1.0000 </r>
       <r>   -0.9428    1.0000 </r>
       <r>   -0.9168    1.0000 </r>
       <r>   -0.8997    1.0000 </r>
       <r>   -0.8809    1.0000 </r>
       <r>   -0.8148    1.0000 </r>
       <r>   -0.7835    1.0000 </r>
       <r>   -0.7741    1.0000 </r>
       <r>   -0.7570    1.0000 </r>
       <r>   -0.7419    1.0000 </r>
       <r>   -0.7126    1.0000 </r>
       <r>   -0.6866    1.0000 </r>
       <r>   -0.6643    1.0000 </r>
       <r>   -0.6515    1.0000 </r>
       <r>   -0.6209    1.0000 </r>
       <r>   -0.5371    1.0000 </r>
       <r>   -0.5224    1.0000 </r>
       <r>   -0.4808    1.0000 </r>
       <r>   -0.4674    1.0000 </r>
       <r>   -0.4366    1.0000 </r>
       <r>   -0.4230    1.0000 </r>
       <r>   -0.3512    1.0000 </r>
       <r>   -0.0477    1.0000 </r>
       <r>    0.0111    1.0000 </r>
       <r>    0.0762    1.0000 </r>
       <r>    0.0803    1.0000 </r>
       <r>    0.1384    1.0000 </r>
       <r>    0.1753    1.0000 </r>
       <r>    0.2094    1.0000 </r>
       <r>    0.2312    1.0000 </r>
       <r>    0.2633    1.0000 </r>
       <r>    0.2955    1.0000 </r>
       <r>    0.3123    1.0000 </r>
       <r>    0.3891    1.0000 </r>
       <r>    1.3480    1.0000 </r>
       <r>    1.4603    1.0000 </r>
       <r>    1.4803    1.0000 </r>
       <r>    1.5310    1.0000 </r>
       <r>    1.5402    1.0000 </r>
       <r>    1.5699    1.0000 </r>
       <r>    1.5827    1.0000 </r>
       <r>    1.6269    1.0000 </r>
       <r>    1.6497    1.0000 </r>
       <r>    1.6686    1.0000 </r>
       <r>    1.6712    1.0000 </r>
       <r>    1.6810    1.0000 </r>
       <r>    1.7050    1.0000 </r>
       <r>    1.7194    1.0000 </r>
       <r>    1.7294    1.0000 </r>
       <r>    1.7600    1.0000 </r>
       <r>    1.7848    1.0000 </r>
       <r>    1.7923    1.0000 </r>
       <r>    1.8152    1.0000 </r>
       <r>    1.8257    1.0000 </r>
       <r>    1.8370    1.0000 </r>
       <r>    1.8429    1.0000 </r>
       <r>    1.8801    1.0000 </r>
       <r>    1.8867    1.0000 </r>
       <r>    1.8939    1.0000 </r>
       <r>    1.9046    1.0000 </r>
       <r>    1.9100    1.0000 </r>
       <r>    1.9161    1.0000 </r>
       <r>    1.9373    1.0000 </r>
       <r>    1.9596    1.0000 </r>
       <r>    1.9645    1.0000 </r>
       <r>    1.9839    1.0000 </r>
       <r>    1.9964    1.0000 </r>
       <r>    2.0084    1.0000 </r>
       <r>    2.0158    1.0000 </r>
       <r>    2.0339    1.0000 </r>
       <r>    2.0458    1.0000 </r>
       <r>    2.0644    1.0000 </r>
       <r>    2.0793    1.0000 </r>
       <r>    2.1142    1.0000 </r>
       <r>    2.1227    1.0000 </r>
       <r>    2.1288    1.0000 </r>
       <r>    2.1522    1.0000 </r>
       <r>    2.1579    1.0000 </r>
       <r>    2.1784    1.0000 </r>
       <r>    2.1849    1.0000 </r>
       <r>    2.2013    1.0000 </r>
       <r>    2.2161    1.0000 </r>
       <r>    2.2432    1.0000 </r>
       <r>    2.2519    1.0000 </r>
       <r>    2.2622    1.0000 </r>
       <r>    2.2854    1.0000 </r>
       <r>    2.3052    1.0000 </r>
       <r>    2.3214    1.0000 </r>
       <r>    2.3379    1.0000 </r>
       <r>    2.3500    1.0000 </r>
       <r>    2.3617    1.0000 </r>
       <r>    2.3891    1.0000 </r>
       <r>    2.4133    1.0000 </r>
       <r>    2.4299    1.0000 </r>
       <r>    2.4676    1.0000 </r>
       <r>    2.4830    1.0000 </r>
       <r>    2.7352    1.0000 </r>
       <r>    2.7572    1.0000 </r>
       <r>    2.8063    1.0000 </r>
       <r>    2.8366    1.0000 </r>
       <r>    2.8487    1.0000 </r>
       <r>    2.8975    1.0000 </r>
       <r>    3.1411    1.0000 </r>
       <r>    3.1859    1.0000 </r>
       <r>    3.2191    1.0000 </r>
       <r>    3.2622    1.0000 </r>
       <r>    3.2820    1.0000 </r>
       <r>    3.2956    1.0000 </r>
       <r>    3.3319    1.0000 </r>
       <r>    3.3484    1.0000 </r>
       <r>    3.3616    1.0000 </r>
       <r>    3.3836    1.0000 </r>
       <r>    3.3998    1.0000 </r>
       <r>    3.4284    1.0000 </r>
       <r>    3.4321    1.0000 </r>
       <r>    3.4662    1.0000 </r>
       <r>    3.4797    1.0000 </r>
       <r>    3.4938    1.0000 </r>
       <r>    3.5141    1.0000 </r>
       <r>    3.5194    1.0000 </r>
       <r>    3.5398    1.0000 </r>
       <r>    3.5688    1.0000 </r>
       <r>    3.5942    1.0000 </r>
       <r>    3.6075    1.0000 </r>
       <r>    3.6397    1.0000 </r>
       <r>    3.6550    1.0000 </r>
       <r>    3.6736    1.0000 </r>
       <r>    3.7081    1.0000 </r>
       <r>    3.7223    1.0000 </r>
       <r>    3.7508    1.0000 </r>
       <r>    3.7619    1.0000 </r>
       <r>    3.8018    1.0000 </r>
       <r>    3.8089    1.0000 </r>
       <r>    3.8636    1.0000 </r>
       <r>    3.8782    1.0000 </r>
       <r>    3.8983    1.0000 </r>
       <r>    3.9565    1.0000 </r>
       <r>    3.9625    1.0000 </r>
       <r>    4.1082    1.0000 </r>
       <r>    4.1127    1.0000 </r>
       <r>    4.1761    1.0000 </r>
       <r>    4.2178    1.0000 </r>
       <r>    4.2379    1.0000 </r>
       <r>    4.2876    1.0000 </r>
       <r>    4.3094    1.0000 </r>
       <r>    4.3419    1.0000 </r>
       <r>    4.3777    1.0000 </r>
       <r>    4.3867    1.0000 </r>
       <r>    4.4274    1.0000 </r>
       <r>    4.4394    1.0000 </r>
       <r>    4.4522    1.0000 </r>
       <r>    4.4818    1.0000 </r>
       <r>    4.4880    1.0000 </r>
       <r>    4.5383    1.0000 </r>
       <r>    4.5629    1.0000 </r>
       <r>    4.5835    1.0000 </r>
       <r>    4.6507    1.0000 </r>
       <r>    4.6877    1.0000 </r>
       <r>    4.6958    1.0000 </r>
       <r>    4.7278    1.0000 </r>
       <r>    4.8292    1.0000 </r>
       <r>    4.8401    1.0000 </r>
       <r>    4.8874    1.0000 </r>
       <r>    4.9084    1.0000 </r>
       <r>    4.9196    1.0000 </r>
       <r>    4.9716    1.0000 </r>
       <r>    4.9900    1.0000 </r>
       <r>    5.0482    1.0000 </r>
       <r>    5.0933    1.0000 </r>
       <r>    5.1111    1.0000 </r>
       <r>    5.1672    1.0000 </r>
       <r>    5.1754    1.0000 </r>
       <r>    5.1992    1.0000 </r>
       <r>    5.2657    1.0000 </r>
       <r>    5.6205    1.0000 </r>
       <r>    5.7703    1.0000 </r>
       <r>    5.8484    1.0000 </r>
       <r>    6.1188    0.0000 </r>
       <r>    6.2090    0.0000 </r>
       <r>    6.2283    0.0000 </r>
       <r>    6.2546    0.0000 </r>
       <r>    6.2917    0.0000 </r>
       <r>    6.3663    0.0000 </r>
       <r>    6.5456    0.0000 </r>
       <r>    6.6031    0.0000 </r>
       <r>    6.6267    0.0000 </r>
       <r>    6.6302    0.0000 </r>
       <r>    6.6846    0.0000 </r>
       <r>    6.7155    0.0000 </r>
       <r>    6.7599    0.0000 </r>
       <r>    6.8041    0.0000 </r>
       <r>    6.8469    0.0000 </r>
       <r>    6.8610    0.0000 </r>
       <r>    6.8876    0.0000 </r>
       <r>    6.9296    0.0000 </r>
       <r>    6.9469    0.0000 </r>
       <r>    6.9671    0.0000 </r>
       <r>    6.9760    0.0000 </r>
       <r>    6.9907    0.0000 </r>
       <r>    7.0075    0.0000 </r>
       <r>    7.0267    0.0000 </r>
       <r>    7.0420    0.0000 </r>
       <r>    7.0528    0.0000 </r>
       <r>    7.0671    0.0000 </r>
       <r>    7.0817    0.0000 </r>
       <r>    7.1268    0.0000 </r>
       <r>    7.1363    0.0000 </r>
       <r>    7.1472    0.0000 </r>
       <r>    7.1744    0.0000 </r>
       <r>    7.1898    0.0000 </r>
       <r>    7.2021    0.0000 </r>
       <r>    7.2460    0.0000 </r>
       <r>    7.2565    0.0000 </r>
       <r>    7.2631    0.0000 </r>
       <r>    7.3003    0.0000 </r>
       <r>    7.3331    0.0000 </r>
       <r>    7.3809    0.0000 </r>
       <r>    7.4280    0.0000 </r>
       <r>    7.4693    0.0000 </r>
       <r>    7.4855    0.0000 </r>
       <r>    7.5288    0.0000 </r>
       <r>    7.5471    0.0000 </r>
       <r>    7.5669    0.0000 </r>
       <r>    7.6111    0.0000 </r>
       <r>    7.6396    0.0000 </r>
       <r>    7.8083    0.0000 </r>
       <r>    7.8339    0.0000 </r>
       <r>    7.8448    0.0000 </r>
       <r>    7.9209    0.0000 </r>
       <r>    7.9430    0.0000 </r>
       <r>    7.9743    0.0000 </r>
       <r>    7.9854    0.0000 </r>
       <r>    8.0044    0.0000 </r>
       <r>    8.0179    0.0000 </r>
       <r>    8.0677    0.0000 </r>
       <r>    8.0810    0.0000 </r>
       <r>    8.1234    0.0000 </r>
       <r>    8.1524    0.0000 </r>
       <r>    8.1867    0.0000 </r>
       <r>    8.2385    0.0000 </r>
       <r>    8.5267    0.0000 </r>
       <r>    8.5699    0.0000 </r>
       <r>    8.5835    0.0000 </r>
      </set>
      <set comment="kpoint 2">
       <r>   -6.1336    1.0000 </r>
       <r>   -6.0955    1.0000 </r>
       <r>   -5.7173    1.0000 </r>
       <r>   -5.6416    1.0000 </r>
       <r>   -5.5910    1.0000 </r>
       <r>   -5.5461    1.0000 </r>
       <r>   -5.5332    1.0000 </r>
       <r>   -5.4519    1.0000 </r>
       <r>   -5.2126    1.0000 </r>
       <r>   -5.1670    1.0000 </r>
       <r>   -5.0874    1.0000 </r>
       <r>   -5.0490    1.0000 </r>
       <r>   -4.9973    1.0000 </r>
       <r>   -4.9399    1.0000 </r>
       <r>   -4.7715    1.0000 </r>
[...]
       <r>    -3.1169    27.6548    99.7194 </r>
       <r>    -3.0623    55.1469   102.7295 </r>
       <r>    -3.0077    41.4522   104.9920 </r>
       <r>    -2.9531    34.1812   106.8577 </r>
       <r>    -2.8985    45.2653   109.3284 </r>
       <r>    -2.8440    37.8856   111.3963 </r>
       <r>    -2.7894    37.6185   113.4496 </r>
       <r>    -2.7348    26.8926   114.9175 </r>
       <r>    -2.6802    41.4905   117.1821 </r>
       <r>    -2.6256    29.3650   118.7849 </r>
       <r>    -2.5711    37.5437   120.8342 </r>
       <r>    -2.5165    16.8367   121.7532 </r>
       <r>    -2.4619    17.3026   122.6976 </r>
       <r>    -2.4073     0.9607   122.7500 </r>
       <r>    -2.3527     6.0062   123.0779 </r>
       <r>    -2.2981     3.6310   123.2761 </r>
       <r>    -2.2436    18.4639   124.2839 </r>
       <r>    -2.1890    18.8522   125.3128 </r>
       <r>    -2.1344    24.7659   126.6646 </r>
       <r>    -2.0798    30.1698   128.3114 </r>
       <r>    -2.0252    19.8837   129.3967 </r>
       <r>    -1.9707    19.9519   130.4857 </r>
       <r>    -1.9161    19.5042   131.5503 </r>
       <r>    -1.8615    15.1388   132.3766 </r>
       <r>    -1.8069    11.4194   132.9999 </r>
       <r>    -1.7523     0.1692   133.0091 </r>
       <r>    -1.6977     7.8925   133.4399 </r>
       <r>    -1.6432     7.6595   133.8580 </r>
       <r>    -1.5886    23.5082   135.1411 </r>
       <r>    -1.5340    37.9311   137.2115 </r>
       <r>    -1.4794    28.5662   138.7707 </r>
       <r>    -1.4248    38.6959   140.8828 </r>
       <r>    -1.3703    44.7579   143.3258 </r>
       <r>    -1.3157    46.1457   145.8445 </r>
       <r>    -1.2611    67.3103   149.5185 </r>
       <r>    -1.2065    61.5497   152.8780 </r>
       <r>    -1.1519    65.1346   156.4332 </r>
       <r>    -1.0973    67.5190   160.1185 </r>
       <r>    -1.0428    65.2533   163.6802 </r>
       <r>    -0.9882    71.3398   167.5741 </r>
       <r>    -0.9336    72.9508   171.5559 </r>
       <r>    -0.8790    64.8780   175.0971 </r>
       <r>    -0.8244    61.0327   178.4284 </r>
       <r>    -0.7698    40.4446   180.6360 </r>
       <r>    -0.7153    49.1467   183.3185 </r>
       <r>    -0.6607    47.7253   185.9235 </r>
       <r>    -0.6061    29.5430   187.5361 </r>
       <r>    -0.5515    18.0770   188.5228 </r>
       <r>    -0.4969    20.9308   189.6652 </r>
       <r>    -0.4424    24.4969   191.0024 </r>
       <r>    -0.3878    37.4079   193.0442 </r>
       <r>    -0.3332    45.5659   195.5313 </r>
       <r>    -0.2786    49.2311   198.2184 </r>
       <r>    -0.2240    43.4416   200.5896 </r>
       <r>    -0.1694    55.5150   203.6197 </r>
       <r>    -0.1149    47.7946   206.2284 </r>
       <r>    -0.0603    47.5451   208.8235 </r>
       <r>    -0.0057    34.2513   210.6930 </r>
       <r>     0.0489    30.6406   212.3655 </r>
       <r>     0.1035    20.7792   213.4997 </r>
       <r>     0.1580     9.1871   214.0011 </r>
       <r>     0.2126    12.9872   214.7100 </r>
       <r>     0.2672    19.0629   215.7505 </r>
       <r>     0.3218    28.4037   217.3008 </r>
       <r>     0.3764    12.1102   217.9618 </r>
       <r>     0.4310    26.4833   219.4074 </r>
       <r>     0.4855    19.8224   220.4893 </r>
       <r>     0.5401    34.0580   222.3483 </r>
       <r>     0.5947    12.3623   223.0230 </r>
       <r>     0.6493    19.3880   224.0813 </r>
       <r>     0.7039    20.1527   225.1813 </r>
       <r>     0.7585    24.2219   226.5033 </r>
       <r>     0.8130    18.2598   227.5000 </r>
       <r>     0.8676     4.6645   227.7546 </r>
       <r>     0.9222    21.5847   228.9328 </r>
       <r>     0.9768    25.1852   230.3074 </r>
       <r>     1.0314    20.9638   231.4517 </r>
       <r>     1.0859    28.0219   232.9812 </r>
       <r>     1.1405    29.2168   234.5759 </r>
       <r>     1.1951    15.6119   235.4280 </r>
       <r>     1.2497    24.4440   236.7623 </r>
       <r>     1.3043    37.3615   238.8015 </r>
       <r>     1.3589    32.8496   240.5946 </r>
       <r>     1.4134    31.5601   242.3172 </r>
       <r>     1.4680    51.0852   245.1056 </r>
       <r>     1.5226    87.2106   249.8657 </r>
       <r>     1.5772    82.5465   254.3713 </r>
       <r>     1.6318    96.5842   259.6431 </r>
       <r>     1.6863    72.5257   263.6017 </r>
       <r>     1.7409    56.7165   266.6974 </r>
       <r>     1.7955    54.2730   269.6598 </r>
       <r>     1.8501    41.8629   271.9448 </r>
       <r>     1.9047    22.6128   273.1790 </r>
       <r>     1.9593    18.3010   274.1779 </r>
       <r>     2.0138    40.2522   276.3750 </r>
       <r>     2.0684    52.5915   279.2455 </r>
       <r>     2.1230    78.6678   283.5394 </r>
       <r>     2.1776   101.0656   289.0558 </r>
       <r>     2.2322   114.4434   295.3023 </r>
       <r>     2.2868   125.4140   302.1477 </r>
       <r>     2.3413   123.2198   308.8734 </r>
       <r>     2.3959   105.9125   314.6543 </r>
       <r>     2.4505    82.0908   319.1350 </r>
       <r>     2.5051    57.9126   322.2960 </r>
       <r>     2.5597    33.9785   324.1507 </r>
       <r>     2.6142    35.1949   326.0717 </r>
       <r>     2.6688    50.5161   328.8290 </r>
       <r>     2.7234    75.1022   332.9282 </r>
       <r>     2.7780    87.8162   337.7214 </r>
       <r>     2.8326   110.0021   343.7256 </r>
       <r>     2.8872    84.6284   348.3448 </r>
       <r>     2.9417    94.3125   353.4926 </r>
       <r>     2.9963    99.1162   358.9026 </r>
       <r>     3.0509    99.7616   364.3478 </r>
       <r>     3.1055    81.3505   368.7881 </r>
       <r>     3.1601    79.7391   373.1404 </r>
       <r>     3.2146    79.6539   377.4882 </r>
       <r>     3.2692    84.8425   382.1191 </r>
       <r>     3.3238   105.3334   387.8684 </r>
       <r>     3.3784    98.3935   393.2389 </r>
       <r>     3.4330    97.5049   398.5610 </r>
       <r>     3.4876    78.8636   402.8656 </r>
       <r>     3.5421    72.8108   406.8397 </r>
       <r>     3.5967    82.7054   411.3540 </r>
       <r>     3.6513    70.9812   415.2283 </r>
       <r>     3.7059    67.7570   418.9266 </r>
       <r>     3.7605    94.4523   424.0820 </r>
       <r>     3.8150    91.0549   429.0520 </r>
       <r>     3.8696    66.7426   432.6950 </r>
       <r>     3.9242    79.4223   437.0300 </r>
       <r>     3.9788    68.0065   440.7420 </r>
       <r>     4.0334    62.1281   444.1331 </r>
       <r>     4.0880    66.8309   447.7809 </r>
       <r>     4.1425    80.6932   452.1853 </r>
       <r>     4.1971    72.2094   456.1267 </r>
       <r>     4.2517    74.6436   460.2009 </r>
       <r>     4.3063    59.9585   463.4736 </r>
       <r>     4.3609    69.9957   467.2941 </r>
       <r>     4.4155    79.7221   471.6455 </r>
       <r>     4.4700    62.5613   475.0603 </r>
       <r>     4.5246    81.7274   479.5211 </r>
       <r>     4.5792    69.0004   483.2873 </r>
       <r>     4.6338    53.7671   486.2220 </r>
       <r>     4.6884    49.0237   488.8979 </r>
       <r>     4.7429    35.0151   490.8091 </r>
       <r>     4.7975    13.5396   491.5482 </r>
       <r>     4.8521    22.6841   492.7863 </r>
       <r>     4.9067    38.7238   494.8999 </r>
       <r>     4.9613    30.6081   496.5706 </r>
       <r>     5.0159    39.3667   498.7193 </r>
       <r>     5.0704    49.8157   501.4384 </r>
       <r>     5.1250    28.4958   502.9938 </r>
       <r>     5.1796    12.4293   503.6722 </r>
       <r>     5.2342     6.0060   504.0000 </r>
       <r>     5.2888     9.1570   504.4998 </r>
       <r>     5.3433     9.8134   505.0354 </r>
       <r>     5.3979    17.7916   506.0065 </r>
       <r>     5.4525    29.3763   507.6100 </r>
       <r>     5.5071    25.0257   508.9759 </r>
       <r>     5.5617    27.2013   510.4606 </r>
       <r>     5.6163    11.1262   511.0679 </r>
       <r>     5.6708     7.8878   511.4985 </r>
       <r>     5.7254     0.0280   511.5000 </r>
       <r>     5.7800     4.1902   511.7287 </r>
       <r>     5.8346     0.5050   511.7563 </r>
       <r>     5.8892     4.4653   512.0000 </r>
       <r>     5.9438     0.0000   512.0000 </r>
       <r>     5.9983     0.0000   512.0000 </r>
       <r>     6.0529     0.0000   512.0000 </r>
       <r>     6.1075     0.4868   512.0266 </r>
       <r>     6.1621    17.7786   512.9970 </r>
       <r>     6.2167    12.9338   513.7029 </r>
       <r>     6.2712    15.3023   514.5382 </r>
       <r>     6.3258    13.0984   515.2531 </r>
       <r>     6.3804    29.4193   516.8589 </r>
       <r>     6.4350    32.2149   518.6172 </r>
       <r>     6.4896    12.7651   519.3140 </r>
       <r>     6.5442    27.1483   520.7958 </r>
       <r>     6.5987    14.2724   521.5748 </r>
       <r>     6.6533    21.5274   522.7498 </r>
       <r>     6.7079    11.6889   523.3879 </r>
       <r>     6.7625    41.0000   525.6257 </r>
       <r>     6.8171    37.5564   527.6756 </r>
       <r>     6.8716    30.5415   529.3427 </r>
       <r>     6.9262    23.9112   530.6478 </r>
       <r>     6.9808    52.4476   533.5105 </r>
       <r>     7.0354    36.7570   535.5168 </r>
       <r>     7.0900    43.1004   537.8693 </r>
       <r>     7.1446    26.5490   539.3184 </r>
       <r>     7.1991    25.2473   540.6965 </r>
       <r>     7.2537    42.5706   543.0201 </r>
       <r>     7.3083    68.0144   546.7324 </r>
       <r>     7.3629    72.9943   550.7167 </r>
       <r>     7.4175    90.4724   555.6549 </r>
       <r>     7.4721    79.3545   559.9862 </r>
       <r>     7.5266    84.6494   564.6066 </r>
       <r>     7.5812    79.9047   568.9680 </r>
       <r>     7.6358    72.0112   572.8985 </r>
       <r>     7.6904    96.7298   578.1783 </r>
       <r>     7.7450   106.9377   584.0152 </r>
       <r>     7.7995    89.6784   588.9101 </r>
       <r>     7.8541    98.5267   594.2879 </r>
       <r>     7.9087    77.3702   598.5109 </r>
       <r>     7.9633   100.4604   603.9943 </r>
       <r>     8.0179   100.6359   609.4872 </r>
       <r>     8.0725    74.4128   613.5488 </r>
       <r>     8.1270    89.4058   618.4288 </r>
       <r>     8.1816    77.0923   622.6366 </r>
       <r>     8.2362    82.8522   627.1589 </r>
       <r>     8.2908    88.3144   631.9793 </r>
       <r>     8.3454    83.5137   636.5377 </r>
       <r>     8.3999    72.4098   640.4900 </r>
       <r>     8.4545    45.8517   642.9926 </r>
       <r>     8.5091     4.7440   643.2516 </r>
       <r>     8.5637     5.4367   643.5483 </r>
       <r>     8.6183     8.2748   644.0000 </r>
       <r>     8.6729     0.0000   644.0000 </r>
       <r>     8.7274     0.0000   644.0000 </r>
       <r>     8.7820     0.0000   644.0000 </r>
       <r>     8.8366     0.0000   644.0000 </r>
       <r>     8.8912     0.0000   644.0000 </r>
       <r>     8.9458     0.0000   644.0000 </r>
       <r>     9.0004     0.0000   644.0000 </r>
       <r>     9.0549     0.0000   644.0000 </r>
       <r>     9.1095     0.0000   644.0000 </r>
       <r>     9.1641     0.0000   644.0000 </r>
       <r>     9.2187     0.0000   644.0000 </r>
       <r>     9.2733     0.0000   644.0000 </r>
       <r>     9.3278     0.0000   644.0000 </r>
      </set>
     </set>
    </array>
   </total>
  </dos>
 </calculation>
 <structure name="finalpos" >
  <crystal>
   <varray name="basis" >
    <v>       0.00000000      10.93733369      10.93733369 </v>
    <v>      10.93733369       0.00000000      10.93733369 </v>
    <v>      10.93733369      10.93733369       0.00000000 </v>
   </varray>
   <i name="volume">   2616.76295363 </i>
   <varray name="rec_basis" >
    <v>      -0.04571498       0.04571498       0.04571498 </v>
    <v>       0.04571498      -0.04571498       0.04571498 </v>
    <v>       0.04571498       0.04571498      -0.04571498 </v>
   </varray>
  </crystal>
  <varray name="positions" >
   <v>       0.99605489       0.00050103       0.00306762 </v>
   <v>       0.25383730       0.00132272       0.99459878 </v>
   <v>       0.50457716       0.00148851       0.99246167 </v>
   <v>       0.75241676       0.00468337       0.99703134 </v>
   <v>       0.00335089       0.24549524       0.01195246 </v>
   <v>       0.24885401       0.24796791       0.00098501 </v>
   <v>       0.50383851       0.25167876       0.00013744 </v>
   <v>       0.75391435       0.25260549       0.99819562 </v>
   <v>       0.99757951       0.51013861       0.99909345 </v>
   <v>       0.25321686       0.50215728       0.99658865 </v>
   <v>       0.50596416       0.49643527       0.00919138 </v>
   <v>       0.74156246       0.50417989       0.00632083 </v>
   <v>       0.00630045       0.75398350       0.99784289 </v>
   <v>       0.24780966       0.74856317       0.00970513 </v>
   <v>       0.49525022       0.74696378       0.99995447 </v>
   <v>       0.75258608       0.74197375       0.00205263 </v>
   <v>       0.00747231       0.98858347       0.25470261 </v>
   <v>       0.24954481       0.00383324       0.25521122 </v>
   <v>       0.50723183       0.99831030       0.25102183 </v>
   <v>       0.75568837       0.00068344       0.24611056 </v>
   <v>       0.00075068       0.25322553       0.24136134 </v>
   <v>       0.26168325       0.24851177       0.25201195 </v>
   <v>       0.49044526       0.24956673       0.26197699 </v>
   <v>       0.74508944       0.24770623       0.25037971 </v>
   <v>       0.00682048       0.49215017       0.25211529 </v>
   <v>       0.24085188       0.51157962       0.24436898 </v>
   <v>       0.50545203       0.49026440       0.25555803 </v>
   <v>       0.75056846       0.50808489       0.25875452 </v>
   <v>       0.00825795       0.74301288       0.25383334 </v>
   <v>       0.25052143       0.74828004       0.26102716 </v>
   <v>       0.49399428       0.74937385       0.27068586 </v>
   <v>       0.74075949       0.74657865       0.24637884 </v>
   <v>       0.99692853       0.99396548       0.50501914 </v>
   <v>       0.25862945       0.99759824       0.50121825 </v>
   <v>       0.49574187       0.00807892       0.50223105 </v>
   <v>       0.74827860       0.00231007       0.49349394 </v>
   <v>       0.99552625       0.26346801       0.49960573 </v>
   <v>       0.24417645       0.25266032       0.50364681 </v>
   <v>       0.50197206       0.25318757       0.49955173 </v>
   <v>       0.75063642       0.24645083       0.50867830 </v>
   <v>       0.00843762       0.49782951       0.49111878 </v>
   <v>       0.26046634       0.50277702       0.48461713 </v>
   <v>       0.49965418       0.49893436       0.49040633 </v>
   <v>       0.75092220       0.50205624       0.50581669 </v>
   <v>       0.98804499       0.75171573       0.51034078 </v>
   <v>       0.24337730       0.75371368       0.50187763 </v>
   <v>       0.50876304       0.74525089       0.49284256 </v>
   <v>       0.74932542       0.74720504       0.49844497 </v>
   <v>       0.99410429       0.00435150       0.75271055 </v>
   <v>       0.24907207       0.99219100       0.75240064 </v>
   <v>       0.50354533       0.99360273       0.74943980 </v>
   <v>       0.75010611       0.00730534       0.74816230 </v>
   <v>       0.00114333       0.25703541       0.75436074 </v>
   <v>       0.24787702       0.24393234       0.76000943 </v>
   <v>       0.50031357       0.25343631       0.74784964 </v>
   <v>       0.73656332       0.26344873       0.74151223 </v>
   <v>       0.00306872       0.50123701       0.75173119 </v>
   <v>       0.24435568       0.51180871       0.74731459 </v>
   <v>       0.50855333       0.49505322       0.75109378 </v>
   <v>       0.73838294       0.49608527       0.76322401 </v>
   <v>       0.00126022       0.74946894       0.74186430 </v>
   <v>       0.23474818       0.76077886       0.75159438 </v>
   <v>       0.49846450       0.74703447       0.75732678 </v>
   <v>       0.74900407       0.75315767       0.74053382 </v>
   <v>       0.05520753       0.06564213       0.06586334 </v>
   <v>       0.31714308       0.06527612       0.05745829 </v>
   <v>       0.56334129       0.05383171       0.06440321 </v>
   <v>       0.80720380       0.06057516       0.07330902 </v>
   <v>       0.06990875       0.31112429       0.06481639 </v>
   <v>       0.30620178       0.31211884       0.07394149 </v>
   <v>       0.56013234       0.31967651       0.05946500 </v>
   <v>       0.82554088       0.29986254       0.06187286 </v>
   <v>       0.06770611       0.54806305       0.07671350 </v>
   <v>       0.30759522       0.56915178       0.06324919 </v>
   <v>       0.56657875       0.56274690       0.05849896 </v>
   <v>       0.82499453       0.56519734       0.05611235 </v>
   <v>       0.05305841       0.81289407       0.06513207 </v>
   <v>       0.30288371       0.81526554       0.06547026 </v>
   <v>       0.56119647       0.79595584       0.07396610 </v>
   <v>       0.81162981       0.80865422       0.06710184 </v>
   <v>       0.06934537       0.05613976       0.31395690 </v>
   <v>       0.31823284       0.06604171       0.30442227 </v>
   <v>       0.55792860       0.06097870       0.32371429 </v>
   <v>       0.81245165       0.06140008       0.32290669 </v>
   <v>       0.07573423       0.31586273       0.29519871 </v>
   <v>       0.31163822       0.32397958       0.31016551 </v>
   <v>       0.56149590       0.30849261       0.32142382 </v>
   <v>       0.80683042       0.32125480       0.30698683 </v>
   <v>       0.05569521       0.56833538       0.31329370 </v>
   <v>       0.30110932       0.57705560       0.30365517 </v>
   <v>       0.55690809       0.57015890       0.30816001 </v>
   <v>       0.81810693       0.55706854       0.32038918 </v>
   <v>       0.06992710       0.80406039       0.30682165 </v>
   <v>       0.31454382       0.81173206       0.30664469 </v>
   <v>       0.56839954       0.80580817       0.31407046 </v>
   <v>       0.81604258       0.81302616       0.30484336 </v>
   <v>       0.06823164       0.06297560       0.56713652 </v>
   <v>       0.30980809       0.06836882       0.56611230 </v>
   <v>       0.56360425       0.06381933       0.56740339 </v>
   <v>       0.79352850       0.06622999       0.56181971 </v>
   <v>       0.06868207       0.30381061       0.56174212 </v>
   <v>       0.32303373       0.30859886       0.55781663 </v>
   <v>       0.56108401       0.31444615       0.55568297 </v>
   <v>       0.79783292       0.31978810       0.56269513 </v>
   <v>       0.07056744       0.56028639       0.55747533 </v>
   <v>       0.31445753       0.55810813       0.56605856 </v>
   <v>       0.54849410       0.56662425       0.56834179 </v>
   <v>       0.81389906       0.56920349       0.56198735 </v>
   <v>       0.05630445       0.79988014       0.56754082 </v>
   <v>       0.32684613       0.80713723       0.56331773 </v>
   <v>       0.56935957       0.81482356       0.55549291 </v>
   <v>       0.80530966       0.81434534       0.56192416 </v>
   <v>       0.06605855       0.06291233       0.81406249 </v>
   <v>       0.31912789       0.05233480       0.81274007 </v>
   <v>       0.56768660       0.05237848       0.80995350 </v>
   <v>       0.80674855       0.06897748       0.81040819 </v>
   <v>       0.06364526       0.32194211       0.80115797 </v>
   <v>       0.32236299       0.30421056       0.81215266 </v>
   <v>       0.55899474       0.32078769       0.80317568 </v>
   <v>       0.81704854       0.30643738       0.81495015 </v>
   <v>       0.06145738       0.54923404       0.82518928 </v>
   <v>       0.29542841       0.58144863       0.81629999 </v>
   <v>       0.56655560       0.57284624       0.80831336 </v>
   <v>       0.80865403       0.55218729       0.81610312 </v>
   <v>       0.05286145       0.81727782       0.81538583 </v>
   <v>       0.32169447       0.80785829       0.80753510 </v>
   <v>       0.56345034       0.81276430       0.81532965 </v>
   <v>       0.81793038       0.80736427       0.80862904 </v>
  </varray>
 </structure>
</modeling>
