potpaw_PBE@./ARUN.APL1ZEROSTATE         
           1
     0.000000   10.937334   10.937334
    10.937334    0.000000   10.937334
    10.937334   10.937334    0.000000
   Si
 128
Direct configuration=     1
   0.99605489  0.00050103  0.00306762
   0.25383730  0.00132272  0.99459878
   0.50457716  0.00148851  0.99246167
   0.75241676  0.00468337  0.99703134
   0.00335089  0.24549524  0.01195246
   0.24885401  0.24796791  0.00098501
   0.50383851  0.25167876  0.00013744
   0.75391435  0.25260549  0.99819562
   0.99757951  0.51013861  0.99909345
   0.25321686  0.50215728  0.99658865
   0.50596416  0.49643527  0.00919138
   0.74156246  0.50417989  0.00632083
   0.00630045  0.75398350  0.99784289
   0.24780966  0.74856317  0.00970513
   0.49525022  0.74696378  0.99995447
   0.75258608  0.74197375  0.00205263
   0.00747231  0.98858347  0.25470261
   0.24954481  0.00383324  0.25521122
   0.50723183  0.99831030  0.25102183
   0.75568837  0.00068344  0.24611056
   0.00075068  0.25322553  0.24136134
   0.26168325  0.24851177  0.25201195
   0.49044526  0.24956673  0.26197699
   0.74508944  0.24770623  0.25037971
   0.00682048  0.49215017  0.25211529
   0.24085188  0.51157962  0.24436898
   0.50545203  0.49026440  0.25555803
   0.75056846  0.50808489  0.25875452
   0.00825795  0.74301288  0.25383334
   0.25052143  0.74828004  0.26102716
   0.49399428  0.74937385  0.27068586
   0.74075949  0.74657865  0.24637884
   0.99692853  0.99396548  0.50501914
   0.25862945  0.99759824  0.50121825
   0.49574187  0.00807892  0.50223105
   0.74827860  0.00231007  0.49349394
   0.99552625  0.26346801  0.49960573
   0.24417645  0.25266032  0.50364681
   0.50197206  0.25318757  0.49955173
   0.75063642  0.24645083  0.50867830
   0.00843762  0.49782951  0.49111878
   0.26046634  0.50277702  0.48461713
   0.49965418  0.49893436  0.49040633
   0.75092220  0.50205624  0.50581669
   0.98804499  0.75171573  0.51034078
   0.24337730  0.75371368  0.50187763
   0.50876304  0.74525089  0.49284256
   0.74932542  0.74720504  0.49844497
   0.99410429  0.00435150  0.75271055
   0.24907207  0.99219100  0.75240064
   0.50354533  0.99360273  0.74943980
   0.75010611  0.00730534  0.74816230
   0.00114333  0.25703541  0.75436074
   0.24787702  0.24393234  0.76000943
   0.50031357  0.25343631  0.74784964
   0.73656332  0.26344873  0.74151223
   0.00306872  0.50123701  0.75173119
   0.24435568  0.51180871  0.74731459
   0.50855333  0.49505322  0.75109378
   0.73838294  0.49608527  0.76322401
   0.00126022  0.74946894  0.74186430
   0.23474818  0.76077886  0.75159438
   0.49846450  0.74703447  0.75732678
   0.74900407  0.75315767  0.74053382
   0.05520753  0.06564213  0.06586334
   0.31714308  0.06527612  0.05745829
   0.56334129  0.05383171  0.06440321
   0.80720380  0.06057516  0.07330902
   0.06990875  0.31112429  0.06481639
   0.30620178  0.31211884  0.07394149
   0.56013234  0.31967651  0.05946500
   0.82554088  0.29986254  0.06187286
   0.06770611  0.54806305  0.07671350
   0.30759522  0.56915178  0.06324919
   0.56657875  0.56274690  0.05849896
   0.82499453  0.56519734  0.05611235
   0.05305841  0.81289407  0.06513207
   0.30288371  0.81526554  0.06547026
   0.56119647  0.79595584  0.07396610
   0.81162981  0.80865422  0.06710184
   0.06934537  0.05613976  0.31395690
   0.31823284  0.06604171  0.30442227
   0.55792860  0.06097870  0.32371429
   0.81245165  0.06140008  0.32290669
   0.07573423  0.31586273  0.29519871
   0.31163822  0.32397958  0.31016551
   0.56149590  0.30849261  0.32142382
   0.80683042  0.32125480  0.30698683
   0.05569521  0.56833538  0.31329370
   0.30110932  0.57705560  0.30365517
   0.55690809  0.57015890  0.30816001
   0.81810693  0.55706854  0.32038918
   0.06992710  0.80406039  0.30682165
   0.31454382  0.81173206  0.30664469
   0.56839954  0.80580817  0.31407046
   0.81604258  0.81302616  0.30484336
   0.06823164  0.06297560  0.56713652
   0.30980809  0.06836882  0.56611230
   0.56360425  0.06381933  0.56740339
   0.79352850  0.06622999  0.56181971
   0.06868207  0.30381061  0.56174212
   0.32303373  0.30859886  0.55781663
   0.56108401  0.31444615  0.55568297
   0.79783292  0.31978810  0.56269513
   0.07056744  0.56028639  0.55747533
   0.31445753  0.55810813  0.56605856
   0.54849410  0.56662425  0.56834179
   0.81389906  0.56920349  0.56198735
   0.05630445  0.79988014  0.56754082
   0.32684613  0.80713723  0.56331773
   0.56935957  0.81482356  0.55549291
   0.80530966  0.81434534  0.56192416
   0.06605855  0.06291233  0.81406249
   0.31912789  0.05233480  0.81274007
   0.56768660  0.05237848  0.80995350
   0.80674855  0.06897748  0.81040819
   0.06364526  0.32194211  0.80115797
   0.32236299  0.30421056  0.81215266
   0.55899474  0.32078769  0.80317568
   0.81704854  0.30643738  0.81495015
   0.06145738  0.54923404  0.82518928
   0.29542841  0.58144863  0.81629999
   0.56655560  0.57284624  0.80831336
   0.80865403  0.55218729  0.81610312
   0.05286145  0.81727782  0.81538583
   0.32169447  0.80785829  0.80753510
   0.56345034  0.81276430  0.81532965
   0.81793038  0.80736427  0.80862904
