 128 128   0   0
  0.2044346E+02  0.1546773E-08  0.1546773E-08  0.1546773E-08  0.5000000E-15
  1.000000000000000E-004
  CAR 
 potpaw_PBE@./ARUN.APL1ZEROSTATE         
      9.33443719     -7.04209158  301      5.90218971      1.00000000
     -7.042  0.0000E+00  0.0000E+00
     -6.988  0.0000E+00  0.0000E+00
     -6.933  0.0000E+00  0.0000E+00
     -6.878  0.0000E+00  0.0000E+00
     -6.824  0.0000E+00  0.0000E+00
     -6.769  0.0000E+00  0.0000E+00
     -6.715  0.0000E+00  0.0000E+00
     -6.660  0.0000E+00  0.0000E+00
     -6.605  0.0000E+00  0.0000E+00
     -6.551  0.0000E+00  0.0000E+00
     -6.496  0.0000E+00  0.0000E+00
     -6.442  0.0000E+00  0.0000E+00
     -6.387  0.0000E+00  0.0000E+00
     -6.332  0.2057E-05  0.1123E-06
     -6.278  0.4568E+01  0.2494E+00
     -6.223  0.1144E-01  0.2500E+00
     -6.169  0.3912E+00  0.2714E+00
     -6.114  0.1536E+02  0.1110E+01
     -6.059  0.2450E+02  0.2447E+01
     -6.005  0.2043E+02  0.3563E+01
     -5.950  0.3434E+01  0.3750E+01
     -5.896  0.1236E-12  0.3750E+01
     -5.841  0.3481E+01  0.3940E+01
     -5.787  0.2328E+02  0.5211E+01
     -5.732  0.1024E+02  0.5770E+01
     -5.677  0.3175E+02  0.7503E+01
     -5.623  0.3070E+02  0.9179E+01
     -5.568  0.3228E+02  0.1094E+02
     -5.514  0.3228E+02  0.1270E+02
     -5.459  0.2133E+02  0.1387E+02
     -5.404  0.1616E+02  0.1475E+02
     -5.350  0.4579E+01  0.1500E+02
     -5.295  0.6245E-01  0.1500E+02
     -5.241  0.1045E+02  0.1557E+02
     -5.186  0.2562E+02  0.1697E+02
     -5.131  0.4165E+02  0.1925E+02
     -5.077  0.4836E+02  0.2189E+02
     -5.022  0.3710E+02  0.2391E+02
     -4.968  0.5158E+02  0.2673E+02
     -4.913  0.1489E+02  0.2754E+02
     -4.859  0.1900E+02  0.2858E+02
     -4.804  0.2394E+02  0.2988E+02
     -4.749  0.3212E+02  0.3164E+02
     -4.695  0.3470E+02  0.3353E+02
     -4.640  0.2529E+02  0.3491E+02
     -4.586  0.4768E+02  0.3752E+02
     -4.531  0.3642E+02  0.3950E+02
     -4.476  0.3118E+02  0.4121E+02
     -4.422  0.2473E+02  0.4256E+02
     -4.367  0.2482E+02  0.4391E+02
     -4.313  0.2137E+02  0.4508E+02
     -4.258  0.3692E+02  0.4709E+02
     -4.203  0.5602E+02  0.5015E+02
     -4.149  0.5668E+02  0.5324E+02
     -4.094  0.6099E+02  0.5657E+02
     -4.040  0.4689E+02  0.5913E+02
     -3.985  0.5282E+02  0.6202E+02
     -3.931  0.5682E+02  0.6512E+02
     -3.876  0.4075E+02  0.6734E+02
     -3.821  0.5553E+02  0.7037E+02
     -3.767  0.4919E+02  0.7306E+02
     -3.712  0.4764E+02  0.7566E+02
     -3.658  0.3960E+02  0.7782E+02
     -3.603  0.3559E+02  0.7977E+02
     -3.548  0.3135E+02  0.8148E+02
     -3.494  0.2896E+02  0.8306E+02
     -3.439  0.5408E+02  0.8601E+02
     -3.385  0.5199E+02  0.8885E+02
     -3.330  0.6081E+02  0.9217E+02
     -3.275  0.5265E+02  0.9504E+02
     -3.221  0.3568E+02  0.9699E+02
     -3.166  0.3019E+02  0.9864E+02
     -3.112  0.3912E+02  0.1008E+03
     -3.057  0.3308E+02  0.1026E+03
     -3.003  0.4133E+02  0.1048E+03
     -2.948  0.4438E+02  0.1073E+03
     -2.893  0.4487E+02  0.1097E+03
     -2.839  0.3064E+02  0.1114E+03
     -2.784  0.4688E+02  0.1139E+03
     -2.730  0.2111E+02  0.1151E+03
     -2.675  0.3940E+02  0.1172E+03
     -2.620  0.4285E+02  0.1196E+03
     -2.566  0.2560E+02  0.1210E+03
     -2.511  0.1931E+02  0.1220E+03
     -2.457  0.8755E+01  0.1225E+03
     -2.402  0.4381E+01  0.1227E+03
     -2.347  0.3178E+01  0.1229E+03
     -2.293  0.1055E+02  0.1235E+03
     -2.238  0.7742E+01  0.1239E+03
     -2.184  0.2404E+02  0.1252E+03
     -2.129  0.2986E+02  0.1269E+03
     -2.075  0.2484E+02  0.1282E+03
     -2.020  0.3236E+02  0.1300E+03
     -1.965  0.1900E+02  0.1310E+03
     -1.911  0.2393E+02  0.1323E+03
     -1.856  0.3827E+01  0.1325E+03
     -1.802  0.9416E+01  0.1331E+03
     -1.747  0.3610E+01  0.1333E+03
     -1.692  0.4622E+01  0.1335E+03
     -1.638  0.6275E+01  0.1338E+03
     -1.583  0.2707E+02  0.1353E+03
     -1.529  0.3572E+02  0.1373E+03
     -1.474  0.3501E+02  0.1392E+03
     -1.419  0.3121E+02  0.1409E+03
     -1.365  0.5400E+02  0.1438E+03
     -1.310  0.5394E+02  0.1468E+03
     -1.256  0.6190E+02  0.1502E+03
     -1.201  0.7060E+02  0.1540E+03
     -1.147  0.5072E+02  0.1568E+03
     -1.092  0.6483E+02  0.1603E+03
     -1.037  0.6890E+02  0.1641E+03
     -0.983  0.7864E+02  0.1684E+03
     -0.928  0.5315E+02  0.1713E+03
     -0.874  0.7983E+02  0.1756E+03
     -0.819  0.5882E+02  0.1788E+03
     -0.764  0.5073E+02  0.1816E+03
     -0.710  0.3292E+02  0.1834E+03
     -0.655  0.5954E+02  0.1867E+03
     -0.601  0.2410E+02  0.1880E+03
     -0.546  0.1938E+02  0.1890E+03
     -0.491  0.1706E+02  0.1900E+03
     -0.437  0.2054E+02  0.1911E+03
     -0.382  0.2970E+02  0.1927E+03
     -0.328  0.4898E+02  0.1954E+03
     -0.273  0.6821E+02  0.1991E+03
     -0.219  0.4998E+02  0.2018E+03
     -0.164  0.4283E+02  0.2042E+03
     -0.109  0.3787E+02  0.2062E+03
     -0.055  0.5912E+02  0.2095E+03
     -0.000  0.2958E+02  0.2111E+03
      0.054  0.3135E+02  0.2128E+03
      0.109  0.1752E+02  0.2137E+03
      0.164  0.1680E+01  0.2138E+03
      0.218  0.1207E+02  0.2145E+03
      0.273  0.3031E+02  0.2162E+03
      0.327  0.1993E+02  0.2172E+03
      0.382  0.3160E+02  0.2190E+03
      0.437  0.1809E+02  0.2200E+03
      0.491  0.1671E+02  0.2209E+03
      0.546  0.1435E+02  0.2217E+03
      0.600  0.2471E+02  0.2230E+03
      0.655  0.2817E+02  0.2245E+03
      0.709  0.2527E+02  0.2259E+03
      0.764  0.2387E+02  0.2272E+03
      0.819  0.5793E+01  0.2275E+03
      0.873  0.3930E+01  0.2278E+03
      0.928  0.8795E+01  0.2282E+03
      0.982  0.2973E+02  0.2299E+03
      1.037  0.4082E+02  0.2321E+03
      1.092  0.2853E+02  0.2336E+03
      1.146  0.2223E+02  0.2349E+03
      1.201  0.2162E+02  0.2360E+03
      1.255  0.2960E+02  0.2376E+03
      1.310  0.2385E+02  0.2390E+03
      1.365  0.2355E+02  0.2402E+03
      1.419  0.3439E+02  0.2421E+03
      1.474  0.5654E+02  0.2452E+03
      1.528  0.7941E+02  0.2495E+03
      1.583  0.1032E+03  0.2552E+03
      1.637  0.8148E+02  0.2596E+03
      1.692  0.7279E+02  0.2636E+03
      1.747  0.6715E+02  0.2673E+03
      1.801  0.5677E+02  0.2704E+03
      1.856  0.2864E+02  0.2719E+03
      1.910  0.2270E+02  0.2732E+03
      1.965  0.2015E+02  0.2743E+03
      2.020  0.2763E+02  0.2758E+03
      2.074  0.6502E+02  0.2793E+03
      2.129  0.9121E+02  0.2843E+03
      2.183  0.9921E+02  0.2897E+03
      2.238  0.1206E+03  0.2963E+03
      2.293  0.1300E+03  0.3034E+03
      2.347  0.1079E+03  0.3093E+03
      2.402  0.1114E+03  0.3154E+03
      2.456  0.8437E+02  0.3200E+03
      2.511  0.3699E+02  0.3220E+03
      2.565  0.3698E+02  0.3240E+03
      2.620  0.3919E+02  0.3261E+03
      2.675  0.6668E+02  0.3298E+03
      2.729  0.8342E+02  0.3343E+03
      2.784  0.1068E+03  0.3402E+03
      2.838  0.8040E+02  0.3446E+03
      2.893  0.8223E+02  0.3490E+03
      2.948  0.9341E+02  0.3541E+03
      3.002  0.9318E+02  0.3592E+03
      3.057  0.1001E+03  0.3647E+03
      3.111  0.9216E+02  0.3697E+03
      3.166  0.7573E+02  0.3739E+03
      3.221  0.8086E+02  0.3783E+03
      3.275  0.9762E+02  0.3836E+03
      3.330  0.9884E+02  0.3890E+03
      3.384  0.9090E+02  0.3940E+03
      3.439  0.9429E+02  0.3991E+03
      3.493  0.9458E+02  0.4043E+03
      3.548  0.8389E+02  0.4089E+03
      3.603  0.6370E+02  0.4123E+03
      3.657  0.7029E+02  0.4162E+03
      3.712  0.7843E+02  0.4204E+03
      3.766  0.7161E+02  0.4244E+03
      3.821  0.7753E+02  0.4286E+03
      3.876  0.8392E+02  0.4332E+03
      3.930  0.8384E+02  0.4377E+03
      3.985  0.6830E+02  0.4415E+03
      4.039  0.6617E+02  0.4451E+03
      4.094  0.7669E+02  0.4493E+03
      4.149  0.7052E+02  0.4531E+03
      4.203  0.6099E+02  0.4565E+03
      4.258  0.7464E+02  0.4605E+03
      4.312  0.7024E+02  0.4644E+03
      4.367  0.7780E+02  0.4686E+03
      4.421  0.6928E+02  0.4724E+03
      4.476  0.7042E+02  0.4762E+03
      4.531  0.6224E+02  0.4796E+03
      4.585  0.6392E+02  0.4831E+03
      4.640  0.6032E+02  0.4864E+03
      4.694  0.4137E+02  0.4887E+03
      4.749  0.3495E+02  0.4906E+03
      4.804  0.1877E+02  0.4916E+03
      4.858  0.2996E+02  0.4932E+03
      4.913  0.4543E+02  0.4957E+03
      4.967  0.3315E+02  0.4975E+03
      5.022  0.4164E+02  0.4998E+03
      5.077  0.3111E+02  0.5015E+03
      5.131  0.9737E+01  0.5020E+03
      5.186  0.2345E+02  0.5033E+03
      5.240  0.1245E+02  0.5040E+03
      5.295  0.2208E+01  0.5041E+03
      5.349  0.2810E+02  0.5056E+03
      5.404  0.1060E+02  0.5062E+03
      5.459  0.1908E+02  0.5073E+03
      5.513  0.3150E+02  0.5090E+03
      5.568  0.1709E+02  0.5099E+03
      5.622  0.1992E+02  0.5110E+03
      5.677  0.4827E+01  0.5113E+03
      5.732  0.4209E+01  0.5115E+03
      5.786  0.4579E+01  0.5117E+03
      5.841  0.4579E+01  0.5120E+03
      5.895  0.0000E+00  0.5120E+03
      5.950  0.0000E+00  0.5120E+03
      6.005  0.0000E+00  0.5120E+03
      6.059  0.8780E-09  0.5120E+03
      6.114  0.5809E+01  0.5123E+03
      6.168  0.1135E+02  0.5129E+03
      6.223  0.2387E+02  0.5142E+03
      6.277  0.1295E+02  0.5149E+03
      6.332  0.1242E+02  0.5156E+03
      6.387  0.1688E+02  0.5165E+03
      6.441  0.2445E+02  0.5179E+03
      6.496  0.2574E+02  0.5193E+03
      6.550  0.3181E+02  0.5210E+03
      6.605  0.8516E+01  0.5215E+03
      6.660  0.1751E+02  0.5224E+03
      6.714  0.2899E+02  0.5240E+03
      6.769  0.2908E+02  0.5256E+03
      6.823  0.3605E+02  0.5276E+03
      6.878  0.3750E+02  0.5296E+03
      6.933  0.3767E+02  0.5317E+03
      6.987  0.4489E+02  0.5341E+03
      7.042  0.3911E+02  0.5363E+03
      7.096  0.3568E+02  0.5382E+03
      7.151  0.2220E+02  0.5394E+03
      7.205  0.3266E+02  0.5412E+03
      7.260  0.4726E+02  0.5438E+03
      7.315  0.6944E+02  0.5476E+03
      7.369  0.7180E+02  0.5515E+03
      7.424  0.8323E+02  0.5560E+03
      7.478  0.8444E+02  0.5607E+03
      7.533  0.7782E+02  0.5649E+03
      7.588  0.8314E+02  0.5694E+03
      7.642  0.8238E+02  0.5739E+03
      7.697  0.8709E+02  0.5787E+03
      7.751  0.1136E+03  0.5849E+03
      7.806  0.8341E+02  0.5894E+03
      7.861  0.9485E+02  0.5946E+03
      7.915  0.8921E+02  0.5995E+03
      7.970  0.1077E+03  0.6054E+03
      8.024  0.8375E+02  0.6099E+03
      8.079  0.8578E+02  0.6146E+03
      8.133  0.6769E+02  0.6183E+03
      8.188  0.8106E+02  0.6227E+03
      8.243  0.8587E+02  0.6274E+03
      8.297  0.8431E+02  0.6320E+03
      8.352  0.8725E+02  0.6368E+03
      8.406  0.7727E+02  0.6410E+03
      8.461  0.4086E+02  0.6432E+03
      8.516  0.3946E+00  0.6433E+03
      8.570  0.8472E+01  0.6437E+03
      8.625  0.4895E+01  0.6440E+03
      8.679  0.0000E+00  0.6440E+03
      8.734  0.0000E+00  0.6440E+03
      8.789  0.0000E+00  0.6440E+03
      8.843  0.0000E+00  0.6440E+03
      8.898  0.0000E+00  0.6440E+03
      8.952  0.0000E+00  0.6440E+03
      9.007  0.0000E+00  0.6440E+03
      9.061  0.0000E+00  0.6440E+03
      9.116  0.0000E+00  0.6440E+03
      9.171  0.0000E+00  0.6440E+03
      9.225  0.0000E+00  0.6440E+03
      9.280  0.0000E+00  0.6440E+03
      9.334  0.0000E+00  0.6440E+03
