 vasp.5.4.4.18Apr17-6-g9f103f2a35 (build Nov 08 2017 09:05:29) complex          
  
 executed on          Intel_17.33 date 2020.07.18  22:48:48
 running on   32 total cores
 distrk:  each k-point on   32 cores,    1 groups
 distr:  one band on NCORES_PER_BAND=  16 cores,    2 groups


--------------------------------------------------------------------------------------------------------


 INCAR:
 POTCAR:   PAW_PBE Si 05Jan2001                   

 ----------------------------------------------------------------------------- 
|                                                                             |
|           W    W    AA    RRRRR   N    N  II  N    N   GGGG   !!!           |
|           W    W   A  A   R    R  NN   N  II  NN   N  G    G  !!!           |
|           W    W  A    A  R    R  N N  N  II  N N  N  G       !!!           |
|           W WW W  AAAAAA  RRRRR   N  N N  II  N  N N  G  GGG   !            |
|           WW  WW  A    A  R   R   N   NN  II  N   NN  G    G                |
|           W    W  A    A  R    R  N    N  II  N    N   GGGG   !!!           |
|                                                                             |
|      For optimal performance we recommend to set                            |
|        NCORE= 4 - approx SQRT( number of cores)                             |
|      NCORE specifies how many cores store one orbital (NPAR=cpu/NCORE).     |
|      This setting can  greatly improve the performance of VASP for DFT.     |
|      The default,   NCORE=1            might be grossly inefficient         |
|      on modern multi-core architectures or massively parallel machines.     |
|      Do your own testing !!!!                                               |
|      Unfortunately you need to use the default for GW and RPA calculations. |
|      (for HF NCORE is supported but not extensively tested yet)             |
|                                                                             |
 ----------------------------------------------------------------------------- 

 POTCAR:   PAW_PBE Si 05Jan2001                   
   VRHFIN =Si: s2p2                                                             
   LEXCH  = PE                                                                  
   EATOM  =   103.0669 eV,    7.5752 Ry                                         
                                                                                
   TITEL  = PAW_PBE Si 05Jan2001                                                
   LULTRA =        F    use ultrasoft PP ?                                      
   IUNSCR =        1    unscreen: 0-lin 1-nonlin 2-no                           
   RPACOR =    1.500    partial core radius                                     
   POMASS =   28.085; ZVAL   =    4.000    mass and valenz                      
   RCORE  =    1.900    outmost cutoff radius                                   
   RWIGS  =    2.480; RWIGS  =    1.312    wigner-seitz radius (au A)           
   ENMAX  =  245.345; ENMIN  =  184.009 eV                                      
   ICORE  =        2    local potential                                         
   LCOR   =        T    correct aug charges                                     
   LPAW   =        T    paw PP                                                  
   EAUG   =  322.069                                                            
   DEXC   =    -.007                                                            
   RMAX   =    2.944    core radius for proj-oper                               
   RAUG   =    1.300    factor for augmentation sphere                          
   RDEP   =    1.993    radius for radial grids                                 
   QCUT   =   -4.246; QGAM   =    8.493    optimization parameters              
                                                                                
   Description                                                                  
     l     E      TYP  RCUT    TYP  RCUT                                        
     0   .000     23  1.900                                                     
     0   .000     23  1.900                                                     
     1   .000     23  1.900                                                     
     1   .000     23  1.900                                                     
     2   .000      7  1.900                                                     
  local pseudopotential read in
  partial core-charges read in
  atomic valenz-charges read in
  non local Contribution for L=           0  read in
    real space projection operators read in
  non local Contribution for L=           0  read in
    real space projection operators read in
  non local Contribution for L=           1  read in
    real space projection operators read in
  non local Contribution for L=           1  read in
    real space projection operators read in
    PAW grid and wavefunctions read in
 
   number of l-projection  operators is LMAX  =           4
   number of lm-projection operators is LMMAX =           8
 

 ----------------------------------------------------------------------------- 
|                                                                             |
|  ADVICE TO THIS USER RUNNING 'VASP/VAMP'   (HEAR YOUR MASTER'S VOICE ...):  |
|                                                                             |
|      You have a (more or less) 'large supercell' and for larger cells       |
|      it might be more efficient to use real space projection operators      |
|      So try LREAL= Auto  in the INCAR   file.                               |
|      Mind: If you want to do a very accurate calculations keep the          |
|      reciprocal projection scheme          (i.e. LREAL=.FALSE.)             |
|                                                                             |
 ----------------------------------------------------------------------------- 

 PAW_PBE Si 05Jan2001                   :
 energy of atom  1       EATOM= -103.0669
 kinetic energy error for atom=    0.0006 (will be added to EATOM!!)
 
 
 POSCAR: kk                                      
  positions in direct lattice
  No initial velocities read in
 exchange correlation table for  LEXCH =        8
   RHO(1)=    0.500       N(1)  =     2000
   RHO(2)=  100.500       N(2)  =     4000
 


--------------------------------------------------------------------------------------------------------


 ion  position               nearest neighbor table
   1  0.004  0.006  0.995-  77 2.33  65 2.38 113 2.48  68 2.49
   2  0.247  0.989  0.010-  65 2.27  78 2.38 114 2.41  66 2.58
   3  0.499  0.992  0.007-  66 2.19  79 2.33  67 2.36 115 2.38
   4  0.754  0.006  1.000-  68 2.19 116 2.37  67 2.47  80 2.48
   5  0.008  0.247  0.998-  65 2.26  69 2.29 117 2.31  72 2.38
   6  0.239  0.249  0.001-  69 2.28  66 2.45 118 2.53  70 2.58
   7  0.496  0.250  0.005-  67 2.31  70 2.32  71 2.41 119 2.46
   8  0.750  0.262  0.984- 120 2.30  71 2.32  72 2.41  68 2.48
   9  0.991  0.507  0.002-  76 2.35  73 2.37  69 2.41 121 2.50
  10  0.246  0.506  0.001-  73 2.31 122 2.40  74 2.48  70 2.57
  11  0.493  0.508  0.993-  74 2.28 123 2.31  75 2.33  71 2.40
  12  0.741  0.501  0.009-  76 2.30  75 2.31 124 2.35  72 2.44
  13  0.001  0.742  0.995-  73 2.26 125 2.27  80 2.36  77 2.48
  14  0.244  0.755  0.003-  77 2.39  74 2.42 126 2.42  78 2.47
  15  0.507  0.748  0.992- 127 2.13  75 2.33  78 2.37  79 2.46
  16  0.743  0.757  0.002-  79 2.22  80 2.38  76 2.42 128 2.54
  17  0.013  0.004  0.234-  65 2.26  93 2.38  81 2.38  84 2.56
  18  0.259  0.995  0.253-  94 2.33  82 2.34  66 2.36  81 2.45
  19  0.498  0.008  0.244-  67 2.34  82 2.35  83 2.37  95 2.47
  20  0.743  0.993  0.265-  83 2.27  84 2.31  96 2.41  68 2.60
  21  0.995  0.261  0.241-  69 2.29  88 2.29  85 2.37  81 2.44
  22  0.249  0.234  0.268-  82 2.17  86 2.36  70 2.41  85 2.51
  23  0.503  0.244  0.241-  83 2.26  71 2.35  86 2.52  87 2.65
  24  0.754  0.245  0.250-  84 2.30  88 2.40  72 2.45  87 2.51
  25  0.002  0.499  0.249-  85 2.34  92 2.35  89 2.36  73 2.38
  26  0.251  0.496  0.247-  86 2.18  74 2.24  90 2.31  89 2.34
  27  0.511  0.494  0.244-  87 2.22  75 2.36  91 2.44  90 2.53
  28  0.754  0.488  0.256-  88 2.19  91 2.23  92 2.33  76 2.46
  29  0.990  0.745  0.262-  96 2.28  89 2.41  93 2.41  77 2.59
  30  0.246  0.749  0.256-  94 2.25  78 2.30  93 2.40  90 2.41
  31  0.502  0.752  0.242-  79 2.24  91 2.35  94 2.40  95 2.47
  32  0.752  0.748  0.251-  96 2.24  95 2.29  92 2.31  80 2.33
  33  0.993  0.011  0.498-  97 2.28 100 2.31  81 2.43 109 2.62
  34  0.249  0.996  0.509-  98 2.27 110 2.36  82 2.42  97 2.54
  35  0.502  0.993  0.509-  99 2.23  98 2.29 111 2.45  83 2.54
  36  0.755  0.993  0.497- 112 2.36  84 2.37 100 2.47  99 2.54
  37  1.000  0.253  0.501- 101 2.20  85 2.33  97 2.36 104 2.40
  38  0.246  0.259  0.497- 102 2.37 101 2.38  86 2.39  98 2.46
  39  0.503  0.249  0.496-  87 2.21  99 2.36 103 2.39 102 2.46
  40  0.749  0.241  0.505- 100 2.26 103 2.40 104 2.45  88 2.47
  41  0.987  0.515  0.501- 108 2.20 105 2.32  89 2.37 101 2.80
  42  0.248  0.508  0.499- 105 2.34 102 2.41  90 2.41 106 2.50
  43  0.507  0.502  0.496- 106 2.34 107 2.44 103 2.46  91 2.54
  44  0.743  0.504  0.510- 108 2.23 107 2.31 104 2.42  92 2.65
  45  0.991  0.756  0.501- 112 2.28  93 2.36 109 2.40 105 2.47
  46  0.241  0.743  0.501- 109 2.20 106 2.28  94 2.47 110 2.63
  47  0.507  0.746  0.507- 111 2.15 107 2.20 110 2.33  95 2.49
  48  0.765  0.739  0.497- 108 2.29  96 2.30 112 2.40 111 2.46
  49  0.006  0.996  0.741-  97 2.21 116 2.36 113 2.36 125 2.42
  50  0.244  0.996  0.758- 126 2.18 113 2.24 114 2.39  98 2.67
  51  0.507  0.009  0.741-  99 2.24 115 2.32 114 2.54 127 2.62
  52  0.759  0.993  0.749- 128 2.28 100 2.30 116 2.36 115 2.46
  53  0.008  0.238  0.751- 113 2.22 101 2.23 120 2.42 117 2.56
  54  0.244  0.247  0.766- 118 2.15 117 2.34 114 2.35 102 2.56
  55  0.488  0.255  0.757- 118 2.24 103 2.37 119 2.46 115 2.49
  56  0.742  0.258  0.752- 119 2.24 104 2.34 120 2.36 116 2.55
  57  0.002  0.499  0.738- 105 2.22 117 2.24 124 2.47 121 2.51
  58  0.257  0.497  0.744- 106 2.26 118 2.32 122 2.44 121 2.54
  59  0.494  0.501  0.742- 107 2.25 119 2.30 122 2.35 123 2.50
  60  0.750  0.506  0.753- 124 2.31 120 2.37 108 2.42 123 2.45
  61  0.008  0.754  0.745- 128 2.23 121 2.24 109 2.28 125 2.29
  62  0.253  0.755  0.742- 110 2.27 122 2.33 125 2.34 126 2.45
  63  0.488  0.764  0.750- 126 2.27 127 2.38 111 2.42 123 2.46
  64  0.740  0.747  0.752- 127 2.24 112 2.28 124 2.36 128 2.64
  65  0.069  0.068  0.056-  17 2.26   5 2.26   2 2.27   1 2.38
  66  0.326  0.058  0.066-   3 2.19  18 2.36   6 2.45   2 2.58
  67  0.559  0.067  0.059-   7 2.31  19 2.34   3 2.36   4 2.47
  68  0.807  0.066  0.060-   4 2.19   8 2.48   1 2.49  20 2.60
  69  0.059  0.316  0.059-   6 2.28  21 2.29   5 2.29   9 2.41
  70  0.313  0.302  0.077-   7 2.32  22 2.41  10 2.57   6 2.58
  71  0.567  0.319  0.055-   8 2.32  23 2.35  11 2.40   7 2.41
  72  0.820  0.309  0.056-   5 2.38   8 2.41  12 2.44  24 2.45
  73  0.063  0.563  0.060-  13 2.26  10 2.31   9 2.37  25 2.38
  74  0.314  0.564  0.070-  26 2.24  11 2.28  14 2.42  10 2.48
  75  0.558  0.563  0.057-  12 2.31  11 2.33  15 2.33  27 2.36
  76  0.805  0.566  0.062-  12 2.30   9 2.35  16 2.42  28 2.46
  77  0.055  0.822  0.056-   1 2.33  14 2.39  13 2.48  29 2.59
  78  0.321  0.801  0.074-  30 2.30  15 2.37   2 2.38  14 2.47
  79  0.568  0.808  0.065-  16 2.22  31 2.24   3 2.33  15 2.46
  80  0.814  0.810  0.066-  32 2.33  13 2.36  16 2.38   4 2.48
  81  0.066  0.068  0.306-  17 2.38  33 2.43  21 2.44  18 2.45
  82  0.312  0.062  0.318-  22 2.17  18 2.34  19 2.35  34 2.42
  83  0.564  0.066  0.307-  23 2.26  20 2.27  19 2.37  35 2.54
  84  0.811  0.063  0.310-  24 2.30  20 2.31  36 2.37  17 2.56
  85  0.051  0.315  0.317-  37 2.33  25 2.34  21 2.37  22 2.51
  86  0.304  0.323  0.308-  26 2.18  22 2.36  38 2.39  23 2.52
  87  0.556  0.320  0.321-  39 2.21  27 2.22  24 2.51  23 2.65
  88  0.814  0.315  0.310-  28 2.19  21 2.29  24 2.40  40 2.47
  89  0.066  0.555  0.315-  26 2.34  25 2.36  41 2.37  29 2.41
  90  0.310  0.559  0.309-  26 2.31  42 2.41  30 2.41  27 2.53
  91  0.579  0.567  0.296-  28 2.23  31 2.35  27 2.44  43 2.54
  92  0.816  0.565  0.300-  32 2.31  28 2.33  25 2.35  44 2.65
  93  0.056  0.817  0.314-  45 2.36  17 2.38  30 2.40  29 2.41
  94  0.312  0.811  0.306-  30 2.25  18 2.33  31 2.40  46 2.47
  95  0.570  0.812  0.309-  32 2.29  31 2.47  19 2.47  47 2.49
  96  0.810  0.803  0.315-  32 2.24  29 2.28  48 2.30  20 2.41
  97  0.048  0.067  0.567-  49 2.21  33 2.28  37 2.36  34 2.54
  98  0.322  0.065  0.546-  34 2.27  35 2.29  38 2.46  50 2.67
  99  0.553  0.062  0.565-  35 2.23  51 2.24  39 2.36  36 2.54
 100  0.810  0.062  0.568-  40 2.26  52 2.30  33 2.31  36 2.47
 101  0.060  0.293  0.575-  37 2.20  53 2.23  38 2.38  41 2.80
 102  0.309  0.317  0.563-  38 2.37  42 2.41  39 2.46  54 2.56
 103  0.559  0.307  0.570-  55 2.37  39 2.39  40 2.40  43 2.46
 104  0.810  0.313  0.567-  56 2.34  37 2.40  44 2.42  40 2.45
 105  0.063  0.561  0.562-  57 2.22  41 2.32  42 2.34  45 2.47
 106  0.322  0.565  0.565-  58 2.26  46 2.28  43 2.34  42 2.50
 107  0.561  0.572  0.565-  47 2.20  59 2.25  44 2.31  43 2.44
 108  0.814  0.558  0.563-  41 2.20  44 2.23  48 2.29  60 2.42
 109  0.068  0.804  0.565-  46 2.20  61 2.28  45 2.40  33 2.62
 110  0.322  0.810  0.563-  62 2.27  47 2.33  34 2.36  46 2.63
 111  0.570  0.799  0.561-  47 2.15  63 2.42  35 2.45  48 2.46
 112  0.811  0.807  0.571-  45 2.28  64 2.28  36 2.36  48 2.40
 113  0.068  0.063  0.799-  53 2.22  50 2.24  49 2.36   1 2.48
 114  0.307  0.061  0.819-  54 2.35  50 2.39   2 2.41  51 2.54
 115  0.564  0.058  0.818-  51 2.32   3 2.38  52 2.46  55 2.49
 116  0.819  0.056  0.812-  49 2.36  52 2.36   4 2.37  56 2.55
 117  0.060  0.324  0.816-  57 2.24   5 2.31  54 2.34  53 2.56
 118  0.312  0.314  0.801-  54 2.15  55 2.24  58 2.32   6 2.53
 119  0.564  0.320  0.810-  56 2.24  59 2.30   7 2.46  55 2.46
 120  0.817  0.319  0.802-   8 2.30  56 2.36  60 2.37  53 2.42
 121  0.056  0.577  0.804-  61 2.24   9 2.50  57 2.51  58 2.54
 122  0.309  0.571  0.811-  62 2.33  59 2.35  10 2.40  58 2.44
 123  0.556  0.569  0.809-  11 2.31  60 2.45  63 2.46  59 2.50
 124  0.807  0.561  0.823-  60 2.31  12 2.35  64 2.36  57 2.47
 125  0.068  0.804  0.816-  13 2.27  61 2.29  62 2.34  49 2.42
 126  0.308  0.824  0.811-  50 2.18  63 2.27  14 2.42  62 2.45
 127  0.563  0.802  0.823-  15 2.13  64 2.24  63 2.38  51 2.62
 128  0.832  0.813  0.802-  61 2.23  52 2.28  16 2.54  64 2.64
 
  LATTYP: Found a face centered cubic cell.
 ALAT       =    21.8746673814
  
  Lattice vectors:
  
 A1 = (   0.0000000000,  10.9373336907,  10.9373336907)
 A2 = (  10.9373336907,   0.0000000000,  10.9373336907)
 A3 = (  10.9373336907,  10.9373336907,   0.0000000000)


Analysis of symmetry for initial positions (statically):
=====================================================================
 Subroutine PRICEL returns:
 Original cell was already a primitive cell.
 

 Routine SETGRP: Setting up the symmetry group for a 
 face centered cubic supercell.


 Subroutine GETGRP returns: Found  1 space group operations
 (whereof  1 operations were pure point group operations)
 out of a pool of 48 trial point group operations.


The static configuration has the point symmetry C_1 .


Analysis of symmetry for dynamics (positions and initial velocities):
=====================================================================
 Subroutine PRICEL returns:
 Original cell was already a primitive cell.
 

 Routine SETGRP: Setting up the symmetry group for a 
 face centered cubic supercell.


 Subroutine GETGRP returns: Found  1 space group operations
 (whereof  1 operations were pure point group operations)
 out of a pool of 48 trial point group operations.


The dynamic configuration has the point symmetry C_1 .


 Subroutine INISYM returns: Found  1 space group operations
 (whereof  1 operations are pure point group operations),
 and found     1 'primitive' translations

 
 
 KPOINTS: KPOINTS File, automatically generated by

Automatic generation of k-mesh.
Space group operators:
 irot       det(A)        alpha          n_x          n_y          n_z        tau_x        tau_y        tau_z
    1     1.000000     0.000001     1.000000     0.000000     0.000000     0.000000     0.000000     0.000000
 
 Subroutine IBZKPT returns following result:
 ===========================================
 
 Found      8 irreducible k-points:
 
 Following reciprocal coordinates:
            Coordinates               Weight
  0.000000  0.000000  0.000000      1.000000
  0.500000  0.000000  0.000000      1.000000
  0.000000  0.500000  0.000000      1.000000
  0.500000  0.500000  0.000000      1.000000
  0.000000  0.000000  0.500000      1.000000
  0.500000  0.000000  0.500000      1.000000
  0.000000  0.500000  0.500000      1.000000
  0.500000  0.500000  0.500000      1.000000
 
 Following cartesian coordinates:
            Coordinates               Weight
  0.000000  0.000000  0.000000      1.000000
 -0.022857  0.022857  0.022857      1.000000
  0.022857 -0.022857  0.022857      1.000000
  0.000000  0.000000  0.045715      1.000000
  0.022857  0.022857 -0.022857      1.000000
  0.000000  0.045715  0.000000      1.000000
  0.045715  0.000000  0.000000      1.000000
  0.022857  0.022857  0.022857      1.000000
 


--------------------------------------------------------------------------------------------------------




 Dimension of arrays:
   k-points           NKPTS =      8   k-points in BZ     NKDIM =      8   number of bands    NBANDS=    322
   number of dos      NEDOS =    301   number of ions     NIONS =    128
   non local maximal  LDIM  =      4   non local SUM 2l+1 LMDIM =      8
   total plane-waves  NPLWV = ******
   max r-space proj   IRMAX =      1   max aug-charges    IRDMAX= 176811
   dimension x,y,z NGX =   120 NGY =  120 NGZ =  120
   dimension x,y,z NGXF=   240 NGYF=  240 NGZF=  240
   support grid    NGXF=   480 NGYF=  480 NGZF=  480
   ions per type =             128
   NGX,Y,Z   is equivalent  to a cutoff of  12.90, 12.90, 12.90 a.u.
   NGXF,Y,Z  is equivalent  to a cutoff of  25.80, 25.80, 25.80 a.u.

 SYSTEM =  potpaw_PBE@./ARUN.APL1ZEROSTATE         
 POSCAR =  kk                                      

 Startparameter for this run:
   NWRITE =      2    write-flag & timer
   PREC   = accura    normal or accurate (medium, high low for compatibility)
   ISTART =      0    job   : 0-new  1-cont  2-samecut
   ICHARG =      2    charge: 1-file 2-atom 10-const
   ISPIN  =      1    spin polarized calculation?
   LNONCOLLINEAR =      F non collinear calculations
   LSORBIT =      F    spin-orbit coupling
   INIWAV =      1    electr: 0-lowe 1-rand  2-diag
   LASPH  =      F    aspherical Exc in radial PAW
   METAGGA=      F    non-selfconsistent MetaGGA calc.

 Electronic Relaxation 1
   ENCUT  =  500.0 eV  36.75 Ry    6.06 a.u.  28.20 28.20 28.20*2*pi/ulx,y,z
   ENINI  =  500.0     initial cutoff
   ENAUG  =  322.1 eV  augmentation charge cutoff
   NELM   =    120;   NELMIN=  4; NELMDL= -5     # of ELM steps 
   EDIFF  = 0.1E-07   stopping-criterion for ELM
   LREAL  =      F    real-space projection
   NLSPLINE    = F    spline interpolate recip. space projectors
   LCOMPAT=      F    compatible to vasp.4.4
   GGA_COMPAT  = T    GGA compatible to vasp.4.4-vasp.4.6
   LMAXPAW     = -100 max onsite density
   LMAXMIX     =    2 max onsite mixed and CHGCAR
   VOSKOWN=      0    Vosko Wilk Nusair interpolation
   ROPT   =    0.00000
 Ionic relaxation
   EDIFFG = 0.1E-06   stopping-criterion for IOM
   NSW    =      0    number of steps for IOM
   NBLOCK =      1;   KBLOCK =      1    inner block; outer block 
   IBRION =     -1    ionic relax: 0-MD 1-quasi-New 2-CG
   NFREE  =      0    steps in history (QN), initial steepest desc. (CG)
   ISIF   =      2    stress and relaxation
   IWAVPR =     10    prediction:  0-non 1-charg 2-wave 3-comb
   ISYM   =      2    0-nonsym 1-usesym 2-fastsym
   LCORR  =      T    Harris-Foulkes like correction to forces

   POTIM  = 0.5000    time-step for ionic-motion
   TEIN   =    0.0    initial temperature
   TEBEG  =    0.0;   TEEND  =   0.0 temperature during run
   SMASS  =  -3.00    Nose mass-parameter (am)
   estimated Nose-frequenzy (Omega)   =  0.10E-29 period in steps =****** mass=  -0.547E-26a.u.
   SCALEE = 1.0000    scale energy and forces
   NPACO  =    256;   APACO  = 16.0  distance and # of slots for P.C.
   PSTRESS=    0.0 pullay stress

  Mass of Ions in am
   POMASS =  28.09
  Ionic Valenz
   ZVAL   =   4.00
  Atomic Wigner-Seitz radii
   RWIGS  =  -1.00
  virtual crystal weights 
   VCA    =   1.00
   NELECT =     512.0000    total number of electrons
   NUPDOWN=      -1.0000    fix difference up-down

 DOS related values:
   EMIN   =  10.00;   EMAX   =-10.00  energy-range for DOS
   EFERMI =   0.00
   ISMEAR =     0;   SIGMA  =   0.01  broadening in eV -4-tet -1-fermi 0-gaus

 Electronic relaxation 2 (details)
   IALGO  =     38    algorithm
   LDIAG  =      T    sub-space diagonalisation (order eigenvalues)
   LSUBROT=      F    optimize rotation matrix (better conditioning)
   TURBO    =      0    0=normal 1=particle mesh
   IRESTART =      0    0=no restart 2=restart with 2 vectors
   NREBOOT  =      0    no. of reboots
   NMIN     =      0    reboot dimension
   EREF     =   0.00    reference energy to select bands
   IMIX   =      4    mixing-type and parameters
     AMIX     =   0.40;   BMIX     =  1.00
     AMIX_MAG =   1.60;   BMIX_MAG =  1.00
     AMIN     =   0.10
     WC   =   100.;   INIMIX=   1;  MIXPRE=   1;  MAXMIX= -45

 Intra band minimization:
   WEIMIN = 0.0000     energy-eigenvalue tresh-hold
   EBREAK =  0.78E-11  absolut break condition
   DEPER  =   0.30     relativ break condition  

   TIME   =   0.40     timestep for ELM

  volume/ion in A,a.u.               =      20.44       137.96
  Fermi-wavevector in a.u.,A,eV,Ry     =   0.950408  1.796010 12.289804  0.903275
  Thomas-Fermi vector in A             =   2.078782
 
 Write flags
   LWAVE        =      F    write WAVECAR
   LDOWNSAMPLE  =      F    k-point downsampling of WAVECAR
   LCHARG       =      F    write CHGCAR
   LVTOT        =      F    write LOCPOT, total local potential
   LVHAR        =      F    write LOCPOT, Hartree potential only
   LELF         =      F    write electronic localiz. function (ELF)
   LORBIT       =      0    0 simple, 1 ext, 2 COOP (PROOUT), +10 PAW based schemes


 Dipole corrections
   LMONO  =      F    monopole corrections only (constant potential shift)
   LDIPOL =      F    correct potential (dipole corrections)
   IDIPOL =      0    1-x, 2-y, 3-z, 4-all directions 
   EPSILON=  1.0000000 bulk dielectric constant

 Exchange correlation treatment:
   GGA     =    --    GGA type
   LEXCH   =     8    internal setting for exchange type
   VOSKOWN=      0    Vosko Wilk Nusair interpolation
   LHFCALC =     F    Hartree Fock is set to
   LHFONE  =     F    Hartree Fock one center treatment
   AEXX    =    0.0000 exact exchange contribution

 Linear response parameters
   LEPSILON=     F    determine dielectric tensor
   LRPA    =     F    only Hartree local field effects (RPA)
   LNABLA  =     F    use nabla operator in PAW spheres
   LVEL    =     F    velocity operator in full k-point grid
   LINTERFAST=   F  fast interpolation
   KINTER  =     0    interpolate to denser k-point grid
   CSHIFT  =0.1000    complex shift for real part using Kramers Kronig
   OMEGAMAX=  -1.0    maximum frequency
   DEG_THRESHOLD= 0.2000000E-02 threshold for treating states as degnerate
   RTIME   =   -0.100 relaxation time in fs
  (WPLASMAI=    0.000 imaginary part of plasma frequency in eV, 0.658/RTIME)
   DFIELD  = 0.0000000 0.0000000 0.0000000 field for delta impulse in time
 
 Orbital magnetization related:
   ORBITALMAG=     F  switch on orbital magnetization
   LCHIMAG   =     F  perturbation theory with respect to B field
   DQ        =  0.001000  dq finite difference perturbation B field
   LLRAUG    =     F  two centre corrections for induced B field



--------------------------------------------------------------------------------------------------------


 Static calculation
 charge density and potential will be updated during run
 non-spin polarized calculation
 Variant of blocked Davidson
 Davidson routine will perform the subspace rotation
 perform sub-space diagonalisation
    after iterative eigenvector-optimisation
 modified Broyden-mixing scheme, WC =      100.0
 initial mixing is a Kerker type mixing with AMIX =  0.4000 and BMIX =      1.0000
 Hartree-type preconditioning will be used
 using additional bands           66
 reciprocal scheme for non local part
 use partial core corrections
 calculate Harris-corrections to forces 
   (improved forces if not selfconsistent)
 use gradient corrections 
 use of overlap-Matrix (Vanderbilt PP)
 Gauss-broadening in eV      SIGMA  =   0.01


--------------------------------------------------------------------------------------------------------


  energy-cutoff  :      500.00
  volume of cell :     2616.76
      direct lattice vectors                 reciprocal lattice vectors
     0.000000000 10.937333691 10.937333691    -0.045714981  0.045714981  0.045714981
    10.937333691  0.000000000 10.937333691     0.045714981 -0.045714981  0.045714981
    10.937333691 10.937333691  0.000000000     0.045714981  0.045714981 -0.045714981

  length of vectors
    15.467725642 15.467725642 15.467725642     0.079180669  0.079180669  0.079180669


 
 k-points in units of 2pi/SCALE and weight: KPOINTS File, automatically generated by
   0.00000000  0.00000000  0.00000000       0.125
  -0.02285749  0.02285749  0.02285749       0.125
   0.02285749 -0.02285749  0.02285749       0.125
   0.00000000  0.00000000  0.04571498       0.125
   0.02285749  0.02285749 -0.02285749       0.125
   0.00000000  0.04571498  0.00000000       0.125
   0.04571498  0.00000000  0.00000000       0.125
   0.02285749  0.02285749  0.02285749       0.125
 
 k-points in reciprocal lattice and weights: KPOINTS File, automatically generated by
   0.00000000  0.00000000  0.00000000       0.125
   0.50000000  0.00000000  0.00000000       0.125
   0.00000000  0.50000000  0.00000000       0.125
   0.50000000  0.50000000  0.00000000       0.125
   0.00000000  0.00000000  0.50000000       0.125
   0.50000000  0.00000000  0.50000000       0.125
   0.00000000  0.50000000  0.50000000       0.125
   0.50000000  0.50000000  0.50000000       0.125
 
 position of ions in fractional coordinates (direct lattice) 
   0.00355387  0.00603443  0.99470931
   0.24698414  0.98903564  0.01005360
   0.49919904  0.99235756  0.00717030
   0.75357548  0.00623395  0.99957648
   0.00784625  0.24721205  0.99751172
   0.23864803  0.24937627  0.00065199
   0.49583590  0.25019191  0.00484532
   0.75003300  0.26172555  0.98352245
   0.99060621  0.50650753  0.00182603
   0.24585454  0.50576272  0.00089960
   0.49324086  0.50835150  0.99254865
   0.74057134  0.50112296  0.00869273
   0.00057725  0.74228724  0.99524769
   0.24425076  0.75514147  0.00267590
   0.50693036  0.74759614  0.99168042
   0.74319519  0.75739273  0.00173602
   0.01302321  0.00379308  0.23420582
   0.25937060  0.99484590  0.25310127
   0.49767360  0.00779963  0.24447146
   0.74304819  0.99282263  0.26537608
   0.99509231  0.26071808  0.24052029
   0.24921776  0.23425410  0.26775614
   0.50342202  0.24431687  0.24076740
   0.75399801  0.24486036  0.25027308
   0.00178324  0.49937884  0.24852927
   0.25135519  0.49592055  0.24729775
   0.51074819  0.49406641  0.24353474
   0.75402484  0.48820329  0.25565923
   0.98998228  0.74536385  0.26160101
   0.24610553  0.74939460  0.25556977
   0.50159986  0.75195828  0.24233522
   0.75163449  0.74778197  0.25102265
   0.99298115  0.01125008  0.49837317
   0.24937140  0.99591334  0.50935152
   0.50211972  0.99279018  0.50860357
   0.75470542  0.99343309  0.49667600
   0.99964400  0.25332452  0.50109545
   0.24572844  0.25891707  0.49709166
   0.50330239  0.24850163  0.49568861
   0.74937241  0.24104524  0.50496842
   0.98705451  0.51480245  0.50148318
   0.24804790  0.50769403  0.49875876
   0.50663785  0.50183156  0.49640211
   0.74349528  0.50434851  0.50998953
   0.99115926  0.75565755  0.50085757
   0.24137113  0.74330307  0.50121674
   0.50651897  0.74571704  0.50683470
   0.76451219  0.73866647  0.49678679
   0.00584044  0.99551726  0.74102303
   0.24431424  0.99628577  0.75751823
   0.50718574  0.00868663  0.74109956
   0.75896383  0.99289679  0.74940504
   0.00813165  0.23814242  0.75116826
   0.24405682  0.24698933  0.76590895
   0.48766936  0.25506944  0.75731932
   0.74164463  0.25761228  0.75228712
   0.00171861  0.49944772  0.73810242
   0.25677038  0.49712920  0.74407567
   0.49412240  0.50132796  0.74172602
   0.74987559  0.50556426  0.75337153
   0.00818921  0.75410351  0.74545469
   0.25273483  0.75527604  0.74188658
   0.48789929  0.76408676  0.74987110
   0.74049164  0.74733720  0.75170600
   0.06866893  0.06823122  0.05552217
   0.32572348  0.05783619  0.06621282
   0.55858217  0.06742127  0.05895278
   0.80689262  0.06583984  0.05961766
   0.05862307  0.31601647  0.05922157
   0.31286800  0.30218516  0.07705430
   0.56689539  0.31869546  0.05522318
   0.81982794  0.30913108  0.05641312
   0.06297446  0.56345382  0.06025235
   0.31418358  0.56403703  0.07022119
   0.55827472  0.56310402  0.05704222
   0.80485756  0.56584334  0.06166344
   0.05547381  0.82177402  0.05640594
   0.32088278  0.80116003  0.07443653
   0.56783497  0.80822643  0.06505904
   0.81418415  0.80984537  0.06641767
   0.06554374  0.06765367  0.30609726
   0.31205260  0.06237645  0.31805848
   0.56422100  0.06579486  0.30738962
   0.81058116  0.06284933  0.30955780
   0.05114540  0.31475377  0.31716213
   0.30438916  0.32306829  0.30825398
   0.55611444  0.31978189  0.32132394
   0.81393934  0.31473480  0.31006386
   0.06646632  0.55511304  0.31504188
   0.31013160  0.55879024  0.30892512
   0.57909697  0.56669957  0.29565943
   0.81598185  0.56508569  0.30004666
   0.05629915  0.81674450  0.31436300
   0.31179301  0.81101987  0.30603110
   0.57014204  0.81208422  0.30934127
   0.80959464  0.80272250  0.31537340
   0.04844362  0.06725057  0.56696280
   0.32199929  0.06461708  0.54645547
   0.55329684  0.06184612  0.56454267
   0.81005542  0.06204752  0.56801699
   0.05956201  0.29293506  0.57486857
   0.30860689  0.31728304  0.56338498
   0.55913560  0.30723249  0.57018068
   0.80975449  0.31276275  0.56703991
   0.06305656  0.56053525  0.56237037
   0.32159626  0.56515166  0.56545690
   0.56103868  0.57179848  0.56473247
   0.81371518  0.55750233  0.56264031
   0.06766368  0.80397319  0.56532345
   0.32173367  0.80959649  0.56281000
   0.57000464  0.79896236  0.56055478
   0.81110231  0.80713191  0.57123467
   0.06774763  0.06305239  0.79860300
   0.30697858  0.06105548  0.81941959
   0.56388232  0.05782913  0.81846761
   0.81930311  0.05634959  0.81246287
   0.05984044  0.32353024  0.81565779
   0.31160761  0.31359948  0.80061493
   0.56404978  0.31983568  0.81040615
   0.81723941  0.31885791  0.80188415
   0.05616070  0.57724167  0.80396634
   0.30909167  0.57069867  0.81106261
   0.55647065  0.56945858  0.80941374
   0.80730627  0.56100436  0.82295488
   0.06833175  0.80448711  0.81597565
   0.30820239  0.82403776  0.81129794
   0.56328023  0.80191560  0.82314644
   0.83202622  0.81295920  0.80205526
 
 position of ions in cartesian coordinates  (Angst):
  10.94546824 10.91833749  0.10487037
  10.92737237  2.81130759 13.51876080
  10.93216979  5.53833048 16.31365232
  11.00088425 19.17480792  8.31028920
  13.61395921 10.99593561  2.78965776
   2.73464252  2.61730416  5.33768464
   2.78942730  5.47611762  8.15955515
  13.61969292 18.96047448 11.06594094
   5.55981374 10.85456258 16.37443262
   5.54153482  2.69883232  8.22068879
  16.41584575 16.25057564 10.95474983
   5.57602440  8.19495124 13.58082496
  19.00399925 10.89166969  8.12495682
   8.28850143  2.70071925 10.93068623
  19.02304812 16.39080625 13.72117496
   8.30284452  8.14756121 16.41243080
   2.60307342  2.70402643  0.18392543
  13.64921467  5.60507587 13.71778437
   2.75917303  8.11708818  5.52852937
  13.76133919 11.02947274 18.98579845
   5.48221139 13.51430736 13.73521732
   5.49065344  5.65431598  5.28789300
   5.30552861  8.13944800  8.17826976
   5.41543966 10.98404810 10.92484729
   8.18012058  2.73775143  5.48137696
   8.12882655  5.45393361  8.17320421
   8.06738985  8.24984410 10.98999252
   8.13587266 11.04325166 13.58666365
  11.01351069 13.68898407 18.98005967
  10.99163065  5.48699021 10.88811715
  10.87491986  8.13666620 13.71058366
  10.92425939 10.96639565 16.39961813
   5.57391956 16.31143991 10.98361205
  16.46358410  8.29840573 13.62009469
  16.42124441 11.05461788 16.35032846
  16.29782037 13.68677615 19.11997419
   8.25134303 16.41408813 13.70413482
   8.26871974  8.12447125  5.51947635
   8.13945696 10.92629786  8.22273144
   8.15940037 13.71914424 10.83252830
  11.11545511 16.28063346 16.42631074
  11.00790998  8.16807369  8.26580166
  10.91801470 10.97058274 11.02996642
  11.09415361 13.70978162 13.64808390
  13.74292514 16.31868601 19.10551835
  13.61172848  8.12193132 10.76971027
  13.69957629 11.08338716 13.69612304
  13.51256457 13.79524785 16.44076653
  18.99312053  8.16869489 10.95218322
  19.18193960 10.95737605 13.56885629
   8.20066172 13.65291278  5.64226822
  19.05613646 16.49753364 19.16068413
  10.82042105  8.30471645  2.69358168
  11.07840656 11.04633269  5.37073564
  11.07283370 13.61685663  8.12358206
  11.04560672 16.33963002 10.92920630
  13.53549883  8.09166945  5.48142338
  13.57547180 10.94658718  8.24565125
  13.59569621 13.51688653 10.88757276
  13.76940074 16.44151538 13.73116457
  16.40116840  8.24285487  8.33744988
  16.37496719 10.87850621 11.02495125
  16.55866230 13.53790778 13.69338929
  16.39553575 16.32066351 16.27288050
   1.35353216  1.35831949  1.49732261
   1.35676542  4.28673810  4.19512004
   1.38219513  6.75418579  6.84680844
   1.37217049  9.47731206  9.54536609
   4.10410363  1.28890616  4.09755772
   4.14786851  4.26471039  6.72704164
   4.08967288  6.80431834  9.68600262
   3.99807889  9.58374082 12.34780153
   6.82168250  1.34777275  6.85145519
   6.93709378  4.20436318  9.60539185
   6.78274639  6.72992664 12.26489349
   6.86325100  9.47742930 14.99181304
   9.60494724  1.22366617  9.59475224
   9.57669175  4.32373920 12.27215665
   9.55141465  6.92217305 15.05044280
   9.58398128  9.63143599 17.76255278
   4.08783864  4.06476166  1.45682450
   4.16094375  6.89173512  4.09525547
   4.08164313  9.53309613  6.89069362
   4.07314109 12.25133365  9.55300075
   6.91147510  4.02830237  4.00196126
   6.90498237  6.70068244  6.86271157
   7.01198829  9.59683631  9.57997040
   6.83363138 12.29359806 12.34468575
   9.51717480  4.17268257  6.79842093
   9.49049246  6.77082998  9.50368814
   9.43190820  9.56750272 12.53195919
   9.46224116 12.20637625 15.10519651
  12.37130011  4.05405555  9.54876966
  12.21755924  6.75734843 12.28057916
  12.26540476  9.61920245 15.11786984
  12.22898786 12.30415085 17.63445058
   6.93660333  6.73090537  1.26538594
   6.68350437  9.49857946  4.22855226
   6.85102327 12.22618371  6.72802382
   6.89122583 15.07243780  9.53848085
   9.49145792  6.93897889  3.85537807
   9.63215998  9.53726600  6.84556700
   9.59656057 12.35170897  9.47575691
   9.62269524 15.05845977 12.27734559
  12.28159351  6.84050307  6.82043170
  12.36584312  9.70199645  9.69865799
  12.43061827 12.31293478 12.39021803
  12.25137382 15.05365934 14.99746348
  14.97645434  6.92319148  9.53338336
  15.01046764  9.67454921 12.37373541
  14.86949263 12.36530563 14.97284881
  15.07565517 15.11908082 17.69916768
   9.42421251  9.47556591  1.43060337
   9.63004966 12.31979262  4.02531134
   9.58434985 15.11922247  6.79986561
   9.50249174 17.84716905  9.57730577
  12.45967953  9.57561625  4.19305303
  12.18653485 12.16474909  6.83809865
  12.36183204 15.03288317  9.66735023
  12.25792990 17.70889473 12.42587554
  15.10673298  9.40749652  6.92773314
  15.11278422 12.25150111  9.62256048
  15.08118672 14.93913332 12.31466373
  15.13682395 17.83071019 14.96566993
  17.72354191  9.67196509  9.54631112
  17.88621221 12.24434869 12.38368834
  17.77384574 15.16381107 14.93160225
  17.66395206 17.87249435 17.99175445
 


--------------------------------------------------------------------------------------------------------


 k-point  1 :   0.0000 0.0000 0.0000  plane waves:   66299
 k-point  2 :   0.5000 0.0000 0.0000  plane waves:   66394
 k-point  3 :   0.0000 0.5000 0.0000  plane waves:   66394
 k-point  4 :   0.5000 0.5000 0.0000  plane waves:   66552
 k-point  5 :   0.0000 0.0000 0.5000  plane waves:   66394
 k-point  6 :   0.5000 0.0000 0.5000  plane waves:   66552
 k-point  7 :   0.0000 0.5000 0.5000  plane waves:   66552
 k-point  8 :   0.5000 0.5000 0.5000  plane waves:   66394

 maximum and minimum number of plane-waves per node :      4207     4110

 maximum number of plane-waves:     66552
 maximum index in each direction: 
   IXMAX=   28   IYMAX=   28   IZMAX=   28
   IXMIN=  -28   IYMIN=  -28   IZMIN=  -28


 parallel 3D FFT for wavefunctions:
    minimum data exchange during FFTs selected (reduces bandwidth)
 parallel 3D FFT for charge:
    minimum data exchange during FFTs selected (reduces bandwidth)


 total amount of memory used by VASP MPI-rank0   221701. kBytes
=======================================================================

   base      :      30000. kBytes
   nonl-proj :      10690. kBytes
   fftplans  :      66746. kBytes
   grid      :      26864. kBytes
   one-center:         24. kBytes
   wavefun   :      87377. kBytes
 
     INWAV:  cpu time    0.0000: real time    0.0002
 Broyden mixing: mesh for mixing (old mesh)
   NGX = 57   NGY = 57   NGZ = 57
  (NGX  =240   NGY  =240   NGZ  =240)
  gives a total of 185193 points

 initial charge density was supplied:
 charge density of overlapping atoms calculated
 number of electron     512.0000000 magnetization 
 keeping initial charge density in first step


--------------------------------------------------------------------------------------------------------


 Maximum index for augmentation-charges         5607 (set IRDMAX)


--------------------------------------------------------------------------------------------------------


 First call to EWALD:  gamma=   0.129
 Maximum number of real-space cells 3x 3x 3
 Maximum number of reciprocal cells 3x 3x 3

    FEWALD:  cpu time    0.0059: real time    0.0059


--------------------------------------- Iteration      1(   1)  ---------------------------------------


    POTLOK:  cpu time    0.4899: real time    0.4986
    SETDIJ:  cpu time    0.5026: real time    0.5026
     EDDAV:  cpu time   69.5480: real time   69.5716
       DOS:  cpu time    0.0028: real time    0.0028
    --------------------------------------------
      LOOP:  cpu time   70.5433: real time   70.5756

 eigenvalue-minimisations  :  5152
 total energy-change (2. order) : 0.1384296E+04  (-0.1908287E+05)
 number of electron     512.0000000 magnetization 
 augmentation part      512.0000000 magnetization 

 Free energy of the ion-electron system (eV)
  ---------------------------------------------------
  alpha Z        PSCENC =       210.77028614
  Ewald energy   TEWEN  =    -14469.72931188
  -Hartree energ DENC   =      -756.63828737
  -exchange      EXHF   =         0.00000000
  -V(xc)+E(xc)   XCENC  =     -1195.25544460
  PAW double counting   =      4221.13331941    -1969.18571412
  entropy T*S    EENTRO =        -0.00037258
  eigenvalues    EBANDS =      2150.72103689
  atomic energy  EATOM  =     13192.48085998
  Solvation  Ediel_sol  =         0.00000000
  ---------------------------------------------------
  free energy    TOTEN  =      1384.29637189 eV

  energy without entropy =     1384.29674447  energy(sigma->0) =     1384.29655818


--------------------------------------------------------------------------------------------------------




--------------------------------------- Iteration      1(   2)  ---------------------------------------


     EDDAV:  cpu time   78.8901: real time   78.9086
       DOS:  cpu time    0.0020: real time    0.0020
    --------------------------------------------
      LOOP:  cpu time   78.8922: real time   78.9107

 eigenvalue-minimisations  :  6104
 total energy-change (2. order) :-0.1920927E+04  (-0.1826737E+04)
 number of electron     512.0000000 magnetization 
 augmentation part      512.0000000 magnetization 

 Free energy of the ion-electron system (eV)
  ---------------------------------------------------
  alpha Z        PSCENC =       210.77028614
  Ewald energy   TEWEN  =    -14469.72931188
  -Hartree energ DENC   =      -756.63828737
  -exchange      EXHF   =         0.00000000
  -V(xc)+E(xc)   XCENC  =     -1195.25544460
  PAW double counting   =      4221.13331941    -1969.18571412
  entropy T*S    EENTRO =        -0.00000001
  eigenvalues    EBANDS =       229.79397839
  atomic energy  EATOM  =     13192.48085998
  Solvation  Ediel_sol  =         0.00000000
  ---------------------------------------------------
  free energy    TOTEN  =      -536.63031404 eV

  energy without entropy =     -536.63031404  energy(sigma->0) =     -536.63031404


--------------------------------------------------------------------------------------------------------




--------------------------------------- Iteration      1(   3)  ---------------------------------------


     EDDAV:  cpu time   80.6928: real time   80.9694
       DOS:  cpu time    0.0011: real time    0.0011
    --------------------------------------------
      LOOP:  cpu time   80.6939: real time   80.9706

 eigenvalue-minimisations  :  6280
 total energy-change (2. order) :-0.1500927E+03  (-0.1470352E+03)
 number of electron     512.0000000 magnetization 
 augmentation part      512.0000000 magnetization 

 Free energy of the ion-electron system (eV)
  ---------------------------------------------------
  alpha Z        PSCENC =       210.77028614
  Ewald energy   TEWEN  =    -14469.72931188
  -Hartree energ DENC   =      -756.63828737
  -exchange      EXHF   =         0.00000000
  -V(xc)+E(xc)   XCENC  =     -1195.25544460
  PAW double counting   =      4221.13331941    -1969.18571412
  entropy T*S    EENTRO =        -0.00000000
  eigenvalues    EBANDS =        79.70123969
  atomic energy  EATOM  =     13192.48085998
  Solvation  Ediel_sol  =         0.00000000
  ---------------------------------------------------
  free energy    TOTEN  =      -686.72305273 eV

  energy without entropy =     -686.72305273  energy(sigma->0) =     -686.72305273


--------------------------------------------------------------------------------------------------------




--------------------------------------- Iteration      1(   4)  ---------------------------------------


     EDDAV:  cpu time   79.8257: real time   79.8483
       DOS:  cpu time    0.0012: real time    0.0012
    --------------------------------------------
      LOOP:  cpu time   79.8269: real time   79.8494

 eigenvalue-minimisations  :  6192
 total energy-change (2. order) :-0.4309093E+01  (-0.4273156E+01)
 number of electron     512.0000000 magnetization 
 augmentation part      512.0000000 magnetization 

 Free energy of the ion-electron system (eV)
  ---------------------------------------------------
  alpha Z        PSCENC =       210.77028614
  Ewald energy   TEWEN  =    -14469.72931188
  -Hartree energ DENC   =      -756.63828737
  -exchange      EXHF   =         0.00000000
  -V(xc)+E(xc)   XCENC  =     -1195.25544460
  PAW double counting   =      4221.13331941    -1969.18571412
  entropy T*S    EENTRO =        -0.00000000
  eigenvalues    EBANDS =        75.39214633
  atomic energy  EATOM  =     13192.48085998
  Solvation  Ediel_sol  =         0.00000000
  ---------------------------------------------------
  free energy    TOTEN  =      -691.03214609 eV

  energy without entropy =     -691.03214609  energy(sigma->0) =     -691.03214609


--------------------------------------------------------------------------------------------------------




--------------------------------------- Iteration      1(   5)  ---------------------------------------


     EDDAV:  cpu time   80.7151: real time   80.7490
       DOS:  cpu time    0.0014: real time    0.0014
    CHARGE:  cpu time    3.2458: real time    3.2463
    MIXING:  cpu time    0.0374: real time    0.0375
    --------------------------------------------
      LOOP:  cpu time   83.9997: real time   84.0342

 eigenvalue-minimisations  :  6288
 total energy-change (2. order) :-0.1525935E+00  (-0.1521445E+00)
 number of electron     511.9999998 magnetization 
 augmentation part      -30.1780795 magnetization 

 Broyden mixing:
  rms(total) = 0.23995E+01    rms(broyden)= 0.23995E+01
  rms(prec ) = 0.29074E+01
  weight for this iteration     100.00

 Free energy of the ion-electron system (eV)
  ---------------------------------------------------
  alpha Z        PSCENC =       210.77028614
  Ewald energy   TEWEN  =    -14469.72931188
  -Hartree energ DENC   =      -756.63828737
  -exchange      EXHF   =         0.00000000
  -V(xc)+E(xc)   XCENC  =     -1195.25544460
  PAW double counting   =      4221.13331941    -1969.18571412
  entropy T*S    EENTRO =        -0.00000000
  eigenvalues    EBANDS =        75.23955287
  atomic energy  EATOM  =     13192.48085998
  Solvation  Ediel_sol  =         0.00000000
  ---------------------------------------------------
  free energy    TOTEN  =      -691.18473955 eV

  energy without entropy =     -691.18473955  energy(sigma->0) =     -691.18473955


--------------------------------------------------------------------------------------------------------




--------------------------------------- Iteration      1(   6)  ---------------------------------------


    POTLOK:  cpu time    0.4883: real time    0.4913
    SETDIJ:  cpu time    0.5134: real time    0.5136
     EDDAV:  cpu time   76.9325: real time   76.9499
       DOS:  cpu time    0.0019: real time    0.0019
    CHARGE:  cpu time    3.2432: real time    3.2437
    MIXING:  cpu time    0.0321: real time    0.0321
    --------------------------------------------
      LOOP:  cpu time   81.2114: real time   81.2326

 eigenvalue-minimisations  :  5912
 total energy-change (2. order) : 0.8461292E+01  (-0.5903427E+00)
 number of electron     511.9999998 magnetization 
 augmentation part      -29.8360419 magnetization 

 Broyden mixing:
  rms(total) = 0.14256E+01    rms(broyden)= 0.14256E+01
  rms(prec ) = 0.17176E+01
  weight for this iteration     100.00

 eigenvalues of (default mixing * dielectric matrix)
  average eigenvalue GAMMA=   2.4299
  2.4299

 Free energy of the ion-electron system (eV)
  ---------------------------------------------------
  alpha Z        PSCENC =       210.77028614
  Ewald energy   TEWEN  =    -14469.72931188
  -Hartree energ DENC   =      -852.08594231
  -exchange      EXHF   =         0.00000000
  -V(xc)+E(xc)   XCENC  =     -1180.57829509
  PAW double counting   =      4466.61921774    -2221.46800180
  entropy T*S    EENTRO =        -0.00000000
  eigenvalues    EBANDS =       171.26773928
  atomic energy  EATOM  =     13192.48085998
  Solvation  Ediel_sol  =         0.00000000
  ---------------------------------------------------
  free energy    TOTEN  =      -682.72344793 eV

  energy without entropy =     -682.72344793  energy(sigma->0) =     -682.72344793


--------------------------------------------------------------------------------------------------------




--------------------------------------- Iteration      1(   7)  ---------------------------------------


    POTLOK:  cpu time    0.4904: real time    0.4936
    SETDIJ:  cpu time    0.5071: real time    0.5071
     EDDAV:  cpu time   76.5316: real time   76.5488
       DOS:  cpu time    0.0013: real time    0.0013
    CHARGE:  cpu time    3.2321: real time    3.2326
    MIXING:  cpu time    0.0401: real time    0.0401
    --------------------------------------------
      LOOP:  cpu time   80.8026: real time   80.8234

 eigenvalue-minimisations  :  5864
 total energy-change (2. order) : 0.3530450E+01  (-0.1121142E+01)
 number of electron     511.9999998 magnetization 
 augmentation part      -29.3842007 magnetization 

 Broyden mixing:
  rms(total) = 0.15594E+00    rms(broyden)= 0.15594E+00
  rms(prec ) = 0.20243E+00
  weight for this iteration     100.00

 eigenvalues of (default mixing * dielectric matrix)
  average eigenvalue GAMMA=   2.1044
  2.1044  2.1044

 Free energy of the ion-electron system (eV)
  ---------------------------------------------------
  alpha Z        PSCENC =       210.77028614
  Ewald energy   TEWEN  =    -14469.72931188
  -Hartree energ DENC   =     -1002.79126422
  -exchange      EXHF   =         0.00000000
  -V(xc)+E(xc)   XCENC  =     -1156.62549296
  PAW double counting   =      4787.37102197    -2550.77693829
  entropy T*S    EENTRO =        -0.00000000
  eigenvalues    EBANDS =       310.10784123
  atomic energy  EATOM  =     13192.48085998
  Solvation  Ediel_sol  =         0.00000000
  ---------------------------------------------------
  free energy    TOTEN  =      -679.19299802 eV

  energy without entropy =     -679.19299802  energy(sigma->0) =     -679.19299802


--------------------------------------------------------------------------------------------------------




--------------------------------------- Iteration      1(   8)  ---------------------------------------


    POTLOK:  cpu time    0.4900: real time    0.4935
    SETDIJ:  cpu time    0.5064: real time    0.5066
     EDDAV:  cpu time   76.0672: real time   76.0849
       DOS:  cpu time    0.0018: real time    0.0018
    CHARGE:  cpu time    3.2036: real time    3.2039
    MIXING:  cpu time    0.0443: real time    0.0443
    --------------------------------------------
      LOOP:  cpu time   80.3132: real time   80.3349

 eigenvalue-minimisations  :  5824
 total energy-change (2. order) :-0.5448283E-01  (-0.1070174E+00)
 number of electron     511.9999998 magnetization 
 augmentation part      -29.4529975 magnetization 

 Broyden mixing:
  rms(total) = 0.61673E-01    rms(broyden)= 0.61673E-01
  rms(prec ) = 0.76350E-01
  weight for this iteration     100.00

 eigenvalues of (default mixing * dielectric matrix)
  average eigenvalue GAMMA=   2.0123
  2.6797  1.6787  1.6787

 Free energy of the ion-electron system (eV)
  ---------------------------------------------------
  alpha Z        PSCENC =       210.77028614
  Ewald energy   TEWEN  =    -14469.72931188
  -Hartree energ DENC   =      -996.49344065
  -exchange      EXHF   =         0.00000000
  -V(xc)+E(xc)   XCENC  =     -1156.70691662
  PAW double counting   =      4740.20607138    -2502.14257235
  entropy T*S    EENTRO =        -0.00000000
  eigenvalues    EBANDS =       302.36754315
  atomic energy  EATOM  =     13192.48085998
  Solvation  Ediel_sol  =         0.00000000
  ---------------------------------------------------
  free energy    TOTEN  =      -679.24748084 eV

  energy without entropy =     -679.24748084  energy(sigma->0) =     -679.24748084


--------------------------------------------------------------------------------------------------------




--------------------------------------- Iteration      1(   9)  ---------------------------------------


    POTLOK:  cpu time    0.4892: real time    0.4931
    SETDIJ:  cpu time    0.5084: real time    0.5084
     EDDAV:  cpu time   78.6830: real time   78.7082
       DOS:  cpu time    0.0015: real time    0.0015
    CHARGE:  cpu time    3.1964: real time    3.1969
    MIXING:  cpu time    0.0418: real time    0.0417
    --------------------------------------------
      LOOP:  cpu time   82.9201: real time   82.9498

 eigenvalue-minimisations  :  6072
 total energy-change (2. order) :-0.2236074E-01  (-0.1030681E-01)
 number of electron     511.9999998 magnetization 
 augmentation part      -29.4579427 magnetization 

 Broyden mixing:
  rms(total) = 0.28189E-01    rms(broyden)= 0.28189E-01
  rms(prec ) = 0.32752E-01
  weight for this iteration     100.00

 eigenvalues of (default mixing * dielectric matrix)
  average eigenvalue GAMMA=   1.7922
  2.5928  1.8408  1.8408  0.8945

 Free energy of the ion-electron system (eV)
  ---------------------------------------------------
  alpha Z        PSCENC =       210.77028614
  Ewald energy   TEWEN  =    -14469.72931188
  -Hartree energ DENC   =     -1003.04395633
  -exchange      EXHF   =         0.00000000
  -V(xc)+E(xc)   XCENC  =     -1155.55854812
  PAW double counting   =      4742.94157083    -2504.95238501
  entropy T*S    EENTRO =        -0.00000000
  eigenvalues    EBANDS =       307.82164281
  atomic energy  EATOM  =     13192.48085998
  Solvation  Ediel_sol  =         0.00000000
  ---------------------------------------------------
  free energy    TOTEN  =      -679.26984158 eV

  energy without entropy =     -679.26984158  energy(sigma->0) =     -679.26984158


--------------------------------------------------------------------------------------------------------




--------------------------------------- Iteration      1(  10)  ---------------------------------------


    POTLOK:  cpu time    0.4912: real time    0.4943
    SETDIJ:  cpu time    0.5077: real time    0.5077
     EDDAV:  cpu time   77.7476: real time   77.7608
       DOS:  cpu time    0.0013: real time    0.0013
    CHARGE:  cpu time    3.1592: real time    3.1597
    MIXING:  cpu time    0.0467: real time    0.0467
    --------------------------------------------
      LOOP:  cpu time   81.9535: real time   81.9704

 eigenvalue-minimisations  :  6000
 total energy-change (2. order) :-0.2531646E-02  (-0.8585135E-03)
 number of electron     511.9999998 magnetization 
 augmentation part      -29.4674361 magnetization 

 Broyden mixing:
  rms(total) = 0.10994E-01    rms(broyden)= 0.10994E-01
  rms(prec ) = 0.13219E-01
  weight for this iteration     100.00

 eigenvalues of (default mixing * dielectric matrix)
  average eigenvalue GAMMA=   1.8596
  2.6913  2.6913  1.5053  1.5053  0.9046

 Free energy of the ion-electron system (eV)
  ---------------------------------------------------
  alpha Z        PSCENC =       210.77028614
  Ewald energy   TEWEN  =    -14469.72931188
  -Hartree energ DENC   =     -1001.92629545
  -exchange      EXHF   =         0.00000000
  -V(xc)+E(xc)   XCENC  =     -1155.72614616
  PAW double counting   =      4735.84128647    -2497.67545982
  entropy T*S    EENTRO =        -0.00000000
  eigenvalues    EBANDS =       306.69240748
  atomic energy  EATOM  =     13192.48085998
  Solvation  Ediel_sol  =         0.00000000
  ---------------------------------------------------
  free energy    TOTEN  =      -679.27237323 eV

  energy without entropy =     -679.27237323  energy(sigma->0) =     -679.27237323


--------------------------------------------------------------------------------------------------------




--------------------------------------- Iteration      1(  11)  ---------------------------------------


    POTLOK:  cpu time    0.4892: real time    0.4924
    SETDIJ:  cpu time    0.5058: real time    0.5058
     EDDAV:  cpu time   75.8031: real time   75.8248
       DOS:  cpu time    0.0016: real time    0.0015
    CHARGE:  cpu time    3.1499: real time    3.1504
    MIXING:  cpu time    0.0466: real time    0.0466
    --------------------------------------------
      LOOP:  cpu time   79.9962: real time   80.0216

 eigenvalue-minimisations  :  5800
 total energy-change (2. order) :-0.1469236E-02  (-0.2284463E-03)
 number of electron     511.9999998 magnetization 
 augmentation part      -29.4699422 magnetization 

 Broyden mixing:
  rms(total) = 0.37326E-02    rms(broyden)= 0.37326E-02
  rms(prec ) = 0.52573E-02
  weight for this iteration     100.00

 eigenvalues of (default mixing * dielectric matrix)
  average eigenvalue GAMMA=   1.7810
  2.8453  2.0650  2.0650  1.5813  1.2572  0.8720

 Free energy of the ion-electron system (eV)
  ---------------------------------------------------
  alpha Z        PSCENC =       210.77028614
  Ewald energy   TEWEN  =    -14469.72931188
  -Hartree energ DENC   =     -1001.87734972
  -exchange      EXHF   =         0.00000000
  -V(xc)+E(xc)   XCENC  =     -1155.73115255
  PAW double counting   =      4731.69999389    -2493.43906550
  entropy T*S    EENTRO =        -0.00000000
  eigenvalues    EBANDS =       306.55189718
  atomic energy  EATOM  =     13192.48085998
  Solvation  Ediel_sol  =         0.00000000
  ---------------------------------------------------
  free energy    TOTEN  =      -679.27384246 eV

  energy without entropy =     -679.27384246  energy(sigma->0) =     -679.27384246


--------------------------------------------------------------------------------------------------------




--------------------------------------- Iteration      1(  12)  ---------------------------------------


    POTLOK:  cpu time    0.4921: real time    0.4931
    SETDIJ:  cpu time    0.5092: real time    0.5092
     EDDAV:  cpu time   79.4013: real time   79.4248
       DOS:  cpu time    0.0010: real time    0.0010
    CHARGE:  cpu time    3.1475: real time    3.1492
    MIXING:  cpu time    0.0426: real time    0.0426
    --------------------------------------------
      LOOP:  cpu time   83.5937: real time   83.6200

 eigenvalue-minimisations  :  6168
 total energy-change (2. order) :-0.6406550E-04  (-0.4203122E-04)
 number of electron     511.9999998 magnetization 
 augmentation part      -29.4680413 magnetization 

 Broyden mixing:
  rms(total) = 0.18053E-02    rms(broyden)= 0.18053E-02
  rms(prec ) = 0.21379E-02
  weight for this iteration     100.00

 eigenvalues of (default mixing * dielectric matrix)
  average eigenvalue GAMMA=   1.8329
  3.1703  2.6868  1.7729  1.7729  0.8966  1.2655  1.2655

 Free energy of the ion-electron system (eV)
  ---------------------------------------------------
  alpha Z        PSCENC =       210.77028614
  Ewald energy   TEWEN  =    -14469.72931188
  -Hartree energ DENC   =     -1002.48294169
  -exchange      EXHF   =         0.00000000
  -V(xc)+E(xc)   XCENC  =     -1155.66403004
  PAW double counting   =      4732.96928154    -2494.75179454
  entropy T*S    EENTRO =        -0.00000000
  eigenvalues    EBANDS =       307.13374395
  atomic energy  EATOM  =     13192.48085998
  Solvation  Ediel_sol  =         0.00000000
  ---------------------------------------------------
  free energy    TOTEN  =      -679.27390653 eV

  energy without entropy =     -679.27390653  energy(sigma->0) =     -679.27390653


--------------------------------------------------------------------------------------------------------




--------------------------------------- Iteration      1(  13)  ---------------------------------------


    POTLOK:  cpu time    0.4889: real time    0.4923
    SETDIJ:  cpu time    0.5121: real time    0.5121
     EDDAV:  cpu time   74.7879: real time   74.8036
       DOS:  cpu time    0.0010: real time    0.0010
    CHARGE:  cpu time    3.1638: real time    3.1643
    MIXING:  cpu time    0.0393: real time    0.0393
    --------------------------------------------
      LOOP:  cpu time   78.9929: real time   79.0125

 eigenvalue-minimisations  :  5704
 total energy-change (2. order) :-0.2767831E-04  (-0.1102619E-04)
 number of electron     511.9999998 magnetization 
 augmentation part      -29.4680041 magnetization 

 Broyden mixing:
  rms(total) = 0.56063E-03    rms(broyden)= 0.56061E-03
  rms(prec ) = 0.72769E-03
  weight for this iteration     100.00

 eigenvalues of (default mixing * dielectric matrix)
  average eigenvalue GAMMA=   1.7847
  3.1483  2.5479  1.9505  1.9505  1.3907  1.3907  0.9495  0.9495

 Free energy of the ion-electron system (eV)
  ---------------------------------------------------
  alpha Z        PSCENC =       210.77028614
  Ewald energy   TEWEN  =    -14469.72931188
  -Hartree energ DENC   =     -1002.47249185
  -exchange      EXHF   =         0.00000000
  -V(xc)+E(xc)   XCENC  =     -1155.67556402
  PAW double counting   =      4732.39538374    -2494.16652885
  entropy T*S    EENTRO =        -0.00000000
  eigenvalues    EBANDS =       307.12343254
  atomic energy  EATOM  =     13192.48085998
  Solvation  Ediel_sol  =         0.00000000
  ---------------------------------------------------
  free energy    TOTEN  =      -679.27393421 eV

  energy without entropy =     -679.27393421  energy(sigma->0) =     -679.27393421


--------------------------------------------------------------------------------------------------------




--------------------------------------- Iteration      1(  14)  ---------------------------------------


    POTLOK:  cpu time    0.4920: real time    0.4930
    SETDIJ:  cpu time    0.5055: real time    0.5057
     EDDAV:  cpu time   79.3186: real time   79.3384
       DOS:  cpu time    0.0010: real time    0.0010
    CHARGE:  cpu time    3.1495: real time    3.1500
    MIXING:  cpu time    0.0514: real time    0.0514
    --------------------------------------------
      LOOP:  cpu time   83.5180: real time   83.5395

 eigenvalue-minimisations  :  6168
 total energy-change (2. order) :-0.3549056E-05  (-0.7979297E-06)
 number of electron     511.9999998 magnetization 
 augmentation part      -29.4678996 magnetization 

 Broyden mixing:
  rms(total) = 0.18392E-03    rms(broyden)= 0.18386E-03
  rms(prec ) = 0.25100E-03
  weight for this iteration     100.00

 eigenvalues of (default mixing * dielectric matrix)
  average eigenvalue GAMMA=   1.7710
  3.2148  2.6039  2.2132  1.6755  1.6755  1.3090  1.3090  1.0090  0.9290

 Free energy of the ion-electron system (eV)
  ---------------------------------------------------
  alpha Z        PSCENC =       210.77028614
  Ewald energy   TEWEN  =    -14469.72931188
  -Hartree energ DENC   =     -1002.51482752
  -exchange      EXHF   =         0.00000000
  -V(xc)+E(xc)   XCENC  =     -1155.66927769
  PAW double counting   =      4732.53230931    -2494.30613977
  entropy T*S    EENTRO =        -0.00000000
  eigenvalues    EBANDS =       307.16216366
  atomic energy  EATOM  =     13192.48085998
  Solvation  Ediel_sol  =         0.00000000
  ---------------------------------------------------
  free energy    TOTEN  =      -679.27393775 eV

  energy without entropy =     -679.27393775  energy(sigma->0) =     -679.27393775


--------------------------------------------------------------------------------------------------------




--------------------------------------- Iteration      1(  15)  ---------------------------------------


    POTLOK:  cpu time    0.4888: real time    0.4916
    SETDIJ:  cpu time    0.5076: real time    0.5076
     EDDAV:  cpu time   78.0069: real time   78.0269
       DOS:  cpu time    0.0011: real time    0.0011
    CHARGE:  cpu time    3.1695: real time    3.1700
    MIXING:  cpu time    0.0386: real time    0.0386
    --------------------------------------------
      LOOP:  cpu time   82.2125: real time   82.2357

 eigenvalue-minimisations  :  6032
 total energy-change (2. order) :-0.3684199E-05  (-0.1736432E-06)
 number of electron     511.9999998 magnetization 
 augmentation part      -29.4677730 magnetization 

 Broyden mixing:
  rms(total) = 0.63960E-04    rms(broyden)= 0.63766E-04
  rms(prec ) = 0.83857E-04
  weight for this iteration     100.00

 eigenvalues of (default mixing * dielectric matrix)
  average eigenvalue GAMMA=   1.7217
  3.2482  2.5885  2.1774  1.7273  1.7273  1.4163  1.4163  0.9413  0.9413  1.0332

 Free energy of the ion-electron system (eV)
  ---------------------------------------------------
  alpha Z        PSCENC =       210.77028614
  Ewald energy   TEWEN  =    -14469.72931188
  -Hartree energ DENC   =     -1002.53909830
  -exchange      EXHF   =         0.00000000
  -V(xc)+E(xc)   XCENC  =     -1155.66788277
  PAW double counting   =      4732.60536026    -2494.38145629
  entropy T*S    EENTRO =        -0.00000000
  eigenvalues    EBANDS =       307.18730142
  atomic energy  EATOM  =     13192.48085998
  Solvation  Ediel_sol  =         0.00000000
  ---------------------------------------------------
  free energy    TOTEN  =      -679.27394144 eV

  energy without entropy =     -679.27394144  energy(sigma->0) =     -679.27394144


--------------------------------------------------------------------------------------------------------




--------------------------------------- Iteration      1(  16)  ---------------------------------------


    POTLOK:  cpu time    0.4887: real time    0.4915
    SETDIJ:  cpu time    0.5055: real time    0.5055
     EDDAV:  cpu time   78.5048: real time   78.5312
       DOS:  cpu time    0.0015: real time    0.0015
    CHARGE:  cpu time    3.1022: real time    3.1027
    MIXING:  cpu time    0.0447: real time    0.0447
    --------------------------------------------
      LOOP:  cpu time   82.6474: real time   82.6771

 eigenvalue-minimisations  :  6072
 total energy-change (2. order) : 0.4235699E-06  (-0.1871346E-07)
 number of electron     511.9999998 magnetization 
 augmentation part      -29.4677712 magnetization 

 Broyden mixing:
  rms(total) = 0.29945E-04    rms(broyden)= 0.29531E-04
  rms(prec ) = 0.39495E-04
  weight for this iteration     100.00

 eigenvalues of (default mixing * dielectric matrix)
  average eigenvalue GAMMA=   1.7022
  3.2867  2.6289  2.0724  2.0724  1.4353  1.4353  1.4228  1.4228  0.9100  1.0190
  1.0190

 Free energy of the ion-electron system (eV)
  ---------------------------------------------------
  alpha Z        PSCENC =       210.77028614
  Ewald energy   TEWEN  =    -14469.72931188
  -Hartree energ DENC   =     -1002.53834451
  -exchange      EXHF   =         0.00000000
  -V(xc)+E(xc)   XCENC  =     -1155.66787374
  PAW double counting   =      4732.59998279    -2494.37572644
  entropy T*S    EENTRO =        -0.00000000
  eigenvalues    EBANDS =       307.18618664
  atomic energy  EATOM  =     13192.48085998
  Solvation  Ediel_sol  =         0.00000000
  ---------------------------------------------------
  free energy    TOTEN  =      -679.27394101 eV

  energy without entropy =     -679.27394101  energy(sigma->0) =     -679.27394101


--------------------------------------------------------------------------------------------------------




--------------------------------------- Iteration      1(  17)  ---------------------------------------


    POTLOK:  cpu time    0.4904: real time    0.4941
    SETDIJ:  cpu time    0.5060: real time    0.5060
     EDDAV:  cpu time   55.7527: real time   55.7707
       DOS:  cpu time    0.0010: real time    0.0010
    CHARGE:  cpu time    3.1015: real time    3.1019
    MIXING:  cpu time    0.0429: real time    0.0429
    --------------------------------------------
      LOOP:  cpu time   59.8946: real time   59.9166

 eigenvalue-minimisations  :  3760
 total energy-change (2. order) : 0.1597527E-06  (-0.2695326E-08)
 number of electron     511.9999998 magnetization 
 augmentation part      -29.4677750 magnetization 

 Broyden mixing:
  rms(total) = 0.14104E-04    rms(broyden)= 0.13200E-04
  rms(prec ) = 0.16271E-04
  weight for this iteration     100.00

 eigenvalues of (default mixing * dielectric matrix)
  average eigenvalue GAMMA=   1.7111
  3.3010  2.6131  2.3833  1.9097  1.7320  1.7320  1.3795  1.3795  0.9261  0.9896
  1.0938  1.0938

 Free energy of the ion-electron system (eV)
  ---------------------------------------------------
  alpha Z        PSCENC =       210.77028614
  Ewald energy   TEWEN  =    -14469.72931188
  -Hartree energ DENC   =     -1002.53736826
  -exchange      EXHF   =         0.00000000
  -V(xc)+E(xc)   XCENC  =     -1155.66794979
  PAW double counting   =      4732.59924048    -2494.37482379
  entropy T*S    EENTRO =        -0.00000000
  eigenvalues    EBANDS =       307.18512625
  atomic energy  EATOM  =     13192.48085998
  Solvation  Ediel_sol  =         0.00000000
  ---------------------------------------------------
  free energy    TOTEN  =      -679.27394085 eV

  energy without entropy =     -679.27394085  energy(sigma->0) =     -679.27394085


--------------------------------------------------------------------------------------------------------




--------------------------------------- Iteration      1(  18)  ---------------------------------------


    POTLOK:  cpu time    0.4891: real time    0.4928
    SETDIJ:  cpu time    0.5132: real time    0.5132
     EDDAV:  cpu time   51.5857: real time   51.5997
       DOS:  cpu time    0.0014: real time    0.0014
    CHARGE:  cpu time    3.1003: real time    3.1006
    MIXING:  cpu time    0.0539: real time    0.0539
    --------------------------------------------
      LOOP:  cpu time   55.7434: real time   55.7615

 eigenvalue-minimisations  :  3336
 total energy-change (2. order) :-0.1086482E-06  (-0.1070270E-08)
 number of electron     511.9999998 magnetization 
 augmentation part      -29.4677706 magnetization 

 Broyden mixing:
  rms(total) = 0.80076E-05    rms(broyden)= 0.62809E-05
  rms(prec ) = 0.91006E-05
  weight for this iteration     100.00
  WARNING: grid for Broyden might be to small

 eigenvalues of (default mixing * dielectric matrix)
  average eigenvalue GAMMA=   1.7233
  3.2491  2.6809  2.3718  2.3718  1.7759  1.7759  1.3616  1.3616  1.2708  1.2708
  0.9241  0.9942  0.9942

 Free energy of the ion-electron system (eV)
  ---------------------------------------------------
  alpha Z        PSCENC =       210.77028614
  Ewald energy   TEWEN  =    -14469.72931188
  -Hartree energ DENC   =     -1002.53818424
  -exchange      EXHF   =         0.00000000
  -V(xc)+E(xc)   XCENC  =     -1155.66783733
  PAW double counting   =      4732.60362558    -2494.37926657
  entropy T*S    EENTRO =        -0.00000000
  eigenvalues    EBANDS =       307.18588734
  atomic energy  EATOM  =     13192.48085998
  Solvation  Ediel_sol  =         0.00000000
  ---------------------------------------------------
  free energy    TOTEN  =      -679.27394096 eV

  energy without entropy =     -679.27394096  energy(sigma->0) =     -679.27394096


--------------------------------------------------------------------------------------------------------




--------------------------------------- Iteration      1(  19)  ---------------------------------------


    POTLOK:  cpu time    0.4973: real time    0.4982
    SETDIJ:  cpu time    0.5018: real time    0.5020
     EDDAV:  cpu time   50.7307: real time   50.7494
       DOS:  cpu time    0.0009: real time    0.0009
    CHARGE:  cpu time    3.1063: real time    3.1070
    MIXING:  cpu time    0.0491: real time    0.0491
    --------------------------------------------
      LOOP:  cpu time   54.8860: real time   54.9067

 eigenvalue-minimisations  :  3248
 total energy-change (2. order) : 0.3445348E-07  (-0.1909366E-09)
 number of electron     511.9999998 magnetization 
 augmentation part      -29.4677726 magnetization 

 Broyden mixing:
  rms(total) = 0.57314E-05    rms(broyden)= 0.28596E-05
  rms(prec ) = 0.38021E-05
  weight for this iteration     100.00
  WARNING: grid for Broyden might be to small

 eigenvalues of (default mixing * dielectric matrix)
  average eigenvalue GAMMA=   1.6871
  3.3208  2.6814  2.2865  2.2865  1.8091  1.8091  1.4539  1.4539  1.3109  1.3109
  0.9260  0.9260  1.0219  1.0219

 Free energy of the ion-electron system (eV)
  ---------------------------------------------------
  alpha Z        PSCENC =       210.77028614
  Ewald energy   TEWEN  =    -14469.72931188
  -Hartree energ DENC   =     -1002.53775674
  -exchange      EXHF   =         0.00000000
  -V(xc)+E(xc)   XCENC  =     -1155.66788943
  PAW double counting   =      4732.60299772    -2494.37861250
  entropy T*S    EENTRO =        -0.00000000
  eigenvalues    EBANDS =       307.18548577
  atomic energy  EATOM  =     13192.48085998
  Solvation  Ediel_sol  =         0.00000000
  ---------------------------------------------------
  free energy    TOTEN  =      -679.27394093 eV

  energy without entropy =     -679.27394093  energy(sigma->0) =     -679.27394093


--------------------------------------------------------------------------------------------------------




--------------------------------------- Iteration      1(  20)  ---------------------------------------


    POTLOK:  cpu time    0.4893: real time    0.4932
    SETDIJ:  cpu time    0.5044: real time    0.5045
     EDDAV:  cpu time   50.1251: real time   50.1381
       DOS:  cpu time    0.0012: real time    0.0012
    CHARGE:  cpu time    3.1065: real time    3.1070
    MIXING:  cpu time    0.0418: real time    0.0418
    --------------------------------------------
      LOOP:  cpu time   54.2684: real time   54.2858

 eigenvalue-minimisations  :  3184
 total energy-change (2. order) :-0.1872104E-07  (-0.8411703E-10)
 number of electron     511.9999998 magnetization 
 augmentation part      -29.4677718 magnetization 

 Broyden mixing:
  rms(total) = 0.52523E-05    rms(broyden)= 0.17073E-05
  rms(prec ) = 0.25105E-05
  weight for this iteration     100.00
  WARNING: grid for Broyden might be to small

 eigenvalues of (default mixing * dielectric matrix)
  average eigenvalue GAMMA=   1.6981
  3.2803  2.7628  2.2758  2.1917  2.1917  1.7656  1.7656  1.2946  1.2946  1.3434
  1.3434  0.9144  0.9649  0.9649  1.1175

 Free energy of the ion-electron system (eV)
  ---------------------------------------------------
  alpha Z        PSCENC =       210.77028614
  Ewald energy   TEWEN  =    -14469.72931188
  -Hartree energ DENC   =     -1002.53810228
  -exchange      EXHF   =         0.00000000
  -V(xc)+E(xc)   XCENC  =     -1155.66784784
  PAW double counting   =      4732.60362327    -2494.37925243
  entropy T*S    EENTRO =        -0.00000000
  eigenvalues    EBANDS =       307.18580407
  atomic energy  EATOM  =     13192.48085998
  Solvation  Ediel_sol  =         0.00000000
  ---------------------------------------------------
  free energy    TOTEN  =      -679.27394095 eV

  energy without entropy =     -679.27394095  energy(sigma->0) =     -679.27394095


--------------------------------------------------------------------------------------------------------




--------------------------------------- Iteration      1(  21)  ---------------------------------------


    POTLOK:  cpu time    0.4916: real time    0.4950
    SETDIJ:  cpu time    0.5047: real time    0.5047
     EDDAV:  cpu time   49.9368: real time   49.9570
       DOS:  cpu time    0.0011: real time    0.0011
    --------------------------------------------
      LOOP:  cpu time   50.9341: real time   50.9577

 eigenvalue-minimisations  :  3152
 total energy-change (2. order) :-0.3055902E-08  (-0.1545135E-10)
 number of electron     511.9999998 magnetization 
 augmentation part      -29.4677718 magnetization 

 Free energy of the ion-electron system (eV)
  ---------------------------------------------------
  alpha Z        PSCENC =       210.77028614
  Ewald energy   TEWEN  =    -14469.72931188
  -Hartree energ DENC   =     -1002.53806031
  -exchange      EXHF   =         0.00000000
  -V(xc)+E(xc)   XCENC  =     -1155.66785241
  PAW double counting   =      4732.60367388    -2494.37930393
  entropy T*S    EENTRO =        -0.00000000
  eigenvalues    EBANDS =       307.18576757
  atomic energy  EATOM  =     13192.48085998
  Solvation  Ediel_sol  =         0.00000000
  ---------------------------------------------------
  free energy    TOTEN  =      -679.27394095 eV

  energy without entropy =     -679.27394095  energy(sigma->0) =     -679.27394095


--------------------------------------------------------------------------------------------------------




 average (electrostatic) potential at core
  the test charge radii are     0.9892
  (the norm of the test charge is              1.0000)
       1 -83.4921       2 -83.3745       3 -83.4855       4 -83.4155       5 -83.5786
       6 -83.5418       7 -83.4435       8 -83.4059       9 -83.6178      10 -83.4931
      11 -83.4547      12 -83.5188      13 -83.5944      14 -83.4362      15 -83.6660
      16 -83.5998      17 -83.5768      18 -83.5682      19 -83.5226      20 -83.5729
      21 -83.5236      22 -83.4828      23 -83.5333      24 -83.4839      25 -83.5571
      26 -83.5374      27 -83.5630      28 -83.5087      29 -83.5614      30 -83.5585
      31 -83.6706      32 -83.5320      33 -83.5388      34 -83.4393      35 -83.4523
      36 -83.5525      37 -83.5133      38 -83.4142      39 -83.4707      40 -83.5190
      41 -83.5108      42 -83.4655      43 -83.5656      44 -83.5098      45 -83.6035
      46 -83.5779      47 -83.5460      48 -83.4696      49 -83.5451      50 -83.3302
      51 -83.5607      52 -83.4753      53 -83.5540      54 -83.4159      55 -83.4992
      56 -83.4453      57 -83.5752      58 -83.5013      59 -83.4026      60 -83.5092
      61 -83.4537      62 -83.5424      63 -83.5455      64 -83.6361      65 -83.5535
      66 -83.4461      67 -83.4955      68 -83.4074      69 -83.5348      70 -83.4636
      71 -83.4506      72 -83.5400      73 -83.5300      74 -83.4370      75 -83.5433
      76 -83.5533      77 -83.5149      78 -83.4924      79 -83.5592      80 -83.5039
      81 -83.6277      82 -83.4144      83 -83.4069      84 -83.5216      85 -83.5978
      86 -83.5082      87 -83.4118      88 -83.5289      89 -83.5936      90 -83.5659
      91 -83.5486      92 -83.6183      93 -83.7063      94 -83.7022      95 -83.7149
      96 -83.5415      97 -83.5145      98 -83.3731      99 -83.5255     100 -83.4390
     101 -83.3882     102 -83.3808     103 -83.5142     104 -83.4310     105 -83.5297
     106 -83.4574     107 -83.4409     108 -83.3834     109 -83.5399     110 -83.5323
     111 -83.5267     112 -83.5814     113 -83.4117     114 -83.4887     115 -83.5616
     116 -83.4738     117 -83.6464     118 -83.4761     119 -83.5127     120 -83.4616
     121 -83.5437     122 -83.4963     123 -83.4678     124 -83.4624     125 -83.6373
     126 -83.4602     127 -83.5817     128 -83.6678
 
 
 
 E-fermi :   5.9022     XC(G=0):  -9.3313     alpha+bet :-11.7321


 k-point     1 :       0.0000    0.0000    0.0000
  band No.  band energies     occupation 
      1      -6.2977      2.00000
      2      -5.6652      2.00000
      3      -5.6568      2.00000
      4      -5.5803      2.00000
      5      -5.5545      2.00000
      6      -5.5270      2.00000
      7      -5.4710      2.00000
      8      -5.4430      2.00000
      9      -5.4296      2.00000
     10      -5.3740      2.00000
     11      -5.2796      2.00000
     12      -5.2366      2.00000
     13      -5.1369      2.00000
     14      -5.1243      2.00000
     15      -5.0872      2.00000
     16      -4.6026      2.00000
     17      -4.5424      2.00000
     18      -4.4546      2.00000
     19      -4.3926      2.00000
     20      -4.3311      2.00000
     21      -4.3195      2.00000
     22      -4.2859      2.00000
     23      -4.2624      2.00000
     24      -4.2160      2.00000
     25      -4.1722      2.00000
     26      -4.1563      2.00000
     27      -4.1286      2.00000
     28      -4.0546      2.00000
     29      -4.0330      2.00000
     30      -3.9510      2.00000
     31      -3.9398      2.00000
     32      -3.9127      2.00000
     33      -3.8337      2.00000
     34      -3.8227      2.00000
     35      -3.7865      2.00000
     36      -3.7592      2.00000
     37      -3.7254      2.00000
     38      -3.6962      2.00000
     39      -3.6450      2.00000
     40      -3.6278      2.00000
     41      -3.5916      2.00000
     42      -3.5640      2.00000
     43      -3.5521      2.00000
     44      -3.5273      2.00000
     45      -3.4920      2.00000
[...]
   -.110E+01 -.105E+00 -.343E+01   0.596E+00 0.159E+00 0.314E+01   0.134E+01 0.605E+00 0.445E+00   0.814E-06 0.119E-05 -.102E-05
   -.460E+01 -.282E+01 0.781E+01   0.479E+01 0.295E+01 -.669E+01   -.226E+00 0.916E+00 -.211E+01   -.775E-06 -.150E-05 0.102E-05
   0.246E+01 0.887E+00 -.148E-01   -.152E+01 -.177E+01 -.679E+00   -.137E+01 -.100E+01 0.675E+00   -.277E-06 0.369E-06 -.421E-06
   0.237E+01 0.814E+01 0.150E+01   -.176E+01 -.701E+01 -.859E+00   -.906E+00 -.302E+01 -.113E+01   -.541E-07 -.258E-06 0.397E-06
   -.377E+01 0.346E+01 -.653E+01   0.383E+01 -.357E+01 0.609E+01   0.143E+00 -.799E+00 0.983E+00   0.656E-06 0.283E-06 0.185E-06
   -.115E+01 -.343E+01 0.102E+01   0.985E+00 0.309E+01 -.112E+01   0.333E+00 0.479E+00 0.214E+00   0.678E-06 -.378E-06 0.944E-06
   0.353E+01 -.554E+01 0.873E+01   -.288E+01 0.516E+01 -.849E+01   -.164E+01 0.204E+01 -.179E+01   0.731E-06 0.997E-06 -.907E-06
   -.566E+01 -.354E+01 0.306E+01   0.507E+01 0.336E+01 -.232E+01   0.102E+01 0.888E+00 -.229E+01   0.359E-06 0.970E-06 -.256E-06
   0.383E+01 -.404E+01 -.499E+01   -.326E+01 0.353E+01 0.470E+01   -.112E+01 0.190E+01 0.848E+00   -.940E-07 -.114E-05 -.194E-06
   0.554E+01 -.184E+01 -.177E+01   -.551E+01 0.147E+01 0.194E+01   -.108E+01 0.977E+00 0.548E+00   0.548E-06 -.757E-06 -.111E-05
   0.580E+01 -.878E+01 -.996E+00   -.490E+01 0.831E+01 0.570E+00   -.273E+01 0.261E+01 -.731E+00   0.112E-05 -.117E-06 0.114E-05
   0.105E+02 0.166E+01 0.527E+01   -.957E+01 -.137E+01 -.502E+01   -.439E+01 -.605E+00 -.344E+00   -.611E-06 -.153E-06 0.779E-07
   0.176E+00 -.601E+01 0.143E+02   -.789E+00 0.553E+01 -.132E+02   -.246E+00 0.149E+01 -.320E+01   0.484E-06 -.817E-06 0.207E-05
   0.232E+01 -.212E+01 -.239E+01   -.203E+01 0.169E+01 0.208E+01   0.449E+00 -.229E+00 0.207E+00   -.650E-06 0.900E-06 -.409E-06
   -.273E+00 -.778E+01 -.327E+01   0.717E+00 0.770E+01 0.288E+01   0.155E+00 0.130E+01 0.132E+01   -.119E-05 -.166E-05 -.170E-06
   -.908E+01 0.264E+01 0.116E+02   0.844E+01 -.212E+01 -.110E+02   0.184E+01 -.101E+01 -.279E+01   -.150E-05 0.155E-05 0.116E-05
   -.245E+01 -.581E+01 0.644E+01   0.203E+01 0.547E+01 -.578E+01   0.143E+01 0.174E+01 -.157E+01   0.481E-06 -.523E-06 -.709E-06
   0.445E-01 0.382E+01 -.196E+01   -.359E-01 -.409E+01 0.201E+01   -.433E+00 0.178E-02 0.774E-01   -.305E-06 0.871E-06 0.419E-06
   -.509E+01 -.911E+01 -.259E+00   0.503E+01 0.800E+01 -.432E+00   0.954E+00 0.262E+01 0.732E+00   -.463E-06 -.112E-05 -.198E-06
   -.684E+01 0.709E+01 0.621E+01   0.637E+01 -.690E+01 -.531E+01   0.133E+01 -.115E+01 -.176E+01   -.328E-06 0.192E-05 0.596E-06
   -.435E+01 0.754E+01 -.996E+01   0.382E+01 -.633E+01 0.946E+01   0.174E+01 -.101E+01 0.137E+01   0.446E-07 -.855E-06 -.209E-05
   0.951E+01 0.239E+01 -.877E+01   -.901E+01 -.290E+01 0.750E+01   -.182E+01 0.672E+00 0.317E+01   0.111E-06 0.810E-06 0.108E-05
   -.990E+01 -.158E+01 -.653E+01   0.872E+01 0.150E+01 0.638E+01   0.327E+01 0.732E+00 -.366E+00   -.761E-07 0.831E-06 -.125E-05
   0.212E-01 -.337E+00 -.865E+01   -.672E-01 0.437E+00 0.771E+01   -.588E+00 0.680E+00 0.306E+01   -.365E-06 -.124E-05 -.145E-05
   0.490E+01 0.830E+01 0.703E+01   -.437E+01 -.792E+01 -.621E+01   -.177E+01 -.848E+00 -.147E+01   -.166E-06 0.447E-06 0.545E-06
   -.565E+01 0.287E+01 -.157E+02   0.524E+01 -.222E+01 0.146E+02   0.140E+01 -.120E+01 0.418E+01   0.253E-06 0.412E-06 -.839E-06
   -.359E-01 -.521E+01 0.120E+01   -.167E+00 0.447E+01 -.958E+00   0.407E+00 0.135E+01 -.476E+00   0.158E-06 0.594E-06 -.183E-05
   0.499E+00 0.164E+01 -.125E+01   -.768E+00 -.118E+01 0.677E+00   0.204E+00 -.759E+00 0.114E+01   0.147E-06 0.134E-06 0.259E-06
   0.487E+01 0.759E+01 0.144E+01   -.434E+01 -.682E+01 -.185E+01   -.686E+00 -.130E+01 0.381E+00   0.477E-06 0.958E-07 0.119E-05
   0.593E+01 -.130E+00 -.772E+01   -.572E+01 0.373E+00 0.711E+01   -.327E+00 -.157E+01 0.180E+01   0.824E-06 -.453E-06 -.162E-05
   0.113E+02 0.146E+01 -.216E+01   -.103E+02 -.125E+01 0.214E+01   -.237E+01 -.127E+01 -.526E+00   0.116E-06 -.170E-06 0.386E-06
   0.123E+02 0.473E+01 0.565E+01   -.114E+02 -.442E+01 -.549E+01   -.280E+01 -.303E+00 -.127E+01   0.657E-06 0.121E-05 0.134E-05
   -.405E+00 -.547E+01 0.795E+01   0.227E+00 0.478E+01 -.682E+01   0.194E+01 0.104E+01 -.151E+01   -.368E-06 -.734E-06 0.373E-06
   -.263E+01 0.141E+02 -.685E+01   0.196E+01 -.131E+02 0.654E+01   0.200E+01 -.347E+01 0.404E+00   0.176E-05 0.142E-05 -.149E-05
   0.120E+02 0.142E+02 -.428E+00   -.106E+02 -.136E+02 0.424E+00   -.203E+01 -.217E+01 -.491E+00   0.125E-05 0.413E-06 0.100E-05
   -.799E+01 -.613E+01 -.129E+02   0.725E+01 0.531E+01 0.121E+02   0.301E+01 0.242E+01 0.302E+01   -.108E-05 -.807E-06 -.293E-06
   -.620E+01 0.467E+01 -.112E+01   0.601E+01 -.451E+01 0.176E+01   -.188E+00 -.144E+01 -.674E+00   -.154E-05 0.420E-06 -.486E-06
   -.244E+01 -.113E+01 0.969E+01   0.268E+01 0.168E+01 -.830E+01   0.248E+00 0.354E+00 -.328E+01   -.699E-06 0.141E-05 0.141E-05
   0.564E+01 -.418E+01 -.638E+01   -.514E+01 0.430E+01 0.571E+01   -.943E+00 0.644E+00 0.875E+00   -.400E-06 -.202E-05 -.386E-06
   -.243E+01 -.795E+00 -.643E+01   0.221E+01 0.231E+00 0.562E+01   0.437E+00 0.405E+00 0.161E+01   0.802E-06 -.206E-07 -.926E-06
   -.882E+01 0.423E+01 -.337E+00   0.820E+01 -.370E+01 -.369E+00   0.150E+01 -.112E+01 0.110E+01   0.724E-06 0.104E-05 -.667E-07
   0.423E+01 0.595E+01 0.332E+01   -.383E+01 -.483E+01 -.230E+01   -.224E+01 -.958E+00 -.208E+01   -.585E-06 0.129E-05 0.187E-06
   -.926E+01 -.699E+01 -.254E+01   0.788E+01 0.651E+01 0.195E+01   0.395E+01 0.206E+01 0.672E+00   -.861E-06 -.197E-06 -.203E-05
   -.101E+01 -.526E+00 0.114E+02   0.101E+01 0.522E+00 -.108E+02   0.486E+00 -.693E+00 -.263E+01   0.742E-06 -.149E-06 0.477E-06
   0.542E+01 -.168E+01 -.391E+01   -.427E+01 0.170E+01 0.275E+01   -.143E+01 -.299E-02 0.113E+01   -.750E-06 -.206E-06 0.454E-06
   0.796E+01 -.848E+01 0.951E+01   -.713E+01 0.794E+01 -.856E+01   -.246E+01 0.210E+01 -.228E+01   0.122E-05 -.159E-05 0.102E-05
   -.233E+01 -.528E+01 0.102E+02   0.201E+01 0.527E+01 -.969E+01   -.290E+00 0.282E+00 -.133E+01   0.503E-06 0.723E-06 0.969E-06
   0.439E+01 0.315E+01 0.112E+01   -.382E+01 -.336E+01 -.163E+01   -.109E+01 -.525E+00 0.686E+00   -.596E-06 -.483E-06 -.621E-06
   0.259E+00 -.101E+02 -.606E+01   -.151E+00 0.893E+01 0.524E+01   -.719E+00 0.129E+01 0.166E+01   -.105E-05 -.227E-07 0.297E-06
   -.530E+01 -.357E+01 -.406E+01   0.451E+01 0.342E+01 0.355E+01   0.780E+00 -.697E+00 0.163E+01   -.587E-06 -.548E-06 -.880E-06
   0.135E+01 -.504E+01 0.977E+01   -.545E+00 0.456E+01 -.841E+01   -.171E+01 0.127E+01 -.354E+01   0.134E-05 -.192E-05 0.767E-06
   -.478E+01 0.144E+02 -.109E+02   0.454E+01 -.134E+02 0.103E+02   -.256E+00 -.447E+01 0.266E+01   0.959E-06 -.215E-06 -.965E-06
   0.603E+00 0.434E+01 0.155E+02   -.129E+00 -.465E+01 -.134E+02   0.341E+00 -.762E+00 -.498E+01   -.136E-05 0.189E-05 0.188E-05
 -----------------------------------------------------------------------------------------------
   0.409E+00 -.316E+00 0.583E-01   -.253E-12 -.240E-12 -.195E-13   -.409E+00 0.316E+00 -.583E-01   -.147E-07 0.518E-06 -.110E-05
 
 
 POSITION                                       TOTAL-FORCE (eV/Angst)
 -----------------------------------------------------------------------------------
     10.94547     10.91834      0.10487        -0.047505     -1.166614     -0.369637
     10.92737      2.81131     13.51876        -0.351396      1.199263      1.817165
     10.93217      5.53833     16.31365        -1.022366      0.398212      1.503320
     11.00088     19.17481      8.31029        -1.508948     -1.017960     -1.957308
     13.61396     10.99594      2.78966         0.923588     -1.067516     -0.092044
      2.73464      2.61730      5.33768        -0.584050      1.611107      1.791666
      2.78943      5.47612      8.15956        -0.169147     -0.376559      1.130412
     13.61969     18.96047     11.06594         0.017427      1.495704     -0.577831
      5.55981     10.85456     16.37443        -1.050408     -0.323150      0.580093
      5.54153      2.69883      8.22069        -0.671522      1.383890      0.068799
     16.41585     16.25058     10.95475        -0.583526      0.929339     -0.163803
      5.57602      8.19495     13.58082        -1.239648      0.362853      0.022832
     19.00400     10.89167      8.12496         1.862606      0.346377      0.613131
      8.28850      2.70072     10.93069        -0.031241      0.654259      0.181053
     19.02305     16.39081     13.72117         2.533433      2.099440     -1.412403
      8.30284      8.14756     16.41243        -1.603674      1.091383      1.363134
      2.60307      2.70403      0.18393         1.564117      0.134077     -1.651892
     13.64921      5.60508     13.71778         0.491064     -0.980072     -0.107372
      2.75917      8.11709      5.52853        -0.312946      0.975217     -0.331635
     13.76134     11.02947     18.98580        -1.664876     -0.799858      1.024649
      5.48221     13.51431     13.73522        -0.165907      1.418904     -0.451026
      5.49065      5.65432      5.28789         1.600980     -2.583826      1.365205
      5.30553      8.13945      8.17827         2.378946     -0.144262      1.043290
      5.41544     10.98405     10.92485         0.774096     -1.173626      0.214000
      8.18012      2.73775      5.48138         0.159016     -0.084867      0.191537
      8.12883      5.45393      8.17320         1.458005     -0.571109      0.467602
      8.06739      8.24984     10.98999         1.841391     -1.234026      0.503726
      8.13587     11.04325     13.58666         0.139779     -1.192187      2.156104
     11.01351     13.68898     18.98006        -1.333615     -0.105940      1.580734
     10.99163      5.48699     10.88812        -0.841441     -0.296849     -1.200777
     10.87492      8.13667     13.71058         0.957020      1.281645     -0.394413
     10.92426     10.96640     16.39962        -0.900713     -0.596798     -0.234005
      5.57392     16.31144     10.98361        -1.847527      0.402449     -0.555233
     16.46358      8.29841     13.62009        -0.408119     -1.205118     -0.352937
     16.42124     11.05462     16.35033        -2.018686     -1.208768     -0.253639
     16.29782     13.68678     19.11997         1.242625     -0.222118     -0.204085
      8.25134     16.41409     13.70413        -0.317035     -1.037081     -1.512556
      8.26872      8.12447      5.51948        -0.506456      0.414871     -0.325771
      8.13946     10.92630      8.22273         1.706712      0.454000     -1.232708
      8.15940     13.71914     10.83253         1.020788     -0.736783      1.240730
     11.11546     16.28063     16.42631        -2.623023      1.910708     -0.049421
     11.00791      8.16807      8.26580        -0.523851      0.763772      0.170160
     10.91801     10.97058     11.02997        -0.646560     -0.041306      0.499521
     11.09415     13.70978     13.64808        -2.336747     -0.929488     -0.076723
     13.74293     16.31869     19.10552        -0.448937      1.488937      0.229366
     13.61173      8.12193     10.76971        -0.382092      1.258351      2.885688
     13.69958     11.08339     13.69612        -0.834899     -2.929555      0.091960
     13.51256     13.79525     16.44077         1.333511     -0.537851     -0.577491
     18.99312      8.16869     10.95218         1.216695      1.109425     -1.120771
     19.18194     10.95738     13.56886         0.014986     -1.238803      2.973489
      8.20066     13.65291      5.64227         0.696560      0.807089     -2.443557
     19.05614     16.49753     19.16068         1.342828     -0.448363     -0.209926
     10.82042      8.30472      2.69358         2.329002     -0.252621      0.601943
     11.07841     11.04633      5.37074        -2.208771     -2.164554     -0.578680
     11.07283     13.61686      8.12358        -1.282690      1.806169      0.927687
     11.04561     16.33963     10.92921        -1.561560      1.318280      0.311551
     13.53550      8.09167      5.48142         2.934245      0.320129     -0.095175
     13.57547     10.94659      8.24565         1.923867     -0.276414     -0.544415
     13.59570     13.51689     10.88757         1.663750      1.200929      0.367636
     13.76940     16.44152     13.73116        -0.333707     -0.749624     -0.451060
     16.40117      8.24285      8.33745        -0.300519      0.201826      0.435873
     16.37497     10.87851     11.02495         0.806046      1.015515     -0.163795
     16.55866     13.53791     13.69339        -1.505169      1.152624      0.239097
     16.39554     16.32066     16.27288         0.090288      2.090431      1.184366
      1.35353      1.35832      1.49732        -0.909480     -0.326180     -0.742674
      1.35677      4.28674      4.19512         0.883304     -2.510718     -1.901044
      1.38220      6.75419      6.84681        -0.678111      0.821175      0.348218
      1.37217      9.47731      9.54537         1.625168      1.812239      1.507218
      4.10410      1.28891      4.09756         0.654007     -0.465333      0.432359
      4.14787      4.26471      6.72704         0.285857     -1.855844     -0.212825
      4.08967      6.80432      9.68600         0.156074     -0.534399     -0.518899
      3.99808      9.58374     12.34780         0.641339     -0.171253     -0.517675
      6.82168      1.34777      6.85146        -0.293640      0.449153     -0.840841
      6.93709      4.20436      9.60539        -0.492990     -2.439416     -0.021796
      6.78275      6.72993     12.26489         0.093172      0.385093     -0.228617
      6.86325      9.47743     14.99181         0.835814      0.658401      0.153382
      9.60495      1.22367      9.59475        -0.037374      1.044154     -0.981055
      9.57669      4.32374     12.27216        -0.434076     -1.884987     -0.018975
      9.55141      6.92217     15.05044        -0.298061     -1.892746     -0.489238
      9.58398      9.63144     17.76255         0.205592     -0.905397      0.545844
      4.08784      4.06476      1.45682         0.173034      0.145443      0.112991
      4.16094      6.89174      4.09526        -0.994280      1.654834     -1.552530
      4.08164      9.53310      6.89069         0.431230      0.714544     -1.553300
      4.07314     12.25133      9.55300        -0.554014      1.381959      0.561272
      6.91148      4.02830      4.00196        -1.039717      0.607175      0.719899
      6.90498      6.70068      6.86271        -1.831906      2.144309     -1.157422
      7.01199      9.59684      9.57997        -3.466404     -0.308469     -0.092713
      6.83363     12.29360     12.34469        -0.858660      1.018555     -2.182938
      9.51717      4.17268      6.79842         0.739965     -0.666514     -0.098437
      9.49049      6.77083      9.50369         0.599359      1.211813      0.918783
      9.43191      9.56750     12.53196         1.200640     -0.497158     -2.199141
      9.46224     12.20638     15.10520         1.004137      1.396042     -0.915349
     12.37130      4.05406      9.54877        -0.424608     -0.262241      0.122564
     12.21756      6.75735     12.28058         0.898564      1.516388      0.041682
     12.26540      9.61920     15.11787         0.857419     -0.960533     -0.855256
     12.22899     12.30415     17.63445         1.206410      0.202453      0.870903
      6.93660      6.73091      1.26539        -1.328083      0.164927      1.887784
      6.68350      9.49858      4.22855         2.081410      0.654368     -0.521160
      6.85102     12.22618      6.72802        -0.633581      0.779625      2.119854
      6.89123     15.07244      9.53848        -1.242090     -0.462019     -0.642712
      9.49146      6.93898      3.85538         0.986117     -0.554914      3.114145
      9.63216      9.53727      6.84557         0.204766      0.604559     -0.233624
      9.59656     12.35171      9.47576        -0.065382     -0.300647      0.566574
      9.62270     15.05846     12.27735        -0.150668     -0.523905     -0.035114
     12.28159      6.84050      6.82043        -0.112569     -1.329136      1.193132
     12.36584      9.70200      9.69866        -1.315629     -1.053919     -0.552456
     12.43062     12.31293     12.39022        -1.929837      0.009366     -1.105255
     12.25137     15.05366     14.99746         1.756960      0.355800     -0.379271
     14.97645      6.92319      9.53338         1.334017     -2.458885      0.087083
     15.01047      9.67455     12.37374        -0.614724     -1.640100     -0.494572
     14.86949     12.36531     14.97285         2.262704      1.598853      2.180381
     15.07566     15.11908     17.69917        -0.377868     -1.281552     -0.036989
      9.42421      9.47557      1.43060         0.496875      0.911464     -1.894510
      9.63005     12.31979      4.02531        -0.442841      0.760756      0.210083
      9.58435     15.11922      6.79987         0.220187     -0.159885      0.810345
      9.50249     17.84717      9.57731         0.875690     -0.590120      0.390084
     12.45968      9.57562      4.19305        -1.836546      0.169010     -1.061677
     12.18653     12.16475      6.83810         2.569058      1.572257      0.089605
     12.36183     15.03288      9.66735         0.488379     -0.697771     -2.019567
     12.25793     17.70889     12.42588        -0.277189      0.020661     -0.025074
     15.10673      9.40750      6.92773        -1.635463      1.564764     -1.327898
     15.11278     12.25150      9.62256        -0.618466      0.271974     -0.782967
     15.08119     14.93913     12.31466        -0.527172     -0.738557      0.175205
     15.13682     17.83071     14.96567        -0.611407      0.098956      0.842577
     17.72354      9.67197      9.54631        -0.008087     -0.840899      1.121889
     17.88621     12.24435     12.38369        -0.904517      0.785311     -2.177489
     17.77385     15.16381     14.93160        -0.490954     -3.505812      2.048425
     17.66395     17.87249     17.99175         0.815053     -1.070584     -2.886656
 -----------------------------------------------------------------------------------
    total drift:                               -0.000002     -0.000013      0.000003


--------------------------------------------------------------------------------------------------------



  FREE ENERGIE OF THE ION-ELECTRON SYSTEM (eV)
  ---------------------------------------------------
  free  energy   TOTEN  =      -679.27394095 eV

  energy  without entropy=     -679.27394095  energy(sigma->0) =     -679.27394095
 


--------------------------------------------------------------------------------------------------------


    POTLOK:  cpu time    0.9923: real time    0.9923


--------------------------------------------------------------------------------------------------------


     LOOP+:  cpu time 1684.3271: real time 1685.0983
    4ORBIT:  cpu time    0.0000: real time    0.0000

 total amount of memory used by VASP MPI-rank0   221701. kBytes
=======================================================================

   base      :      30000. kBytes
   nonl-proj :      10690. kBytes
   fftplans  :      66746. kBytes
   grid      :      26864. kBytes
   one-center:         24. kBytes
   wavefun   :      87377. kBytes
 
  
  
 General timing and accounting informations for this job:
 ========================================================
  
                  Total CPU time used (sec):     1708.334
                            User time (sec):     1707.263
                          System time (sec):        1.072
                         Elapsed time (sec):     1710.040
  
                   Maximum memory used (kb):      337632.
                   Average memory used (kb):           0.
  
                          Minor page faults:       170091
                          Major page faults:            0
                 Voluntary context switches:         1375
