<?xml version="1.0" encoding="ISO-8859-1"?>
<modeling>
 <generator>
  <i name="program" type="string">vasp </i>
  <i name="version" type="string">5.4.4.18Apr17-6-g9f103f2a35  </i>
  <i name="subversion" type="string">(build Nov 08 2017 09:05:29) complex            parallel </i>
  <i name="platform" type="string">Intel_17.33 </i>
  <i name="date" type="string">2020 07 18 </i>
  <i name="time" type="string">22:48:48 </i>
 </generator>
 <incar>
  <i type="string" name="SYSTEM">potpaw_PBE@./ARUN.APL1ZEROSTATE</i>
  <i type="string" name="PREC">accurate</i>
  <i type="string" name="ALGO">Normal</i>
  <i type="int" name="NSIM">     4</i>
  <i type="logical" name="ADDGRID"> T  </i>
  <i type="int" name="NELM">   120</i>
  <i type="int" name="NELMIN">     4</i>
  <i name="EDIFF">      0.00000001</i>
  <i type="int" name="NSW">     0</i>
  <i type="int" name="ISYM">     2</i>
  <i name="ENMAX">    500.00000000</i>
  <i type="logical" name="LREAL"> F  </i>
  <i type="logical" name="LPLANE"> T  </i>
  <i type="int" name="ISMEAR">     0</i>
  <i name="SIGMA">      0.01000000</i>
  <i type="logical" name="LWAVE"> F  </i>
  <i type="logical" name="LCHARG"> F  </i>
  <i type="logical" name="LELF"> F  </i>
  <i type="logical" name="LAECHG"> F  </i>
  <v type="int" name="KPOINT_BSE">    -1     0     0     0</v>
  <i type="int" name="NELM">   120</i>
 </incar>
 <structure name="primitive_cell" >
  <crystal>
   <varray name="basis" >
    <v>       0.00000000      10.93733369      10.93733369 </v>
    <v>      10.93733369       0.00000000      10.93733369 </v>
    <v>      10.93733369      10.93733369       0.00000000 </v>
   </varray>
   <i name="volume">   2616.76295363 </i>
   <varray name="rec_basis" >
    <v>      -0.04571498       0.04571498       0.04571498 </v>
    <v>       0.04571498      -0.04571498       0.04571498 </v>
    <v>       0.04571498       0.04571498      -0.04571498 </v>
   </varray>
  </crystal>
  <varray name="positions" >
   <v>       0.00355387       0.00603443      -0.00529069 </v>
   <v>       0.05547381      -0.17822598       0.05640594 </v>
   <v>       0.06866893       0.06823122       0.05552217 </v>
   <v>       0.06774763       0.06305239      -0.20139700 </v>
   <v>      -0.19310738       0.06583984       0.05961766 </v>
   <v>       0.00813165       0.23814242      -0.24883174 </v>
   <v>       0.24431424      -0.00371423      -0.24248177 </v>
   <v>       0.24698414      -0.01096436       0.01005360 </v>
   <v>       0.01302321       0.00379308       0.23420582 </v>
   <v>       0.00784625       0.24721205      -0.00248828 </v>
   <v>       0.24425076      -0.24485853       0.00267590 </v>
   <v>      -0.24642452       0.00623395      -0.00042352 </v>
   <v>      -0.24996700       0.26172555      -0.01647755 </v>
   <v>       0.00584044      -0.00448274      -0.25897697 </v>
   <v>      -0.01001772      -0.25463615       0.26160101 </v>
   <v>       0.00057725      -0.25771276      -0.00475231 </v>
   <v>      -0.25695181      -0.00717737       0.26537608 </v>
   <v>       0.30697858       0.06105548      -0.18058041 </v>
   <v>      -0.18017206       0.30913108       0.05641312 </v>
   <v>       0.30820239      -0.17596224      -0.18870206 </v>
   <v>      -0.18069689       0.05634959      -0.18753713 </v>
   <v>      -0.18941884       0.06284933       0.30955780 </v>
   <v>       0.05984044       0.32353024      -0.18434221 </v>
   <v>      -0.18276059       0.31885791      -0.19811585 </v>
   <v>       0.05629915      -0.18325550       0.31436300 </v>
   <v>       0.06833175      -0.19551289      -0.18402435 </v>
   <v>      -0.18581585      -0.19015463       0.06641767 </v>
   <v>       0.32088278      -0.19883997       0.07443653 </v>
   <v>      -0.19040536      -0.19727750       0.31537340 </v>
   <v>       0.24405682       0.24698933      -0.23409105 </v>
   <v>      -0.24600199       0.24486036       0.25027308 </v>
   <v>       0.25273483      -0.24472396      -0.25811342 </v>
   <v>       0.24610553      -0.25060540       0.25556977 </v>
   <v>      -0.25835537       0.25761228      -0.24771288 </v>
   <v>      -0.24836551      -0.25221803       0.25102265 </v>
   <v>       0.05956201       0.29293506      -0.42513143 </v>
   <v>       0.05862307       0.31601647       0.05922157 </v>
   <v>       0.04844362       0.06725057      -0.43303720 </v>
   <v>       0.06554374       0.06765367       0.30609726 </v>
   <v>      -0.43310461       0.31869546       0.05522318 </v>
   <v>      -0.43577900       0.06579486       0.30738962 </v>
   <v>       0.31418358      -0.43596297       0.07022119 </v>
   <v>       0.06297446      -0.43654618       0.06025235 </v>
   <v>      -0.44141783       0.06742127       0.05895278 </v>
   <v>       0.32572348       0.05783619       0.06621282 </v>
   <v>       0.32199929       0.06461708      -0.45354453 </v>
   <v>       0.06646632      -0.44488696       0.31504188 </v>
   <v>       0.23864803       0.24937627       0.00065199 </v>
   <v>       0.48789929      -0.23591324      -0.25012890 </v>
   <v>       0.24937140      -0.00408666      -0.49064848 </v>
   <v>       0.00171861       0.49944772      -0.26189758 </v>
   <v>      -0.00035600       0.25332452      -0.49890455 </v>
   <v>      -0.00490769       0.26071808       0.24052029 </v>
   <v>      -0.49657798       0.24431687       0.24076740 </v>
   <v>       0.24572844       0.25891707       0.49709166 </v>
   <v>      -0.24529458      -0.00656691       0.49667600 </v>
   <v>      -0.25012441      -0.49443574      -0.24662847 </v>
   <v>       0.00818921      -0.24589649      -0.25454531 </v>
   <v>       0.24585454      -0.49423728       0.00089960 </v>
   <v>      -0.24103617      -0.00710321      -0.25059496 </v>
   <v>      -0.25942866      -0.49887704       0.00869273 </v>
   <v>      -0.00884074      -0.24434245      -0.49914243 </v>
   <v>      -0.49306964      -0.25240386      -0.00831958 </v>
   <v>      -0.23548781      -0.26133353       0.49678679 </v>
   <v>      -0.25680481      -0.24260727       0.00173602 </v>
   <v>       0.49583590       0.25019191       0.00484532 </v>
   <v>      -0.49281426       0.00868663      -0.25890044 </v>
   <v>       0.49767360       0.00779963       0.24447146 </v>
   <v>       0.25937060      -0.00515410       0.25310127 </v>
   <v>       0.25135519       0.49592055       0.24729775 </v>
   <v>       0.00178324       0.49937884       0.24852927 </v>
   <v>       0.31160761       0.31359948      -0.19938507 </v>
   <v>       0.30860689       0.31728304      -0.43661502 </v>
   <v>       0.31179301      -0.18898013       0.30603110 </v>
   <v>      -0.19269373      -0.43899564      -0.17704512 </v>
   <v>      -0.19024551       0.31276275      -0.43296009 </v>
   <v>      -0.16797378      -0.18704080      -0.19794474 </v>
   <v>       0.30909167      -0.42930133      -0.18893739 </v>
   <v>      -0.43671977      -0.19808440      -0.17685356 </v>
   <v>      -0.18606066       0.31473480       0.31006386 </v>
   <v>      -0.43595022       0.31983568      -0.18959385 </v>
   <v>      -0.42985796      -0.18791578       0.30934127 </v>
   <v>       0.32173367      -0.19040351      -0.43719000 </v>
   <v>       0.31013160      -0.44120976       0.30892512 </v>
   <v>      -0.18401815      -0.43491431       0.30004666 </v>
   <v>      -0.44388556       0.31978189       0.32132394 </v>
   <v>      -0.18889769      -0.19286809      -0.42876533 </v>
   <v>      -0.49788028      -0.00720982      -0.49139643 </v>
   <v>       0.49324086      -0.49164850      -0.00745135 </v>
   <v>       0.49919904      -0.00764244       0.00717030 </v>
   <v>      -0.00939379      -0.49349247       0.00182603 </v>
   <v>      -0.00701885       0.01125008       0.49837317 </v>
   <v>      -0.01294549      -0.48519755      -0.49851682 </v>
   <v>      -0.44670316       0.06184612      -0.43545733 </v>
   <v>       0.06305656      -0.43946475      -0.43762963 </v>
   <v>      -0.18628482      -0.44249767      -0.43735969 </v>
   <v>      -0.44352935      -0.43054142      -0.19058626 </v>
   <v>      -0.43611768       0.05782913      -0.18153239 </v>
   <v>      -0.44172528      -0.43689598       0.05704222 </v>
   <v>      -0.19514244      -0.43415666       0.06166344 </v>
   <v>      -0.18994458       0.06204752      -0.43198301 </v>
   <v>       0.05616070      -0.42275833      -0.19603366 </v>
   <v>      -0.43216503      -0.19177357       0.06505904 </v>
   <v>       0.06766368      -0.19602681      -0.43467655 </v>
   <v>      -0.42999536      -0.20103764      -0.43944522 </v>
   <v>       0.48766936       0.25506944      -0.24268068 </v>
   <v>      -0.48925181       0.49406641       0.24353474 </v>
   <v>      -0.24597516       0.48820329       0.25565923 </v>
   <v>      -0.25650472      -0.49565149      -0.49001047 </v>
   <v>       0.25677038       0.49712920      -0.25592433 </v>
   <v>       0.24137113      -0.25669693      -0.49878326 </v>
   <v>      -0.49840014      -0.24804172       0.24233522 </v>
   <v>      -0.49669761       0.24850163       0.49568861 </v>
   <v>      -0.25062759       0.24104524      -0.49503158 </v>
   <v>      -0.49348103      -0.25428296      -0.49316530 </v>
   <v>       0.24804790      -0.49230597       0.49875876 </v>
   <v>       0.49412240      -0.49867204      -0.25827398 </v>
   <v>       0.31205260       0.06237645       0.31805848 </v>
   <v>       0.05114540       0.31475377       0.31716213 </v>
   <v>       0.30438916       0.32306829       0.30825398 </v>
   <v>       0.31286800       0.30218516       0.07705430 </v>
   <v>       0.24921776       0.23425410       0.26775614 </v>
   <v>      -0.25950836      -0.25266280      -0.24829400 </v>
   <v>      -0.44086440       0.30723249      -0.42981932 </v>
   <v>      -0.42090303      -0.43330043       0.29565943 </v>
   <v>      -0.43896132      -0.42820152      -0.43526753 </v>
   <v>       0.32159626      -0.43484834      -0.43454310 </v>
   <v>      -0.49336215      -0.49816844       0.49640211 </v>
  </varray>
 </structure>
 <varray name="primitive_index" >
  <v type="int" >        1 </v>
  <v type="int" >       77 </v>
  <v type="int" >       65 </v>
  <v type="int" >      113 </v>
  <v type="int" >       68 </v>
  <v type="int" >       53 </v>
  <v type="int" >       50 </v>
  <v type="int" >        2 </v>
  <v type="int" >       17 </v>
  <v type="int" >        5 </v>
  <v type="int" >       14 </v>
  <v type="int" >        4 </v>
  <v type="int" >        8 </v>
  <v type="int" >       49 </v>
  <v type="int" >       29 </v>
  <v type="int" >       13 </v>
  <v type="int" >       20 </v>
  <v type="int" >      114 </v>
  <v type="int" >       72 </v>
  <v type="int" >      126 </v>
  <v type="int" >      116 </v>
  <v type="int" >       84 </v>
  <v type="int" >      117 </v>
  <v type="int" >      120 </v>
  <v type="int" >       93 </v>
  <v type="int" >      125 </v>
  <v type="int" >       80 </v>
  <v type="int" >       78 </v>
  <v type="int" >       96 </v>
  <v type="int" >       54 </v>
  <v type="int" >       24 </v>
  <v type="int" >       62 </v>
  <v type="int" >       30 </v>
  <v type="int" >       56 </v>
  <v type="int" >       32 </v>
  <v type="int" >      101 </v>
  <v type="int" >       69 </v>
  <v type="int" >       97 </v>
  <v type="int" >       81 </v>
  <v type="int" >       71 </v>
  <v type="int" >       83 </v>
  <v type="int" >       74 </v>
  <v type="int" >       73 </v>
  <v type="int" >       67 </v>
  <v type="int" >       66 </v>
  <v type="int" >       98 </v>
  <v type="int" >       89 </v>
  <v type="int" >        6 </v>
  <v type="int" >       63 </v>
  <v type="int" >       34 </v>
  <v type="int" >       57 </v>
  <v type="int" >       37 </v>
  <v type="int" >       21 </v>
  <v type="int" >       23 </v>
  <v type="int" >       38 </v>
  <v type="int" >       36 </v>
  <v type="int" >       60 </v>
  <v type="int" >       61 </v>
  <v type="int" >       10 </v>
  <v type="int" >       52 </v>
  <v type="int" >       12 </v>
  <v type="int" >       45 </v>
  <v type="int" >       15 </v>
  <v type="int" >       48 </v>
  <v type="int" >       16 </v>
  <v type="int" >        7 </v>
  <v type="int" >       51 </v>
  <v type="int" >       19 </v>
  <v type="int" >       18 </v>
  <v type="int" >       26 </v>
  <v type="int" >       25 </v>
  <v type="int" >      118 </v>
  <v type="int" >      102 </v>
  <v type="int" >       94 </v>
  <v type="int" >      124 </v>
  <v type="int" >      104 </v>
  <v type="int" >      128 </v>
  <v type="int" >      122 </v>
  <v type="int" >      127 </v>
  <v type="int" >       88 </v>
  <v type="int" >      119 </v>
  <v type="int" >       95 </v>
  <v type="int" >      110 </v>
  <v type="int" >       90 </v>
  <v type="int" >       92 </v>
  <v type="int" >       87 </v>
  <v type="int" >      112 </v>
  <v type="int" >       35 </v>
  <v type="int" >       11 </v>
  <v type="int" >        3 </v>
  <v type="int" >        9 </v>
  <v type="int" >       33 </v>
  <v type="int" >       41 </v>
  <v type="int" >       99 </v>
  <v type="int" >      105 </v>
  <v type="int" >      108 </v>
  <v type="int" >      123 </v>
  <v type="int" >      115 </v>
  <v type="int" >       75 </v>
  <v type="int" >       76 </v>
  <v type="int" >      100 </v>
  <v type="int" >      121 </v>
  <v type="int" >       79 </v>
  <v type="int" >      109 </v>
  <v type="int" >      111 </v>
  <v type="int" >       55 </v>
  <v type="int" >       27 </v>
  <v type="int" >       28 </v>
  <v type="int" >       44 </v>
  <v type="int" >       58 </v>
  <v type="int" >       46 </v>
  <v type="int" >       31 </v>
  <v type="int" >       39 </v>
  <v type="int" >       40 </v>
  <v type="int" >       47 </v>
  <v type="int" >       42 </v>
  <v type="int" >       59 </v>
  <v type="int" >       82 </v>
  <v type="int" >       85 </v>
  <v type="int" >       86 </v>
  <v type="int" >       70 </v>
  <v type="int" >       22 </v>
  <v type="int" >       64 </v>
  <v type="int" >      103 </v>
  <v type="int" >       91 </v>
  <v type="int" >      107 </v>
  <v type="int" >      106 </v>
  <v type="int" >       43 </v>
 </varray>
 <kpoints>
  <generation param="Gamma">
   <v type="int" name="divisions">       2        2        2 </v>
   <v name="usershift">      0.00000000       0.00000000       0.00000000 </v>
   <v name="genvec1">      0.50000000       0.00000000       0.00000000 </v>
   <v name="genvec2">      0.00000000       0.50000000       0.00000000 </v>
   <v name="genvec3">      0.00000000       0.00000000       0.50000000 </v>
   <v name="shift">      0.00000000       0.00000000       0.00000000 </v>
  </generation>
  <varray name="kpointlist" >
   <v>       0.00000000       0.00000000       0.00000000 </v>
   <v>       0.50000000       0.00000000       0.00000000 </v>
   <v>       0.00000000       0.50000000       0.00000000 </v>
   <v>       0.50000000       0.50000000       0.00000000 </v>
   <v>       0.00000000       0.00000000       0.50000000 </v>
   <v>       0.50000000       0.00000000       0.50000000 </v>
   <v>       0.00000000       0.50000000       0.50000000 </v>
   <v>       0.50000000       0.50000000       0.50000000 </v>
  </varray>
  <varray name="weights" >
   <v>       0.12500000 </v>
   <v>       0.12500000 </v>
   <v>       0.12500000 </v>
   <v>       0.12500000 </v>
   <v>       0.12500000 </v>
   <v>       0.12500000 </v>
   <v>       0.12500000 </v>
   <v>       0.12500000 </v>
  </varray>
 </kpoints>
 <parameters>
  <separator name="general" >
   <i type="string" name="SYSTEM">potpaw_PBE@./ARUN.APL1ZEROSTATE</i>
   <i type="logical" name="LCOMPAT"> F  </i>
  </separator>
  <separator name="electronic" >
   <i type="string" name="PREC">accura</i>
   <i name="ENMAX">    500.00000000</i>
   <i name="ENAUG">    322.06900000</i>
   <i name="EDIFF">      0.00000001</i>
   <i type="int" name="IALGO">    38</i>
   <i type="int" name="IWAVPR">    10</i>
   <i type="int" name="NBANDS">   322</i>
   <i name="NELECT">    512.00000000</i>
   <i type="int" name="TURBO">     0</i>
   <i type="int" name="IRESTART">     0</i>
   <i type="int" name="NREBOOT">     0</i>
   <i type="int" name="NMIN">     0</i>
   <i name="EREF">      0.00000000</i>
   <separator name="electronic smearing" >
    <i type="int" name="ISMEAR">     0</i>
    <i name="SIGMA">      0.01000000</i>
    <i name="KSPACING">      0.50000000</i>
    <i type="logical" name="KGAMMA"> T  </i>
   </separator>
   <separator name="electronic projectors" >
    <i type="logical" name="LREAL"> F  </i>
    <v name="ROPT">      0.00000000</v>
    <i type="int" name="LMAXPAW">  -100</i>
    <i type="int" name="LMAXMIX">     2</i>
    <i type="logical" name="NLSPLINE"> F  </i>
   </separator>
   <separator name="electronic startup" >
    <i type="int" name="ISTART">     0</i>
    <i type="int" name="ICHARG">     2</i>
    <i type="int" name="INIWAV">     1</i>
   </separator>
   <separator name="electronic spin" >
    <i type="int" name="ISPIN">     1</i>
    <i type="logical" name="LNONCOLLINEAR"> F  </i>
    <v name="MAGMOM">      1.00000000      1.00000000      1.00000000      1.00000000      1.00000000      1.00000000      1.00000000      1.00000000      1.00000000      1.00000000      1.00000000      1.00000000      1.00000000      1.00000000      1.00000000      1.00000000      1.00000000      1.00000000      1.00000000      1.00000000
      1.00000000      1.00000000      1.00000000      1.00000000      1.00000000      1.00000000      1.00000000      1.00000000      1.00000000      1.00000000      1.00000000      1.00000000      1.00000000      1.00000000      1.00000000      1.00000000      1.00000000      1.00000000      1.00000000      1.00000000
      1.00000000      1.00000000      1.00000000      1.00000000      1.00000000      1.00000000      1.00000000      1.00000000      1.00000000      1.00000000      1.00000000      1.00000000      1.00000000      1.00000000      1.00000000      1.00000000      1.00000000      1.00000000      1.00000000      1.00000000
      1.00000000      1.00000000      1.00000000      1.00000000      1.00000000      1.00000000      1.00000000      1.00000000      1.00000000      1.00000000      1.00000000      1.00000000      1.00000000      1.00000000      1.00000000      1.00000000      1.00000000      1.00000000      1.00000000      1.00000000
      1.00000000      1.00000000      1.00000000      1.00000000      1.00000000      1.00000000      1.00000000      1.00000000      1.00000000      1.00000000      1.00000000      1.00000000      1.00000000      1.00000000      1.00000000      1.00000000      1.00000000      1.00000000      1.00000000      1.00000000
      1.00000000      1.00000000      1.00000000      1.00000000      1.00000000      1.00000000      1.00000000      1.00000000      1.00000000      1.00000000      1.00000000      1.00000000      1.00000000      1.00000000      1.00000000      1.00000000      1.00000000      1.00000000      1.00000000      1.00000000
      1.00000000      1.00000000      1.00000000      1.00000000      1.00000000      1.00000000      1.00000000      1.00000000</v>
    <i name="NUPDOWN">     -1.00000000</i>
    <i type="logical" name="LSORBIT"> F  </i>
    <v name="SAXIS">      0.00000000      0.00000000      1.00000000</v>
    <i type="logical" name="LSPIRAL"> F  </i>
    <v name="QSPIRAL">      0.00000000      0.00000000      0.00000000</v>
    <i type="logical" name="LZEROZ"> F  </i>
   </separator>
   <separator name="electronic exchange-correlation" >
    <i type="logical" name="LASPH"> F  </i>
    <i type="logical" name="LMETAGGA"> F  </i>
   </separator>
   <separator name="electronic convergence" >
    <i type="int" name="NELM">   120</i>
    <i type="int" name="NELMDL">    -5</i>
    <i type="int" name="NELMIN">     4</i>
    <i name="ENINI">    500.00000000</i>
    <separator name="electronic convergence detail" >
     <i type="logical" name="LDIAG"> T  </i>
     <i type="logical" name="LSUBROT"> F  </i>
     <i name="WEIMIN">      0.00000000</i>
     <i name="EBREAK">      0.00000000</i>
     <i name="DEPER">      0.30000000</i>
     <i type="int" name="NRMM">     4</i>
     <i name="TIME">      0.40000000</i>
    </separator>
   </separator>
   <separator name="electronic mixer" >
    <i name="AMIX">      0.40000000</i>
    <i name="BMIX">      1.00000000</i>
    <i name="AMIN">      0.10000000</i>
    <i name="AMIX_MAG">      1.60000000</i>
    <i name="BMIX_MAG">      1.00000000</i>
    <separator name="electronic mixer details" >
     <i type="int" name="IMIX">     4</i>
     <i type="logical" name="MIXFIRST"> F  </i>
     <i type="int" name="MAXMIX">   -45</i>
     <i name="WC">    100.00000000</i>
     <i type="int" name="INIMIX">     1</i>
     <i type="int" name="MIXPRE">     1</i>
     <i type="int" name="MREMOVE">     5</i>
    </separator>
   </separator>
   <separator name="electronic dipolcorrection" >
    <i type="logical" name="LDIPOL"> F  </i>
    <i type="logical" name="LMONO"> F  </i>
    <i type="int" name="IDIPOL">     0</i>
    <i name="EPSILON">      1.00000000</i>
    <v name="DIPOL">   -100.00000000   -100.00000000   -100.00000000</v>
    <i name="EFIELD">      0.00000000</i>
   </separator>
  </separator>
  <separator name="grids" >
   <i type="int" name="NGX">   120</i>
   <i type="int" name="NGY">   120</i>
   <i type="int" name="NGZ">   120</i>
   <i type="int" name="NGXF">   240</i>
   <i type="int" name="NGYF">   240</i>
   <i type="int" name="NGZF">   240</i>
   <i type="logical" name="ADDGRID"> T  </i>
  </separator>
  <separator name="ionic" >
   <i type="int" name="NSW">     0</i>
   <i type="int" name="IBRION">    -1</i>
   <i type="int" name="MDALGO">     0</i>
   <i type="int" name="ISIF">     2</i>
   <i name="PSTRESS">      0.00000000</i>
   <i name="EDIFFG">      0.00000010</i>
   <i type="int" name="NFREE">     0</i>
   <i name="POTIM">      0.50000000</i>
   <i name="SMASS">     -3.00000000</i>
   <i name="SCALEE">      1.00000000</i>
  </separator>
  <separator name="ionic md" >
   <i name="TEBEG">      0.00010000</i>
   <i name="TEEND">      0.00010000</i>
   <i type="int" name="NBLOCK">     1</i>
   <i type="int" name="KBLOCK">     1</i>
   <i type="int" name="NPACO">   256</i>
   <i name="APACO">     16.00000000</i>
  </separator>
  <separator name="symmetry" >
   <i type="int" name="ISYM">     2</i>
   <i name="SYMPREC">      0.00001000</i>
  </separator>
  <separator name="dos" >
   <i type="int" name="LORBIT">     0</i>
   <v name="RWIGS">     -1.00000000</v>
   <i type="int" name="NEDOS">   301</i>
   <i name="EMIN">     10.00000000</i>
   <i name="EMAX">    -10.00000000</i>
   <i name="EFERMI">      0.00000000</i>
  </separator>
  <separator name="writing" >
   <i type="int" name="NWRITE">     2</i>
   <i type="logical" name="LWAVE"> F  </i>
   <i type="logical" name="LDOWNSAMPLE"> F  </i>
   <i type="logical" name="LCHARG"> F  </i>
   <i type="logical" name="LPARD"> F  </i>
   <i type="logical" name="LVTOT"> F  </i>
   <i type="logical" name="LVHAR"> F  </i>
   <i type="logical" name="LELF"> F  </i>
   <i type="logical" name="LOPTICS"> F  </i>
   <v name="STM">      0.00000000      0.00000000      0.00000000      0.00000000      0.00000000      0.00000000      0.00000000</v>
  </separator>
  <separator name="performance" >
   <i type="int" name="NPAR">     2</i>
   <i type="int" name="NSIM">     4</i>
   <i type="int" name="NBLK">    -1</i>
   <i type="logical" name="LPLANE"> T  </i>
   <i type="logical" name="LSCALAPACK"> T  </i>
   <i type="logical" name="LSCAAWARE"> F  </i>
   <i type="logical" name="LSCALU"> F  </i>
   <i type="logical" name="LASYNC"> F  </i>
   <i type="logical" name="LORBITALREAL"> F  </i>
  </separator>
  <separator name="miscellaneous" >
   <i type="int" name="IDIOT">     3</i>
   <i type="int" name="ISPECIAL">     0</i>
   <i type="logical" name="LMUSIC"> F  </i>
   <v name="POMASS">     28.08500000</v>
   <v name="DARWINR">      0.00000000</v>
   <v name="DARWINV">      1.00000000</v>
   <i type="logical" name="LCORR"> T  </i>
  </separator>
  <i type="logical" name="GGA_COMPAT"> T  </i>
  <i type="logical" name="LBERRY"> F  </i>
  <i type="int" name="ICORELEVEL">     0</i>
  <i type="logical" name="LDAU"> F  </i>
  <i type="int" name="I_CONSTRAINED_M">     0</i>
  <separator name="electronic exchange-correlation" >
   <i type="string" name="GGA">--</i>
   <i type="int" name="VOSKOWN">     0</i>
   <i type="logical" name="LHFCALC"> F  </i>
   <i type="string" name="PRECFOCK"></i>
   <i type="logical" name="LSYMGRAD"> F  </i>
   <i type="logical" name="LHFONE"> F  </i>
   <i type="logical" name="LRHFCALC"> F  </i>
   <i type="logical" name="LTHOMAS"> F  </i>
   <i type="logical" name="LMODELHF"> F  </i>
   <i name="ENCUT4O">     -1.00000000</i>
   <i type="int" name="EXXOEP">     0</i>
   <i type="int" name="FOURORBIT">     0</i>
   <i name="AEXX">      0.00000000</i>
   <i name="HFALPHA">      0.00000000</i>
   <i name="MCALPHA">      0.00000000</i>
   <i name="ALDAX">      1.00000000</i>
   <i name="AGGAX">      1.00000000</i>
   <i name="ALDAC">      1.00000000</i>
   <i name="AGGAC">      1.00000000</i>
   <i type="int" name="NKREDX">     1</i>
   <i type="int" name="NKREDY">     1</i>
   <i type="int" name="NKREDZ">     1</i>
   <i type="logical" name="SHIFTRED"> F  </i>
   <i type="logical" name="ODDONLY"> F  </i>
   <i type="logical" name="EVENONLY"> F  </i>
   <i type="int" name="LMAXFOCK">     0</i>
   <i type="int" name="NMAXFOCKAE">     0</i>
   <i type="logical" name="LFOCKAEDFT"> F  </i>
   <i name="HFSCREEN">      0.00000000</i>
   <i name="HFSCREENC">      0.00000000</i>
   <i type="int" name="NBANDSGWLOW">     0</i>
  </separator>
  <separator name="vdW DFT" >
   <i type="logical" name="LUSE_VDW"> F  </i>
   <i name="Zab_VDW">     -0.84910000</i>
   <i name="PARAM1">      0.12340000</i>
   <i name="PARAM2">      1.00000000</i>
   <i name="PARAM3">      0.00000000</i>
  </separator>
  <separator name="model GW" >
   <i type="int" name="MODEL_GW">     0</i>
   <i name="MODEL_EPS0">     12.26607635</i>
   <i name="MODEL_ALPHA">      1.00000000</i>
  </separator>
  <separator name="linear response parameters" >
   <i type="logical" name="LEPSILON"> F  </i>
   <i type="logical" name="LRPA"> F  </i>
   <i type="logical" name="LNABLA"> F  </i>
   <i type="logical" name="LVEL"> F  </i>
   <i type="int" name="KINTER">     0</i>
   <i name="CSHIFT">      0.10000000</i>
   <i name="OMEGAMAX">     -1.00000000</i>
   <i name="DEG_THRESHOLD">      0.00200000</i>
   <i name="RTIME">     -0.10000000</i>
   <i name="WPLASMAI">      0.00000000</i>
   <v name="DFIELD">      0.00000000      0.00000000      0.00000000</v>
   <v name="WPLASMA">      0.00000000      0.00000000      0.00000000      0.00000000      0.00000000      0.00000000      0.00000000      0.00000000      0.00000000</v>
  </separator>
  <separator name="orbital magnetization" >
   <i type="logical" name="NUCIND"> F  </i>
   <v name="MAGPOS">      0.00000000      0.00000000      0.00000000</v>
   <i type="logical" name="LNICSALL"> T  </i>
   <i type="logical" name="ORBITALMAG"> F  </i>
   <i type="logical" name="LMAGBLOCH"> F  </i>
   <i type="logical" name="LCHIMAG"> F  </i>
   <i type="logical" name="LGAUGE"> T  </i>
   <i type="int" name="MAGATOM">     0</i>
   <v name="MAGDIPOL">      0.00000000      0.00000000      0.00000000</v>
   <v name="AVECCONST">      0.00000000      0.00000000      0.00000000</v>
  </separator>
  <separator name="response functions" >
   <i type="logical" name="LADDER"> F  </i>
   <i type="logical" name="LRPAFORCE"> F  </i>
   <i type="logical" name="LFXC"> F  </i>
   <i type="logical" name="LHARTREE"> T  </i>
   <i type="int" name="IBSE">     0</i>
   <v type="int" name="KPOINT">    -1     0     0     0</v>
   <i type="logical" name="LTCTE"> F  </i>
   <i type="logical" name="LTETE"> F  </i>
   <i type="logical" name="LTRIPLET"> F  </i>
   <i type="logical" name="LFXCEPS"> F  </i>
   <i type="logical" name="LFXHEG"> F  </i>
   <i type="int" name="NATURALO">     2</i>
   <i type="logical" name="L2ORDER"> F  </i>
   <i type="logical" name="LMP2LT"> F  </i>
   <i type="logical" name="LUSEW"> F  </i>
   <i name="ENCUTGW">     -2.00000000</i>
   <i name="ENCUTGWSOFT">     -2.00000000</i>
   <i name="ENCUTLF">     -1.00000000</i>
   <i type="int" name="LMAXMP2">    -1</i>
   <i name="SCISSOR">      0.00000000</i>
   <i type="int" name="NOMEGA">     0</i>
   <i type="int" name="NOMEGAR">     0</i>
   <i type="int" name="NBANDSGW">    -1</i>
   <i type="int" name="NBANDSO">    -1</i>
   <i type="int" name="NBANDSV">    -1</i>
   <i type="int" name="NELM">   120</i>
   <i type="int" name="NELMHF">     1</i>
   <i type="int" name="DIM">     3</i>
   <i type="int" name="ANTIRES">     0</i>
   <i name="OMEGAMAX">    -30.00000000</i>
   <i name="OMEGAMIN">    -30.00000000</i>
   <i name="OMEGATL">   -200.00000000</i>
   <i type="int" name="OMEGAGRID">   140</i>
   <i name="CSHIFT">     -0.10000000</i>
   <i type="logical" name="SELFENERGY"> F  </i>
   <i type="logical" name="LSPECTRAL"> F  </i>
   <i type="logical" name="LSPECTRALGW"> F  </i>
   <i type="logical" name="LSINGLES"> F  </i>
   <i type="logical" name="LFERMIGW"> F  </i>
   <i type="logical" name="ODDONLYGW"> F  </i>
   <i type="logical" name="EVENONLYGW"> F  </i>
   <i type="int" name="NKREDLFX">     1</i>
   <i type="int" name="NKREDLFY">     1</i>
   <i type="int" name="NKREDLFZ">     1</i>
   <i type="int" name="MAXMEM">  2800</i>
   <i type="int" name="TELESCOPE">     0</i>
   <i type="int" name="TAUPAR">     1</i>
   <i type="int" name="OMEGAPAR">    -1</i>
   <i name="LAMBDA">      1.00000000</i>
  </separator>
  <separator name="External order field" >
   <i name="OFIELD_KAPPA">      0.00000000</i>
   <v name="OFIELD_K">      0.00000000      0.00000000      0.00000000</v>
   <i name="OFIELD_Q6_NEAR">      0.00000000</i>
   <i name="OFIELD_Q6_FAR">      0.00000000</i>
   <i name="OFIELD_A">      0.00000000</i>
  </separator>
 </parameters>
 <atominfo>
  <atoms>     128 </atoms>
  <types>       1 </types>
  <array name="atoms" >
   <dimension dim="1">ion</dimension>
   <field type="string">element</field>
   <field type="int">atomtype</field>
   <set>
    <rc><c>Si</c><c>   1</c></rc>
    <rc><c>Si</c><c>   1</c></rc>
    <rc><c>Si</c><c>   1</c></rc>
    <rc><c>Si</c><c>   1</c></rc>
    <rc><c>Si</c><c>   1</c></rc>
    <rc><c>Si</c><c>   1</c></rc>
    <rc><c>Si</c><c>   1</c></rc>
    <rc><c>Si</c><c>   1</c></rc>
    <rc><c>Si</c><c>   1</c></rc>
    <rc><c>Si</c><c>   1</c></rc>
    <rc><c>Si</c><c>   1</c></rc>
    <rc><c>Si</c><c>   1</c></rc>
    <rc><c>Si</c><c>   1</c></rc>
    <rc><c>Si</c><c>   1</c></rc>
    <rc><c>Si</c><c>   1</c></rc>
    <rc><c>Si</c><c>   1</c></rc>
    <rc><c>Si</c><c>   1</c></rc>
    <rc><c>Si</c><c>   1</c></rc>
    <rc><c>Si</c><c>   1</c></rc>
    <rc><c>Si</c><c>   1</c></rc>
    <rc><c>Si</c><c>   1</c></rc>
    <rc><c>Si</c><c>   1</c></rc>
    <rc><c>Si</c><c>   1</c></rc>
    <rc><c>Si</c><c>   1</c></rc>
    <rc><c>Si</c><c>   1</c></rc>
    <rc><c>Si</c><c>   1</c></rc>
    <rc><c>Si</c><c>   1</c></rc>
    <rc><c>Si</c><c>   1</c></rc>
    <rc><c>Si</c><c>   1</c></rc>
    <rc><c>Si</c><c>   1</c></rc>
    <rc><c>Si</c><c>   1</c></rc>
    <rc><c>Si</c><c>   1</c></rc>
    <rc><c>Si</c><c>   1</c></rc>
    <rc><c>Si</c><c>   1</c></rc>
    <rc><c>Si</c><c>   1</c></rc>
    <rc><c>Si</c><c>   1</c></rc>
    <rc><c>Si</c><c>   1</c></rc>
    <rc><c>Si</c><c>   1</c></rc>
    <rc><c>Si</c><c>   1</c></rc>
    <rc><c>Si</c><c>   1</c></rc>
    <rc><c>Si</c><c>   1</c></rc>
    <rc><c>Si</c><c>   1</c></rc>
    <rc><c>Si</c><c>   1</c></rc>
    <rc><c>Si</c><c>   1</c></rc>
    <rc><c>Si</c><c>   1</c></rc>
    <rc><c>Si</c><c>   1</c></rc>
    <rc><c>Si</c><c>   1</c></rc>
    <rc><c>Si</c><c>   1</c></rc>
    <rc><c>Si</c><c>   1</c></rc>
    <rc><c>Si</c><c>   1</c></rc>
    <rc><c>Si</c><c>   1</c></rc>
    <rc><c>Si</c><c>   1</c></rc>
    <rc><c>Si</c><c>   1</c></rc>
    <rc><c>Si</c><c>   1</c></rc>
    <rc><c>Si</c><c>   1</c></rc>
    <rc><c>Si</c><c>   1</c></rc>
    <rc><c>Si</c><c>   1</c></rc>
    <rc><c>Si</c><c>   1</c></rc>
    <rc><c>Si</c><c>   1</c></rc>
    <rc><c>Si</c><c>   1</c></rc>
    <rc><c>Si</c><c>   1</c></rc>
    <rc><c>Si</c><c>   1</c></rc>
    <rc><c>Si</c><c>   1</c></rc>
    <rc><c>Si</c><c>   1</c></rc>
    <rc><c>Si</c><c>   1</c></rc>
    <rc><c>Si</c><c>   1</c></rc>
    <rc><c>Si</c><c>   1</c></rc>
    <rc><c>Si</c><c>   1</c></rc>
    <rc><c>Si</c><c>   1</c></rc>
    <rc><c>Si</c><c>   1</c></rc>
    <rc><c>Si</c><c>   1</c></rc>
    <rc><c>Si</c><c>   1</c></rc>
    <rc><c>Si</c><c>   1</c></rc>
    <rc><c>Si</c><c>   1</c></rc>
    <rc><c>Si</c><c>   1</c></rc>
    <rc><c>Si</c><c>   1</c></rc>
    <rc><c>Si</c><c>   1</c></rc>
    <rc><c>Si</c><c>   1</c></rc>
    <rc><c>Si</c><c>   1</c></rc>
    <rc><c>Si</c><c>   1</c></rc>
    <rc><c>Si</c><c>   1</c></rc>
    <rc><c>Si</c><c>   1</c></rc>
    <rc><c>Si</c><c>   1</c></rc>
    <rc><c>Si</c><c>   1</c></rc>
    <rc><c>Si</c><c>   1</c></rc>
    <rc><c>Si</c><c>   1</c></rc>
    <rc><c>Si</c><c>   1</c></rc>
    <rc><c>Si</c><c>   1</c></rc>
    <rc><c>Si</c><c>   1</c></rc>
    <rc><c>Si</c><c>   1</c></rc>
    <rc><c>Si</c><c>   1</c></rc>
    <rc><c>Si</c><c>   1</c></rc>
    <rc><c>Si</c><c>   1</c></rc>
    <rc><c>Si</c><c>   1</c></rc>
    <rc><c>Si</c><c>   1</c></rc>
    <rc><c>Si</c><c>   1</c></rc>
    <rc><c>Si</c><c>   1</c></rc>
    <rc><c>Si</c><c>   1</c></rc>
    <rc><c>Si</c><c>   1</c></rc>
    <rc><c>Si</c><c>   1</c></rc>
    <rc><c>Si</c><c>   1</c></rc>
    <rc><c>Si</c><c>   1</c></rc>
    <rc><c>Si</c><c>   1</c></rc>
    <rc><c>Si</c><c>   1</c></rc>
    <rc><c>Si</c><c>   1</c></rc>
    <rc><c>Si</c><c>   1</c></rc>
    <rc><c>Si</c><c>   1</c></rc>
    <rc><c>Si</c><c>   1</c></rc>
    <rc><c>Si</c><c>   1</c></rc>
    <rc><c>Si</c><c>   1</c></rc>
    <rc><c>Si</c><c>   1</c></rc>
    <rc><c>Si</c><c>   1</c></rc>
    <rc><c>Si</c><c>   1</c></rc>
    <rc><c>Si</c><c>   1</c></rc>
    <rc><c>Si</c><c>   1</c></rc>
    <rc><c>Si</c><c>   1</c></rc>
    <rc><c>Si</c><c>   1</c></rc>
    <rc><c>Si</c><c>   1</c></rc>
    <rc><c>Si</c><c>   1</c></rc>
    <rc><c>Si</c><c>   1</c></rc>
    <rc><c>Si</c><c>   1</c></rc>
    <rc><c>Si</c><c>   1</c></rc>
    <rc><c>Si</c><c>   1</c></rc>
    <rc><c>Si</c><c>   1</c></rc>
    <rc><c>Si</c><c>   1</c></rc>
    <rc><c>Si</c><c>   1</c></rc>
    <rc><c>Si</c><c>   1</c></rc>
    <rc><c>Si</c><c>   1</c></rc>
   </set>
  </array>
  <array name="atomtypes" >
   <dimension dim="1">type</dimension>
   <field type="int">atomspertype</field>
   <field type="string">element</field>
   <field>mass</field>
   <field>valence</field>
   <field type="string">pseudopotential</field>
   <set>
    <rc><c> 128</c><c>Si</c><c>     28.08500000</c><c>      4.00000000</c><c> PAW_PBE Si 05Jan2001                   </c></rc>
   </set>
  </array>
 </atominfo>
 <structure name="initialpos" >
  <crystal>
   <varray name="basis" >
    <v>       0.00000000      10.93733369      10.93733369 </v>
    <v>      10.93733369       0.00000000      10.93733369 </v>
    <v>      10.93733369      10.93733369       0.00000000 </v>
   </varray>
   <i name="volume">   2616.76295363 </i>
   <varray name="rec_basis" >
    <v>      -0.04571498       0.04571498       0.04571498 </v>
    <v>       0.04571498      -0.04571498       0.04571498 </v>
    <v>       0.04571498       0.04571498      -0.04571498 </v>
   </varray>
  </crystal>
  <varray name="positions" >
   <v>       0.00355387       0.00603443       0.99470931 </v>
   <v>       0.24698414       0.98903564       0.01005360 </v>
   <v>       0.49919904       0.99235756       0.00717030 </v>
   <v>       0.75357548       0.00623395       0.99957648 </v>
   <v>       0.00784625       0.24721205       0.99751172 </v>
   <v>       0.23864803       0.24937627       0.00065199 </v>
   <v>       0.49583590       0.25019191       0.00484532 </v>
   <v>       0.75003300       0.26172555       0.98352245 </v>
   <v>       0.99060621       0.50650753       0.00182603 </v>
   <v>       0.24585454       0.50576272       0.00089960 </v>
   <v>       0.49324086       0.50835150       0.99254865 </v>
   <v>       0.74057134       0.50112296       0.00869273 </v>
   <v>       0.00057725       0.74228724       0.99524769 </v>
   <v>       0.24425076       0.75514147       0.00267590 </v>
   <v>       0.50693036       0.74759614       0.99168042 </v>
   <v>       0.74319519       0.75739273       0.00173602 </v>
   <v>       0.01302321       0.00379308       0.23420582 </v>
   <v>       0.25937060       0.99484590       0.25310127 </v>
   <v>       0.49767360       0.00779963       0.24447146 </v>
   <v>       0.74304819       0.99282263       0.26537608 </v>
   <v>       0.99509231       0.26071808       0.24052029 </v>
   <v>       0.24921776       0.23425410       0.26775614 </v>
   <v>       0.50342202       0.24431687       0.24076740 </v>
   <v>       0.75399801       0.24486036       0.25027308 </v>
   <v>       0.00178324       0.49937884       0.24852927 </v>
   <v>       0.25135519       0.49592055       0.24729775 </v>
   <v>       0.51074819       0.49406641       0.24353474 </v>
   <v>       0.75402484       0.48820329       0.25565923 </v>
   <v>       0.98998228       0.74536385       0.26160101 </v>
   <v>       0.24610553       0.74939460       0.25556977 </v>
   <v>       0.50159986       0.75195828       0.24233522 </v>
   <v>       0.75163449       0.74778197       0.25102265 </v>
   <v>       0.99298115       0.01125008       0.49837317 </v>
   <v>       0.24937140       0.99591334       0.50935152 </v>
   <v>       0.50211972       0.99279018       0.50860357 </v>
   <v>       0.75470542       0.99343309       0.49667600 </v>
   <v>       0.99964400       0.25332452       0.50109545 </v>
   <v>       0.24572844       0.25891707       0.49709166 </v>
   <v>       0.50330239       0.24850163       0.49568861 </v>
   <v>       0.74937241       0.24104524       0.50496842 </v>
   <v>       0.98705451       0.51480245       0.50148318 </v>
   <v>       0.24804790       0.50769403       0.49875876 </v>
   <v>       0.50663785       0.50183156       0.49640211 </v>
   <v>       0.74349528       0.50434851       0.50998953 </v>
   <v>       0.99115926       0.75565755       0.50085757 </v>
   <v>       0.24137113       0.74330307       0.50121674 </v>
   <v>       0.50651897       0.74571704       0.50683470 </v>
   <v>       0.76451219       0.73866647       0.49678679 </v>
   <v>       0.00584044       0.99551726       0.74102303 </v>
   <v>       0.24431424       0.99628577       0.75751823 </v>
   <v>       0.50718574       0.00868663       0.74109956 </v>
   <v>       0.75896383       0.99289679       0.74940504 </v>
   <v>       0.00813165       0.23814242       0.75116826 </v>
   <v>       0.24405682       0.24698933       0.76590895 </v>
   <v>       0.48766936       0.25506944       0.75731932 </v>
   <v>       0.74164463       0.25761228       0.75228712 </v>
   <v>       0.00171861       0.49944772       0.73810242 </v>
   <v>       0.25677038       0.49712920       0.74407567 </v>
   <v>       0.49412240       0.50132796       0.74172602 </v>
   <v>       0.74987559       0.50556426       0.75337153 </v>
   <v>       0.00818921       0.75410351       0.74545469 </v>
   <v>       0.25273483       0.75527604       0.74188658 </v>
   <v>       0.48789929       0.76408676       0.74987110 </v>
   <v>       0.74049164       0.74733720       0.75170600 </v>
   <v>       0.06866893       0.06823122       0.05552217 </v>
   <v>       0.32572348       0.05783619       0.06621282 </v>
   <v>       0.55858217       0.06742127       0.05895278 </v>
   <v>       0.80689262       0.06583984       0.05961766 </v>
   <v>       0.05862307       0.31601647       0.05922157 </v>
   <v>       0.31286800       0.30218516       0.07705430 </v>
   <v>       0.56689539       0.31869546       0.05522318 </v>
   <v>       0.81982794       0.30913108       0.05641312 </v>
   <v>       0.06297446       0.56345382       0.06025235 </v>
   <v>       0.31418358       0.56403703       0.07022119 </v>
   <v>       0.55827472       0.56310402       0.05704222 </v>
   <v>       0.80485756       0.56584334       0.06166344 </v>
   <v>       0.05547381       0.82177402       0.05640594 </v>
   <v>       0.32088278       0.80116003       0.07443653 </v>
   <v>       0.56783497       0.80822643       0.06505904 </v>
   <v>       0.81418415       0.80984537       0.06641767 </v>
   <v>       0.06554374       0.06765367       0.30609726 </v>
   <v>       0.31205260       0.06237645       0.31805848 </v>
   <v>       0.56422100       0.06579486       0.30738962 </v>
   <v>       0.81058116       0.06284933       0.30955780 </v>
   <v>       0.05114540       0.31475377       0.31716213 </v>
   <v>       0.30438916       0.32306829       0.30825398 </v>
   <v>       0.55611444       0.31978189       0.32132394 </v>
   <v>       0.81393934       0.31473480       0.31006386 </v>
   <v>       0.06646632       0.55511304       0.31504188 </v>
   <v>       0.31013160       0.55879024       0.30892512 </v>
   <v>       0.57909697       0.56669957       0.29565943 </v>
   <v>       0.81598185       0.56508569       0.30004666 </v>
   <v>       0.05629915       0.81674450       0.31436300 </v>
   <v>       0.31179301       0.81101987       0.30603110 </v>
   <v>       0.57014204       0.81208422       0.30934127 </v>
   <v>       0.80959464       0.80272250       0.31537340 </v>
   <v>       0.04844362       0.06725057       0.56696280 </v>
   <v>       0.32199929       0.06461708       0.54645547 </v>
   <v>       0.55329684       0.06184612       0.56454267 </v>
   <v>       0.81005542       0.06204752       0.56801699 </v>
   <v>       0.05956201       0.29293506       0.57486857 </v>
   <v>       0.30860689       0.31728304       0.56338498 </v>
   <v>       0.55913560       0.30723249       0.57018068 </v>
   <v>       0.80975449       0.31276275       0.56703991 </v>
   <v>       0.06305656       0.56053525       0.56237037 </v>
   <v>       0.32159626       0.56515166       0.56545690 </v>
   <v>       0.56103868       0.57179848       0.56473247 </v>
   <v>       0.81371518       0.55750233       0.56264031 </v>
   <v>       0.06766368       0.80397319       0.56532345 </v>
   <v>       0.32173367       0.80959649       0.56281000 </v>
   <v>       0.57000464       0.79896236       0.56055478 </v>
   <v>       0.81110231       0.80713191       0.57123467 </v>
   <v>       0.06774763       0.06305239       0.79860300 </v>
   <v>       0.30697858       0.06105548       0.81941959 </v>
   <v>       0.56388232       0.05782913       0.81846761 </v>
   <v>       0.81930311       0.05634959       0.81246287 </v>
   <v>       0.05984044       0.32353024       0.81565779 </v>
   <v>       0.31160761       0.31359948       0.80061493 </v>
   <v>       0.56404978       0.31983568       0.81040615 </v>
   <v>       0.81723941       0.31885791       0.80188415 </v>
   <v>       0.05616070       0.57724167       0.80396634 </v>
   <v>       0.30909167       0.57069867       0.81106261 </v>
   <v>       0.55647065       0.56945858       0.80941374 </v>
   <v>       0.80730627       0.56100436       0.82295488 </v>
   <v>       0.06833175       0.80448711       0.81597565 </v>
   <v>       0.30820239       0.82403776       0.81129794 </v>
   <v>       0.56328023       0.80191560       0.82314644 </v>
   <v>       0.83202622       0.81295920       0.80205526 </v>
  </varray>
 </structure>
 <calculation>
  <scstep>
   <time name="dav">   69.55   69.57</time>
   <time name="total">   70.54   70.58</time>
   <energy>
    <i name="alphaZ">    210.77028614 </i>
    <i name="ewald"> -14469.72931188 </i>
    <i name="hartreedc">   -756.63828737 </i>
    <i name="XCdc">  -1195.25544460 </i>
    <i name="pawpsdc">   4221.13331941 </i>
    <i name="pawaedc">  -1969.18571412 </i>
    <i name="eentropy">     -0.00037258 </i>
    <i name="bandstr">   2150.72103689 </i>
    <i name="atom">  13192.48085998 </i>
    <i name="e_fr_energy">   1384.29637189 </i>
    <i name="e_wo_entrp">   1384.29674447 </i>
    <i name="e_0_energy">   1384.29655818 </i>
   </energy>
  </scstep>
  <scstep>
   <time name="dav">   78.89   78.91</time>
   <time name="total">   78.89   78.91</time>
   <energy>
    <i name="e_fr_energy">   -536.63031404 </i>
    <i name="e_wo_entrp">   -536.63031404 </i>
    <i name="e_0_energy">   -536.63031404 </i>
   </energy>
  </scstep>
  <scstep>
   <time name="dav">   80.69   80.97</time>
   <time name="total">   80.69   80.97</time>
   <energy>
    <i name="e_fr_energy">   -686.72305273 </i>
    <i name="e_wo_entrp">   -686.72305273 </i>
    <i name="e_0_energy">   -686.72305273 </i>
   </energy>
  </scstep>
  <scstep>
   <time name="dav">   79.83   79.85</time>
   <time name="total">   79.83   79.85</time>
   <energy>
    <i name="e_fr_energy">   -691.03214609 </i>
    <i name="e_wo_entrp">   -691.03214609 </i>
    <i name="e_0_energy">   -691.03214609 </i>
   </energy>
  </scstep>
  <scstep>
   <time name="dav">   80.72   80.75</time>
   <time name="total">   84.00   84.03</time>
   <energy>
    <i name="e_fr_energy">   -691.18473955 </i>
    <i name="e_wo_entrp">   -691.18473955 </i>
    <i name="e_0_energy">   -691.18473955 </i>
   </energy>
  </scstep>
  <scstep>
   <time name="dav">   76.93   76.95</time>
   <time name="total">   81.21   81.23</time>
   <energy>
    <i name="e_fr_energy">   -682.72344793 </i>
    <i name="e_wo_entrp">   -682.72344793 </i>
    <i name="e_0_energy">   -682.72344793 </i>
   </energy>
  </scstep>
  <scstep>
   <time name="dav">   76.53   76.55</time>
   <time name="total">   80.80   80.82</time>
   <energy>
    <i name="e_fr_energy">   -679.19299802 </i>
    <i name="e_wo_entrp">   -679.19299802 </i>
    <i name="e_0_energy">   -679.19299802 </i>
   </energy>
  </scstep>
  <scstep>
   <time name="dav">   76.07   76.08</time>
   <time name="total">   80.31   80.33</time>
   <energy>
    <i name="e_fr_energy">   -679.24748084 </i>
    <i name="e_wo_entrp">   -679.24748084 </i>
    <i name="e_0_energy">   -679.24748084 </i>
   </energy>
  </scstep>
  <scstep>
   <time name="dav">   78.68   78.71</time>
   <time name="total">   82.92   82.95</time>
   <energy>
    <i name="e_fr_energy">   -679.26984158 </i>
    <i name="e_wo_entrp">   -679.26984158 </i>
    <i name="e_0_energy">   -679.26984158 </i>
   </energy>
  </scstep>
  <scstep>
   <time name="dav">   77.75   77.76</time>
   <time name="total">   81.95   81.97</time>
   <energy>
    <i name="e_fr_energy">   -679.27237323 </i>
    <i name="e_wo_entrp">   -679.27237323 </i>
    <i name="e_0_energy">   -679.27237323 </i>
   </energy>
  </scstep>
  <scstep>
   <time name="dav">   75.80   75.82</time>
   <time name="total">   80.00   80.02</time>
   <energy>
    <i name="e_fr_energy">   -679.27384246 </i>
    <i name="e_wo_entrp">   -679.27384246 </i>
    <i name="e_0_energy">   -679.27384246 </i>
   </energy>
  </scstep>
  <scstep>
   <time name="dav">   79.40   79.42</time>
   <time name="total">   83.59   83.62</time>
   <energy>
    <i name="e_fr_energy">   -679.27390653 </i>
    <i name="e_wo_entrp">   -679.27390653 </i>
    <i name="e_0_energy">   -679.27390653 </i>
   </energy>
  </scstep>
  <scstep>
   <time name="dav">   74.79   74.80</time>
   <time name="total">   78.99   79.01</time>
   <energy>
    <i name="e_fr_energy">   -679.27393421 </i>
    <i name="e_wo_entrp">   -679.27393421 </i>
    <i name="e_0_energy">   -679.27393421 </i>
   </energy>
  </scstep>
  <scstep>
   <time name="dav">   79.32   79.34</time>
   <time name="total">   83.52   83.54</time>
   <energy>
    <i name="e_fr_energy">   -679.27393775 </i>
    <i name="e_wo_entrp">   -679.27393775 </i>
    <i name="e_0_energy">   -679.27393775 </i>
   </energy>
  </scstep>
  <scstep>
   <time name="dav">   78.01   78.03</time>
   <time name="total">   82.21   82.24</time>
   <energy>
    <i name="e_fr_energy">   -679.27394144 </i>
    <i name="e_wo_entrp">   -679.27394144 </i>
    <i name="e_0_energy">   -679.27394144 </i>
   </energy>
  </scstep>
  <scstep>
   <time name="dav">   78.50   78.53</time>
   <time name="total">   82.65   82.68</time>
   <energy>
    <i name="e_fr_energy">   -679.27394101 </i>
    <i name="e_wo_entrp">   -679.27394101 </i>
    <i name="e_0_energy">   -679.27394101 </i>
   </energy>
  </scstep>
  <scstep>
   <time name="dav">   55.75   55.77</time>
   <time name="total">   59.89   59.92</time>
   <energy>
    <i name="e_fr_energy">   -679.27394085 </i>
    <i name="e_wo_entrp">   -679.27394085 </i>
    <i name="e_0_energy">   -679.27394085 </i>
   </energy>
  </scstep>
  <scstep>
   <time name="dav">   51.59   51.60</time>
   <time name="total">   55.74   55.76</time>
   <energy>
    <i name="e_fr_energy">   -679.27394096 </i>
    <i name="e_wo_entrp">   -679.27394096 </i>
    <i name="e_0_energy">   -679.27394096 </i>
   </energy>
  </scstep>
  <scstep>
   <time name="dav">   50.73   50.75</time>
   <time name="total">   54.89   54.91</time>
   <energy>
    <i name="e_fr_energy">   -679.27394093 </i>
    <i name="e_wo_entrp">   -679.27394093 </i>
    <i name="e_0_energy">   -679.27394093 </i>
   </energy>
  </scstep>
  <scstep>
   <time name="dav">   50.13   50.14</time>
   <time name="total">   54.27   54.29</time>
   <energy>
    <i name="e_fr_energy">   -679.27394095 </i>
    <i name="e_wo_entrp">   -679.27394095 </i>
    <i name="e_0_energy">   -679.27394095 </i>
   </energy>
  </scstep>
  <scstep>
   <time name="dav">   49.94   49.96</time>
   <time name="total">   50.93   50.96</time>
   <energy>
    <i name="alphaZ">    210.77028614 </i>
    <i name="ewald"> -14469.72931188 </i>
    <i name="hartreedc">  -1002.53806031 </i>
    <i name="XCdc">  -1155.66785241 </i>
    <i name="pawpsdc">   4732.60367388 </i>
    <i name="pawaedc">  -2494.37930393 </i>
    <i name="eentropy">     -0.00000000 </i>
    <i name="bandstr">    307.18576757 </i>
    <i name="atom">  13192.48085998 </i>
    <i name="e_fr_energy">   -679.27394095 </i>
    <i name="e_wo_entrp">   -679.27394095 </i>
    <i name="e_0_energy">   -679.27394095 </i>
   </energy>
  </scstep>
  <structure>
   <crystal>
    <varray name="basis" >
     <v>       0.00000000      10.93733369      10.93733369 </v>
     <v>      10.93733369       0.00000000      10.93733369 </v>
     <v>      10.93733369      10.93733369       0.00000000 </v>
    </varray>
    <i name="volume">   2616.76295363 </i>
    <varray name="rec_basis" >
     <v>      -0.04571498       0.04571498       0.04571498 </v>
     <v>       0.04571498      -0.04571498       0.04571498 </v>
     <v>       0.04571498       0.04571498      -0.04571498 </v>
    </varray>
   </crystal>
   <varray name="positions" >
    <v>       0.00355387       0.00603443       0.99470931 </v>
    <v>       0.24698414       0.98903564       0.01005360 </v>
    <v>       0.49919904       0.99235756       0.00717030 </v>
    <v>       0.75357548       0.00623395       0.99957648 </v>
    <v>       0.00784625       0.24721205       0.99751172 </v>
    <v>       0.23864803       0.24937627       0.00065199 </v>
    <v>       0.49583590       0.25019191       0.00484532 </v>
    <v>       0.75003300       0.26172555       0.98352245 </v>
    <v>       0.99060621       0.50650753       0.00182603 </v>
    <v>       0.24585454       0.50576272       0.00089960 </v>
    <v>       0.49324086       0.50835150       0.99254865 </v>
    <v>       0.74057134       0.50112296       0.00869273 </v>
    <v>       0.00057725       0.74228724       0.99524769 </v>
    <v>       0.24425076       0.75514147       0.00267590 </v>
    <v>       0.50693036       0.74759614       0.99168042 </v>
    <v>       0.74319519       0.75739273       0.00173602 </v>
    <v>       0.01302321       0.00379308       0.23420582 </v>
    <v>       0.25937060       0.99484590       0.25310127 </v>
    <v>       0.49767360       0.00779963       0.24447146 </v>
    <v>       0.74304819       0.99282263       0.26537608 </v>
    <v>       0.99509231       0.26071808       0.24052029 </v>
    <v>       0.24921776       0.23425410       0.26775614 </v>
    <v>       0.50342202       0.24431687       0.24076740 </v>
    <v>       0.75399801       0.24486036       0.25027308 </v>
    <v>       0.00178324       0.49937884       0.24852927 </v>
    <v>       0.25135519       0.49592055       0.24729775 </v>
    <v>       0.51074819       0.49406641       0.24353474 </v>
    <v>       0.75402484       0.48820329       0.25565923 </v>
    <v>       0.98998228       0.74536385       0.26160101 </v>
    <v>       0.24610553       0.74939460       0.25556977 </v>
    <v>       0.50159986       0.75195828       0.24233522 </v>
    <v>       0.75163449       0.74778197       0.25102265 </v>
    <v>       0.99298115       0.01125008       0.49837317 </v>
    <v>       0.24937140       0.99591334       0.50935152 </v>
    <v>       0.50211972       0.99279018       0.50860357 </v>
    <v>       0.75470542       0.99343309       0.49667600 </v>
    <v>       0.99964400       0.25332452       0.50109545 </v>
    <v>       0.24572844       0.25891707       0.49709166 </v>
    <v>       0.50330239       0.24850163       0.49568861 </v>
    <v>       0.74937241       0.24104524       0.50496842 </v>
    <v>       0.98705451       0.51480245       0.50148318 </v>
    <v>       0.24804790       0.50769403       0.49875876 </v>
    <v>       0.50663785       0.50183156       0.49640211 </v>
    <v>       0.74349528       0.50434851       0.50998953 </v>
    <v>       0.99115926       0.75565755       0.50085757 </v>
    <v>       0.24137113       0.74330307       0.50121674 </v>
    <v>       0.50651897       0.74571704       0.50683470 </v>
    <v>       0.76451219       0.73866647       0.49678679 </v>
    <v>       0.00584044       0.99551726       0.74102303 </v>
    <v>       0.24431424       0.99628577       0.75751823 </v>
    <v>       0.50718574       0.00868663       0.74109956 </v>
    <v>       0.75896383       0.99289679       0.74940504 </v>
    <v>       0.00813165       0.23814242       0.75116826 </v>
    <v>       0.24405682       0.24698933       0.76590895 </v>
    <v>       0.48766936       0.25506944       0.75731932 </v>
    <v>       0.74164463       0.25761228       0.75228712 </v>
    <v>       0.00171861       0.49944772       0.73810242 </v>
    <v>       0.25677038       0.49712920       0.74407567 </v>
    <v>       0.49412240       0.50132796       0.74172602 </v>
    <v>       0.74987559       0.50556426       0.75337153 </v>
    <v>       0.00818921       0.75410351       0.74545469 </v>
    <v>       0.25273483       0.75527604       0.74188658 </v>
    <v>       0.48789929       0.76408676       0.74987110 </v>
    <v>       0.74049164       0.74733720       0.75170600 </v>
    <v>       0.06866893       0.06823122       0.05552217 </v>
    <v>       0.32572348       0.05783619       0.06621282 </v>
    <v>       0.55858217       0.06742127       0.05895278 </v>
    <v>       0.80689262       0.06583984       0.05961766 </v>
    <v>       0.05862307       0.31601647       0.05922157 </v>
    <v>       0.31286800       0.30218516       0.07705430 </v>
    <v>       0.56689539       0.31869546       0.05522318 </v>
    <v>       0.81982794       0.30913108       0.05641312 </v>
    <v>       0.06297446       0.56345382       0.06025235 </v>
    <v>       0.31418358       0.56403703       0.07022119 </v>
    <v>       0.55827472       0.56310402       0.05704222 </v>
    <v>       0.80485756       0.56584334       0.06166344 </v>
    <v>       0.05547381       0.82177402       0.05640594 </v>
    <v>       0.32088278       0.80116003       0.07443653 </v>
    <v>       0.56783497       0.80822643       0.06505904 </v>
    <v>       0.81418415       0.80984537       0.06641767 </v>
    <v>       0.06554374       0.06765367       0.30609726 </v>
    <v>       0.31205260       0.06237645       0.31805848 </v>
    <v>       0.56422100       0.06579486       0.30738962 </v>
    <v>       0.81058116       0.06284933       0.30955780 </v>
    <v>       0.05114540       0.31475377       0.31716213 </v>
    <v>       0.30438916       0.32306829       0.30825398 </v>
    <v>       0.55611444       0.31978189       0.32132394 </v>
    <v>       0.81393934       0.31473480       0.31006386 </v>
    <v>       0.06646632       0.55511304       0.31504188 </v>
    <v>       0.31013160       0.55879024       0.30892512 </v>
    <v>       0.57909697       0.56669957       0.29565943 </v>
    <v>       0.81598185       0.56508569       0.30004666 </v>
    <v>       0.05629915       0.81674450       0.31436300 </v>
    <v>       0.31179301       0.81101987       0.30603110 </v>
    <v>       0.57014204       0.81208422       0.30934127 </v>
    <v>       0.80959464       0.80272250       0.31537340 </v>
    <v>       0.04844362       0.06725057       0.56696280 </v>
    <v>       0.32199929       0.06461708       0.54645547 </v>
    <v>       0.55329684       0.06184612       0.56454267 </v>
    <v>       0.81005542       0.06204752       0.56801699 </v>
    <v>       0.05956201       0.29293506       0.57486857 </v>
    <v>       0.30860689       0.31728304       0.56338498 </v>
    <v>       0.55913560       0.30723249       0.57018068 </v>
    <v>       0.80975449       0.31276275       0.56703991 </v>
    <v>       0.06305656       0.56053525       0.56237037 </v>
    <v>       0.32159626       0.56515166       0.56545690 </v>
    <v>       0.56103868       0.57179848       0.56473247 </v>
    <v>       0.81371518       0.55750233       0.56264031 </v>
    <v>       0.06766368       0.80397319       0.56532345 </v>
    <v>       0.32173367       0.80959649       0.56281000 </v>
    <v>       0.57000464       0.79896236       0.56055478 </v>
    <v>       0.81110231       0.80713191       0.57123467 </v>
    <v>       0.06774763       0.06305239       0.79860300 </v>
    <v>       0.30697858       0.06105548       0.81941959 </v>
    <v>       0.56388232       0.05782913       0.81846761 </v>
    <v>       0.81930311       0.05634959       0.81246287 </v>
    <v>       0.05984044       0.32353024       0.81565779 </v>
    <v>       0.31160761       0.31359948       0.80061493 </v>
    <v>       0.56404978       0.31983568       0.81040615 </v>
    <v>       0.81723941       0.31885791       0.80188415 </v>
    <v>       0.05616070       0.57724167       0.80396634 </v>
    <v>       0.30909167       0.57069867       0.81106261 </v>
    <v>       0.55647065       0.56945858       0.80941374 </v>
    <v>       0.80730627       0.56100436       0.82295488 </v>
    <v>       0.06833175       0.80448711       0.81597565 </v>
    <v>       0.30820239       0.82403776       0.81129794 </v>
    <v>       0.56328023       0.80191560       0.82314644 </v>
    <v>       0.83202622       0.81295920       0.80205526 </v>
   </varray>
  </structure>
  <varray name="forces" >
   <v>      -0.04750462      -1.16661446      -0.36963671 </v>
   <v>      -0.35139621       1.19926336       1.81716545 </v>
   <v>      -1.02236597       0.39821242       1.50332032 </v>
   <v>      -1.50894813      -1.01796014      -1.95730841 </v>
   <v>       0.92358790      -1.06751557      -0.09204439 </v>
   <v>      -0.58405013       1.61110653       1.79166613 </v>
   <v>      -0.16914715      -0.37655862       1.13041221 </v>
   <v>       0.01742677       1.49570423      -0.57783134 </v>
   <v>      -1.05040754      -0.32315004       0.58009339 </v>
   <v>      -0.67152220       1.38389036       0.06879877 </v>
   <v>      -0.58352647       0.92933908      -0.16380267 </v>
   <v>      -1.23964805       0.36285281       0.02283232 </v>
   <v>       1.86260633       0.34637690       0.61313077 </v>
   <v>      -0.03124147       0.65425941       0.18105349 </v>
   <v>       2.53343322       2.09944043      -1.41240266 </v>
   <v>      -1.60367357       1.09138262       1.36313371 </v>
   <v>       1.56411706       0.13407744      -1.65189158 </v>
   <v>       0.49106416      -0.98007157      -0.10737219 </v>
   <v>      -0.31294622       0.97521726      -0.33163451 </v>
   <v>      -1.66487589      -0.79985766       1.02464939 </v>
   <v>      -0.16590745       1.41890429      -0.45102640 </v>
   <v>       1.60098035      -2.58382565       1.36520458 </v>
   <v>       2.37894590      -0.14426173       1.04329012 </v>
   <v>       0.77409582      -1.17362647       0.21399981 </v>
   <v>       0.15901626      -0.08486721       0.19153653 </v>
   <v>       1.45800480      -0.57110857       0.46760225 </v>
   <v>       1.84139082      -1.23402557       0.50372622 </v>
   <v>       0.13977883      -1.19218711       2.15610441 </v>
   <v>      -1.33361455      -0.10594045       1.58073409 </v>
   <v>      -0.84144098      -0.29684917      -1.20077679 </v>
   <v>       0.95702024       1.28164463      -0.39441299 </v>
   <v>      -0.90071275      -0.59679774      -0.23400470 </v>
   <v>      -1.84752730       0.40244888      -0.55523287 </v>
   <v>      -0.40811916      -1.20511810      -0.35293703 </v>
   <v>      -2.01868589      -1.20876784      -0.25363918 </v>
   <v>       1.24262494      -0.22211786      -0.20408519 </v>
   <v>      -0.31703550      -1.03708149      -1.51255552 </v>
   <v>      -0.50645590       0.41487073      -0.32577060 </v>
   <v>       1.70671154       0.45399969      -1.23270785 </v>
   <v>       1.02078794      -0.73678257       1.24072970 </v>
   <v>      -2.62302322       1.91070778      -0.04942067 </v>
   <v>      -0.52385075       0.76377190       0.17016048 </v>
   <v>      -0.64655985      -0.04130556       0.49952068 </v>
   <v>      -2.33674677      -0.92948831      -0.07672253 </v>
   <v>      -0.44893668       1.48893741       0.22936595 </v>
   <v>      -0.38209157       1.25835088       2.88568844 </v>
   <v>      -0.83489859      -2.92955493       0.09196006 </v>
   <v>       1.33351057      -0.53785114      -0.57749126 </v>
   <v>       1.21669495       1.10942507      -1.12077132 </v>
   <v>       0.01498620      -1.23880273       2.97348853 </v>
   <v>       0.69656015       0.80708909      -2.44355720 </v>
   <v>       1.34282850      -0.44836291      -0.20992612 </v>
   <v>       2.32900197      -0.25262083       0.60194350 </v>
   <v>      -2.20877105      -2.16455385      -0.57867979 </v>
   <v>      -1.28268954       1.80616874       0.92768701 </v>
   <v>      -1.56155999       1.31828035       0.31155082 </v>
   <v>       2.93424543       0.32012857      -0.09517503 </v>
   <v>       1.92386652      -0.27641378      -0.54441452 </v>
   <v>       1.66374955       1.20092927       0.36763631 </v>
   <v>      -0.33370701      -0.74962371      -0.45105953 </v>
   <v>      -0.30051868       0.20182637       0.43587316 </v>
   <v>       0.80604640       1.01551529      -0.16379487 </v>
   <v>      -1.50516879       1.15262402       0.23909650 </v>
   <v>       0.09028766       2.09043056       1.18436573 </v>
   <v>      -0.90947994      -0.32618009      -0.74267426 </v>
   <v>       0.88330409      -2.51071794      -1.90104406 </v>
   <v>      -0.67811103       0.82117479       0.34821758 </v>
   <v>       1.62516805       1.81223896       1.50721831 </v>
   <v>       0.65400717      -0.46533280       0.43235927 </v>
   <v>       0.28585652      -1.85584416      -0.21282512 </v>
   <v>       0.15607366      -0.53439902      -0.51889932 </v>
   <v>       0.64133884      -0.17125325      -0.51767505 </v>
   <v>      -0.29363993       0.44915294      -0.84084118 </v>
   <v>      -0.49299035      -2.43941643      -0.02179578 </v>
   <v>       0.09317164       0.38509274      -0.22861712 </v>
   <v>       0.83581416       0.65840092       0.15338195 </v>
   <v>      -0.03737356       1.04415365      -0.98105519 </v>
   <v>      -0.43407594      -1.88498662      -0.01897502 </v>
   <v>      -0.29806133      -1.89274606      -0.48923819 </v>
   <v>       0.20559174      -0.90539715       0.54584417 </v>
   <v>       0.17303364       0.14544291       0.11299144 </v>
   <v>      -0.99427981       1.65483409      -1.55253001 </v>
   <v>       0.43123030       0.71454367      -1.55329968 </v>
   <v>      -0.55401362       1.38195870       0.56127237 </v>
   <v>      -1.03971707       0.60717546       0.71989936 </v>
   <v>      -1.83190555       2.14430891      -1.15742248 </v>
   <v>      -3.46640376      -0.30846902      -0.09271260 </v>
   <v>      -0.85866005       1.01855481      -2.18293812 </v>
   <v>       0.73996544      -0.66651366      -0.09843731 </v>
   <v>       0.59935926       1.21181296       0.91878341 </v>
   <v>       1.20064010      -0.49715826      -2.19914123 </v>
   <v>       1.00413730       1.39604214      -0.91534882 </v>
   <v>      -0.42460791      -0.26224094       0.12256439 </v>
   <v>       0.89856430       1.51638774       0.04168165 </v>
   <v>       0.85741862      -0.96053297      -0.85525606 </v>
   <v>       1.20640964       0.20245345       0.87090257 </v>
   <v>      -1.32808282       0.16492738       1.88778367 </v>
   <v>       2.08140984       0.65436764      -0.52115971 </v>
   <v>      -0.63358145       0.77962524       2.11985441 </v>
   <v>      -1.24208969      -0.46201915      -0.64271162 </v>
   <v>       0.98611704      -0.55491352       3.11414454 </v>
   <v>       0.20476552       0.60455935      -0.23362358 </v>
   <v>      -0.06538217      -0.30064721       0.56657431 </v>
   <v>      -0.15066834      -0.52390452      -0.03511447 </v>
   <v>      -0.11256945      -1.32913604       1.19313151 </v>
   <v>      -1.31562926      -1.05391934      -0.55245648 </v>
   <v>      -1.92983658       0.00936589      -1.10525477 </v>
   <v>       1.75695965       0.35580031      -0.37927075 </v>
   <v>       1.33401675      -2.45888506       0.08708335 </v>
   <v>      -0.61472381      -1.64009997      -0.49457153 </v>
   <v>       2.26270360       1.59885272       2.18038067 </v>
   <v>      -0.37786771      -1.28155206      -0.03698900 </v>
   <v>       0.49687515       0.91146395      -1.89450985 </v>
   <v>      -0.44284116       0.76075604       0.21008348 </v>
   <v>       0.22018699      -0.15988502       0.81034482 </v>
   <v>       0.87569026      -0.59011978       0.39008439 </v>
   <v>      -1.83654599       0.16900966      -1.06167717 </v>
   <v>       2.56905809       1.57225699       0.08960502 </v>
   <v>       0.48837856      -0.69777067      -2.01956652 </v>
   <v>      -0.27718885       0.02066137      -0.02507401 </v>
   <v>      -1.63546299       1.56476418      -1.32789835 </v>
   <v>      -0.61846620       0.27197380      -0.78296708 </v>
   <v>      -0.52717241      -0.73855695       0.17520465 </v>
   <v>      -0.61140736       0.09895619       0.84257706 </v>
   <v>      -0.00808739      -0.84089911       1.12188937 </v>
   <v>      -0.90451728       0.78531055      -2.17748904 </v>
   <v>      -0.49095357      -3.50581223       2.04842467 </v>
   <v>       0.81505325      -1.07058414      -2.88665626 </v>
  </varray>
  <varray name="stress" >
   <v>      11.87691323      -4.22514580      -2.02605975 </v>
   <v>      -4.22514580      13.78917994      -0.97690090 </v>
   <v>      -2.02605976      -0.97690089      13.95956938 </v>
  </varray>
  <energy>
   <i name="e_fr_energy">   -679.27394095 </i>
   <i name="e_wo_entrp">   -679.27394095 </i>
   <i name="e_0_energy">     -0.00000000 </i>
  </energy>
  <time name="totalsc"> 1684.33 1685.10</time>
  <eigenvalues>
   <array>
    <dimension dim="1">band</dimension>
    <dimension dim="2">kpoint</dimension>
    <dimension dim="3">spin</dimension>
    <field>eigene</field>
    <field>occ</field>
    <set>
     <set comment="spin 1">
      <set comment="kpoint 1">
       <r>   -6.2977    1.0000 </r>
       <r>   -5.6652    1.0000 </r>
       <r>   -5.6568    1.0000 </r>
       <r>   -5.5803    1.0000 </r>
       <r>   -5.5545    1.0000 </r>
       <r>   -5.5270    1.0000 </r>
       <r>   -5.4710    1.0000 </r>
       <r>   -5.4430    1.0000 </r>
       <r>   -5.4296    1.0000 </r>
       <r>   -5.3740    1.0000 </r>
       <r>   -5.2796    1.0000 </r>
       <r>   -5.2366    1.0000 </r>
       <r>   -5.1369    1.0000 </r>
       <r>   -5.1243    1.0000 </r>
       <r>   -5.0872    1.0000 </r>
       <r>   -4.6026    1.0000 </r>
       <r>   -4.5424    1.0000 </r>
       <r>   -4.4546    1.0000 </r>
       <r>   -4.3926    1.0000 </r>
       <r>   -4.3311    1.0000 </r>
       <r>   -4.3195    1.0000 </r>
       <r>   -4.2859    1.0000 </r>
       <r>   -4.2624    1.0000 </r>
       <r>   -4.2160    1.0000 </r>
       <r>   -4.1722    1.0000 </r>
       <r>   -4.1563    1.0000 </r>
       <r>   -4.1286    1.0000 </r>
       <r>   -4.0546    1.0000 </r>
       <r>   -4.0330    1.0000 </r>
       <r>   -3.9510    1.0000 </r>
       <r>   -3.9398    1.0000 </r>
       <r>   -3.9127    1.0000 </r>
       <r>   -3.8337    1.0000 </r>
       <r>   -3.8227    1.0000 </r>
       <r>   -3.7865    1.0000 </r>
       <r>   -3.7592    1.0000 </r>
       <r>   -3.7254    1.0000 </r>
       <r>   -3.6962    1.0000 </r>
       <r>   -3.6450    1.0000 </r>
       <r>   -3.6278    1.0000 </r>
       <r>   -3.5916    1.0000 </r>
       <r>   -3.5640    1.0000 </r>
       <r>   -3.5521    1.0000 </r>
       <r>   -3.5273    1.0000 </r>
       <r>   -3.4920    1.0000 </r>
       <r>   -3.4654    1.0000 </r>
       <r>   -3.4561    1.0000 </r>
       <r>   -3.4347    1.0000 </r>
       <r>   -3.4260    1.0000 </r>
       <r>   -3.3969    1.0000 </r>
       <r>   -3.3700    1.0000 </r>
       <r>   -3.3492    1.0000 </r>
       <r>   -3.2983    1.0000 </r>
       <r>   -3.2820    1.0000 </r>
       <r>   -3.2232    1.0000 </r>
       <r>   -2.3511    1.0000 </r>
       <r>   -2.3145    1.0000 </r>
       <r>   -2.3137    1.0000 </r>
       <r>   -2.2572    1.0000 </r>
       <r>   -2.1831    1.0000 </r>
       <r>   -2.1733    1.0000 </r>
       <r>   -2.1249    1.0000 </r>
       <r>   -2.1014    1.0000 </r>
       <r>   -2.0789    1.0000 </r>
       <r>   -2.0547    1.0000 </r>
       <r>   -2.0272    1.0000 </r>
       <r>   -2.0077    1.0000 </r>
       <r>   -1.9503    1.0000 </r>
       <r>   -1.9232    1.0000 </r>
       <r>   -1.9082    1.0000 </r>
       <r>   -1.8490    1.0000 </r>
       <r>   -1.8121    1.0000 </r>
       <r>   -1.7975    1.0000 </r>
       <r>   -1.4021    1.0000 </r>
       <r>   -1.3119    1.0000 </r>
       <r>   -1.2582    1.0000 </r>
       <r>   -1.1689    1.0000 </r>
       <r>   -1.0248    1.0000 </r>
       <r>   -1.0038    1.0000 </r>
       <r>   -0.9435    1.0000 </r>
       <r>   -0.9176    1.0000 </r>
       <r>   -0.9017    1.0000 </r>
       <r>   -0.8656    1.0000 </r>
       <r>   -0.8454    1.0000 </r>
       <r>   -0.8296    1.0000 </r>
       <r>   -0.8091    1.0000 </r>
       <r>   -0.7787    1.0000 </r>
       <r>   -0.7628    1.0000 </r>
       <r>   -0.7461    1.0000 </r>
       <r>   -0.7254    1.0000 </r>
       <r>   -0.6998    1.0000 </r>
       <r>   -0.6811    1.0000 </r>
       <r>   -0.6723    1.0000 </r>
       <r>   -0.6275    1.0000 </r>
       <r>   -0.5790    1.0000 </r>
       <r>   -0.5605    1.0000 </r>
       <r>   -0.5224    1.0000 </r>
       <r>   -0.4990    1.0000 </r>
       <r>   -0.4743    1.0000 </r>
       <r>   -0.3876    1.0000 </r>
       <r>   -0.3693    1.0000 </r>
       <r>   -0.0340    1.0000 </r>
       <r>    0.0153    1.0000 </r>
       <r>    0.0336    1.0000 </r>
       <r>    0.0884    1.0000 </r>
       <r>    0.1661    1.0000 </r>
       <r>    0.1810    1.0000 </r>
       <r>    0.1962    1.0000 </r>
       <r>    0.2428    1.0000 </r>
       <r>    0.2545    1.0000 </r>
       <r>    0.2674    1.0000 </r>
       <r>    0.3220    1.0000 </r>
       <r>    0.3713    1.0000 </r>
       <r>    1.4239    1.0000 </r>
       <r>    1.4566    1.0000 </r>
       <r>    1.4876    1.0000 </r>
       <r>    1.5063    1.0000 </r>
       <r>    1.5261    1.0000 </r>
       <r>    1.5740    1.0000 </r>
       <r>    1.5890    1.0000 </r>
       <r>    1.6131    1.0000 </r>
       <r>    1.6350    1.0000 </r>
       <r>    1.6449    1.0000 </r>
       <r>    1.6797    1.0000 </r>
       <r>    1.7023    1.0000 </r>
       <r>    1.7069    1.0000 </r>
       <r>    1.7198    1.0000 </r>
       <r>    1.7416    1.0000 </r>
       <r>    1.7533    1.0000 </r>
       <r>    1.7634    1.0000 </r>
       <r>    1.7864    1.0000 </r>
       <r>    1.7906    1.0000 </r>
       <r>    1.8051    1.0000 </r>
       <r>    1.8343    1.0000 </r>
       <r>    1.8454    1.0000 </r>
       <r>    1.8543    1.0000 </r>
       <r>    1.8728    1.0000 </r>
       <r>    1.8867    1.0000 </r>
       <r>    1.9084    1.0000 </r>
       <r>    1.9255    1.0000 </r>
       <r>    1.9398    1.0000 </r>
       <r>    1.9474    1.0000 </r>
       <r>    1.9597    1.0000 </r>
       <r>    1.9707    1.0000 </r>
       <r>    1.9765    1.0000 </r>
       <r>    1.9933    1.0000 </r>
       <r>    2.0045    1.0000 </r>
       <r>    2.0238    1.0000 </r>
       <r>    2.0370    1.0000 </r>
       <r>    2.0439    1.0000 </r>
       <r>    2.0537    1.0000 </r>
       <r>    2.0662    1.0000 </r>
       <r>    2.0813    1.0000 </r>
       <r>    2.0983    1.0000 </r>
       <r>    2.1173    1.0000 </r>
       <r>    2.1379    1.0000 </r>
       <r>    2.1456    1.0000 </r>
       <r>    2.1702    1.0000 </r>
       <r>    2.1776    1.0000 </r>
       <r>    2.2092    1.0000 </r>
       <r>    2.2208    1.0000 </r>
       <r>    2.2531    1.0000 </r>
       <r>    2.2548    1.0000 </r>
       <r>    2.2692    1.0000 </r>
       <r>    2.2869    1.0000 </r>
       <r>    2.2917    1.0000 </r>
       <r>    2.3303    1.0000 </r>
       <r>    2.3444    1.0000 </r>
       <r>    2.3586    1.0000 </r>
       <r>    2.3715    1.0000 </r>
       <r>    2.4136    1.0000 </r>
       <r>    2.4274    1.0000 </r>
       <r>    2.4304    1.0000 </r>
       <r>    2.4816    1.0000 </r>
       <r>    2.5351    1.0000 </r>
       <r>    2.7413    1.0000 </r>
       <r>    2.7722    1.0000 </r>
       <r>    2.7791    1.0000 </r>
       <r>    2.8352    1.0000 </r>
       <r>    2.8550    1.0000 </r>
       <r>    2.8763    1.0000 </r>
       <r>    3.1765    1.0000 </r>
       <r>    3.2199    1.0000 </r>
       <r>    3.2531    1.0000 </r>
       <r>    3.2588    1.0000 </r>
       <r>    3.2759    1.0000 </r>
       <r>    3.2856    1.0000 </r>
       <r>    3.2973    1.0000 </r>
       <r>    3.3620    1.0000 </r>
       <r>    3.3761    1.0000 </r>
       <r>    3.3843    1.0000 </r>
       <r>    3.3934    1.0000 </r>
       <r>    3.4043    1.0000 </r>
       <r>    3.4378    1.0000 </r>
       <r>    3.4583    1.0000 </r>
       <r>    3.4621    1.0000 </r>
       <r>    3.4816    1.0000 </r>
       <r>    3.4998    1.0000 </r>
       <r>    3.5094    1.0000 </r>
       <r>    3.5257    1.0000 </r>
       <r>    3.5587    1.0000 </r>
       <r>    3.5658    1.0000 </r>
       <r>    3.5707    1.0000 </r>
       <r>    3.6130    1.0000 </r>
       <r>    3.6285    1.0000 </r>
       <r>    3.6401    1.0000 </r>
       <r>    3.6851    1.0000 </r>
       <r>    3.7083    1.0000 </r>
       <r>    3.7283    1.0000 </r>
       <r>    3.7412    1.0000 </r>
       <r>    3.7722    1.0000 </r>
       <r>    3.8630    1.0000 </r>
       <r>    3.8811    1.0000 </r>
       <r>    3.9022    1.0000 </r>
       <r>    3.9255    1.0000 </r>
       <r>    3.9438    1.0000 </r>
       <r>    3.9812    1.0000 </r>
       <r>    4.0897    1.0000 </r>
       <r>    4.1286    1.0000 </r>
       <r>    4.1834    1.0000 </r>
       <r>    4.2121    1.0000 </r>
       <r>    4.2331    1.0000 </r>
       <r>    4.2844    1.0000 </r>
       <r>    4.2939    1.0000 </r>
       <r>    4.3159    1.0000 </r>
       <r>    4.3449    1.0000 </r>
       <r>    4.3793    1.0000 </r>
       <r>    4.3880    1.0000 </r>
       <r>    4.4247    1.0000 </r>
       <r>    4.4615    1.0000 </r>
       <r>    4.4716    1.0000 </r>
       <r>    4.5204    1.0000 </r>
       <r>    4.5366    1.0000 </r>
       <r>    4.5455    1.0000 </r>
       <r>    4.5837    1.0000 </r>
       <r>    4.6152    1.0000 </r>
       <r>    4.6713    1.0000 </r>
       <r>    4.7287    1.0000 </r>
       <r>    4.7741    1.0000 </r>
       <r>    4.8168    1.0000 </r>
       <r>    4.8394    1.0000 </r>
       <r>    4.8603    1.0000 </r>
       <r>    4.8865    1.0000 </r>
       <r>    4.9249    1.0000 </r>
       <r>    4.9286    1.0000 </r>
       <r>    4.9837    1.0000 </r>
       <r>    5.0135    1.0000 </r>
       <r>    5.0585    1.0000 </r>
       <r>    5.1403    1.0000 </r>
       <r>    5.1804    1.0000 </r>
       <r>    5.1842    1.0000 </r>
       <r>    5.2270    1.0000 </r>
       <r>    5.2957    1.0000 </r>
       <r>    5.6869    1.0000 </r>
       <r>    5.7606    1.0000 </r>
       <r>    5.8140    1.0000 </r>
       <r>    6.1034    0.0000 </r>
       <r>    6.1735    0.0000 </r>
       <r>    6.2077    0.0000 </r>
       <r>    6.2580    0.0000 </r>
       <r>    6.3784    0.0000 </r>
       <r>    6.4194    0.0000 </r>
       <r>    6.5292    0.0000 </r>
       <r>    6.5540    0.0000 </r>
       <r>    6.5935    0.0000 </r>
       <r>    6.6344    0.0000 </r>
       <r>    6.6784    0.0000 </r>
       <r>    6.7687    0.0000 </r>
       <r>    6.7791    0.0000 </r>
       <r>    6.8395    0.0000 </r>
       <r>    6.8567    0.0000 </r>
       <r>    6.8779    0.0000 </r>
       <r>    6.8914    0.0000 </r>
       <r>    6.8988    0.0000 </r>
       <r>    6.9293    0.0000 </r>
       <r>    6.9477    0.0000 </r>
       <r>    6.9540    0.0000 </r>
       <r>    6.9826    0.0000 </r>
       <r>    6.9921    0.0000 </r>
       <r>    7.0117    0.0000 </r>
       <r>    7.0290    0.0000 </r>
       <r>    7.0482    0.0000 </r>
       <r>    7.0730    0.0000 </r>
       <r>    7.0770    0.0000 </r>
       <r>    7.0973    0.0000 </r>
       <r>    7.1131    0.0000 </r>
       <r>    7.1535    0.0000 </r>
       <r>    7.1753    0.0000 </r>
       <r>    7.1795    0.0000 </r>
       <r>    7.1886    0.0000 </r>
       <r>    7.2316    0.0000 </r>
       <r>    7.2568    0.0000 </r>
       <r>    7.3012    0.0000 </r>
       <r>    7.3248    0.0000 </r>
       <r>    7.3541    0.0000 </r>
       <r>    7.3664    0.0000 </r>
       <r>    7.4582    0.0000 </r>
       <r>    7.4913    0.0000 </r>
       <r>    7.5140    0.0000 </r>
       <r>    7.5351    0.0000 </r>
       <r>    7.5389    0.0000 </r>
       <r>    7.5744    0.0000 </r>
       <r>    7.5813    0.0000 </r>
       <r>    7.6333    0.0000 </r>
       <r>    7.7851    0.0000 </r>
       <r>    7.8493    0.0000 </r>
       <r>    7.8659    0.0000 </r>
       <r>    7.9106    0.0000 </r>
       <r>    7.9224    0.0000 </r>
       <r>    7.9614    0.0000 </r>
       <r>    7.9811    0.0000 </r>
       <r>    8.0275    0.0000 </r>
       <r>    8.0437    0.0000 </r>
       <r>    8.0613    0.0000 </r>
       <r>    8.1009    0.0000 </r>
       <r>    8.1458    0.0000 </r>
       <r>    8.1702    0.0000 </r>
       <r>    8.1858    0.0000 </r>
       <r>    8.2415    0.0000 </r>
       <r>    8.5255    0.0000 </r>
       <r>    8.5598    0.0000 </r>
       <r>    8.5900    0.0000 </r>
      </set>
      <set comment="kpoint 2">
       <r>   -6.1283    1.0000 </r>
       <r>   -6.0805    1.0000 </r>
       <r>   -5.7250    1.0000 </r>
       <r>   -5.6316    1.0000 </r>
       <r>   -5.5942    1.0000 </r>
       <r>   -5.5597    1.0000 </r>
       <r>   -5.5148    1.0000 </r>
[...]
       <r>    -3.1117    39.1232   100.7726 </r>
       <r>    -3.0571    33.0849   102.5787 </r>
       <r>    -3.0025    41.3301   104.8348 </r>
       <r>    -2.9480    44.3807   107.2575 </r>
       <r>    -2.8934    44.8672   109.7068 </r>
       <r>    -2.8388    30.6445   111.3796 </r>
       <r>    -2.7842    46.8816   113.9388 </r>
       <r>    -2.7296    21.1125   115.0913 </r>
       <r>    -2.6750    39.3957   117.2418 </r>
       <r>    -2.6204    42.8522   119.5811 </r>
       <r>    -2.5658    25.6036   120.9788 </r>
       <r>    -2.5113    19.3116   122.0330 </r>
       <r>    -2.4567     8.7548   122.5109 </r>
       <r>    -2.4021     4.3806   122.7500 </r>
       <r>    -2.3475     3.1780   122.9235 </r>
       <r>    -2.2929    10.5487   123.4993 </r>
       <r>    -2.2383     7.7417   123.9219 </r>
       <r>    -2.1837    24.0396   125.2342 </r>
       <r>    -2.1291    29.8552   126.8640 </r>
       <r>    -2.0745    24.8434   128.2201 </r>
       <r>    -2.0200    32.3586   129.9866 </r>
       <r>    -1.9654    19.0021   131.0239 </r>
       <r>    -1.9108    23.9270   132.3300 </r>
       <r>    -1.8562     3.8271   132.5389 </r>
       <r>    -1.8016     9.4162   133.0530 </r>
       <r>    -1.7470     3.6097   133.2500 </r>
       <r>    -1.6924     4.6217   133.5023 </r>
       <r>    -1.6378     6.2754   133.8449 </r>
       <r>    -1.5832    27.0690   135.3225 </r>
       <r>    -1.5287    35.7175   137.2723 </r>
       <r>    -1.4741    35.0128   139.1836 </r>
       <r>    -1.4195    31.2126   140.8874 </r>
       <r>    -1.3649    54.0000   143.8352 </r>
       <r>    -1.3103    53.9417   146.7798 </r>
       <r>    -1.2557    61.8962   150.1587 </r>
       <r>    -1.2011    70.6038   154.0129 </r>
       <r>    -1.1465    50.7218   156.7817 </r>
       <r>    -1.0920    64.8279   160.3206 </r>
       <r>    -1.0374    68.9015   164.0818 </r>
       <r>    -0.9828    78.6376   168.3745 </r>
       <r>    -0.9282    53.1514   171.2760 </r>
       <r>    -0.8736    79.8321   175.6339 </r>
       <r>    -0.8190    58.8172   178.8447 </r>
       <r>    -0.7644    50.7339   181.6142 </r>
       <r>    -0.7098    32.9151   183.4110 </r>
       <r>    -0.6552    59.5358   186.6610 </r>
       <r>    -0.6007    24.1034   187.9768 </r>
       <r>    -0.5461    19.3816   189.0348 </r>
       <r>    -0.4915    17.0642   189.9663 </r>
       <r>    -0.4369    20.5415   191.0877 </r>
       <r>    -0.3823    29.7021   192.7091 </r>
       <r>    -0.3277    48.9792   195.3828 </r>
       <r>    -0.2731    68.2105   199.1063 </r>
       <r>    -0.2185    49.9802   201.8346 </r>
       <r>    -0.1639    42.8321   204.1728 </r>
       <r>    -0.1094    37.8711   206.2401 </r>
       <r>    -0.0548    59.1170   209.4672 </r>
       <r>    -0.0002    29.5804   211.0820 </r>
       <r>     0.0544    31.3457   212.7931 </r>
       <r>     0.1090    17.5205   213.7495 </r>
       <r>     0.1636     1.6800   213.8413 </r>
       <r>     0.2182    12.0715   214.5002 </r>
       <r>     0.2728    30.3091   216.1547 </r>
       <r>     0.3273    19.9260   217.2425 </r>
       <r>     0.3819    31.6017   218.9676 </r>
       <r>     0.4365    18.0904   219.9551 </r>
       <r>     0.4911    16.7073   220.8672 </r>
       <r>     0.5457    14.3485   221.6504 </r>
       <r>     0.6003    24.7086   222.9992 </r>
       <r>     0.6549    28.1706   224.5370 </r>
       <r>     0.7095    25.2665   225.9163 </r>
       <r>     0.7641    23.8685   227.2192 </r>
       <r>     0.8186     5.7928   227.5355 </r>
       <r>     0.8732     3.9298   227.7500 </r>
       <r>     0.9278     8.7953   228.2301 </r>
       <r>     0.9824    29.7289   229.8530 </r>
       <r>     1.0370    40.8195   232.0813 </r>
       <r>     1.0916    28.5291   233.6386 </r>
       <r>     1.1462    22.2329   234.8523 </r>
       <r>     1.2008    21.6170   236.0323 </r>
       <r>     1.2553    29.6049   237.6484 </r>
       <r>     1.3099    23.8470   238.9502 </r>
       <r>     1.3645    23.5509   240.2358 </r>
       <r>     1.4191    34.3949   242.1134 </r>
       <r>     1.4737    56.5354   245.1995 </r>
       <r>     1.5283    79.4071   249.5343 </r>
       <r>     1.5829   103.2147   255.1686 </r>
       <r>     1.6375    81.4812   259.6165 </r>
       <r>     1.6921    72.7940   263.5903 </r>
       <r>     1.7466    67.1453   267.2557 </r>
       <r>     1.8012    56.7700   270.3547 </r>
       <r>     1.8558    28.6391   271.9180 </r>
       <r>     1.9104    22.6974   273.1571 </r>
       <r>     1.9650    20.1460   274.2568 </r>
       <r>     2.0196    27.6284   275.7650 </r>
       <r>     2.0742    65.0225   279.3145 </r>
       <r>     2.1288    91.2119   284.2936 </r>
       <r>     2.1834    99.2128   289.7095 </r>
       <r>     2.2379   120.6484   296.2955 </r>
       <r>     2.2925   130.0319   303.3938 </r>
       <r>     2.3471   107.8598   309.2817 </r>
       <r>     2.4017   111.4257   315.3643 </r>
       <r>     2.4563    84.3659   319.9697 </r>
       <r>     2.5109    36.9923   321.9891 </r>
       <r>     2.5655    36.9817   324.0079 </r>
       <r>     2.6201    39.1877   326.1471 </r>
       <r>     2.6746    66.6787   329.7870 </r>
       <r>     2.7292    83.4221   334.3409 </r>
       <r>     2.7838   106.8242   340.1723 </r>
       <r>     2.8384    80.3979   344.5611 </r>
       <r>     2.8930    82.2288   349.0499 </r>
       <r>     2.9476    93.4091   354.1489 </r>
       <r>     3.0022    93.1820   359.2357 </r>
       <r>     3.0568   100.0567   364.6976 </r>
       <r>     3.1114    92.1630   369.7287 </r>
       <r>     3.1659    75.7331   373.8629 </r>
       <r>     3.2205    80.8568   378.2767 </r>
       <r>     3.2751    97.6181   383.6056 </r>
       <r>     3.3297    98.8420   389.0012 </r>
       <r>     3.3843    90.8955   393.9631 </r>
       <r>     3.4389    94.2883   399.1101 </r>
       <r>     3.4935    94.5770   404.2730 </r>
       <r>     3.5481    83.8852   408.8522 </r>
       <r>     3.6027    63.7033   412.3297 </r>
       <r>     3.6572    70.2857   416.1664 </r>
       <r>     3.7118    78.4345   420.4481 </r>
       <r>     3.7664    71.6087   424.3572 </r>
       <r>     3.8210    77.5279   428.5893 </r>
       <r>     3.8756    83.9174   433.1702 </r>
       <r>     3.9302    83.8357   437.7467 </r>
       <r>     3.9848    68.2992   441.4750 </r>
       <r>     4.0394    66.1696   445.0871 </r>
       <r>     4.0939    76.6907   449.2736 </r>
       <r>     4.1485    70.5184   453.1231 </r>
       <r>     4.2031    60.9948   456.4527 </r>
       <r>     4.2577    74.6395   460.5272 </r>
       <r>     4.3123    70.2421   464.3616 </r>
       <r>     4.3669    77.8036   468.6088 </r>
       <r>     4.4215    69.2824   472.3908 </r>
       <r>     4.4761    70.4171   476.2348 </r>
       <r>     4.5307    62.2378   479.6323 </r>
       <r>     4.5852    63.9237   483.1218 </r>
       <r>     4.6398    60.3229   486.4148 </r>
       <r>     4.6944    41.3747   488.6734 </r>
       <r>     4.7490    34.9494   490.5812 </r>
       <r>     4.8036    18.7668   491.6057 </r>
       <r>     4.8582    29.9560   493.2409 </r>
       <r>     4.9128    45.4281   495.7208 </r>
       <r>     4.9674    33.1476   497.5303 </r>
       <r>     5.0220    41.6376   499.8032 </r>
       <r>     5.0765    31.1136   501.5017 </r>
       <r>     5.1311     9.7374   502.0332 </r>
       <r>     5.1857    23.4462   503.3131 </r>
       <r>     5.2403    12.4460   503.9925 </r>
       <r>     5.2949     2.2080   504.1131 </r>
       <r>     5.3495    28.1003   505.6471 </r>
       <r>     5.4041    10.6005   506.2258 </r>
       <r>     5.4587    19.0791   507.2673 </r>
       <r>     5.5132    31.4962   508.9866 </r>
       <r>     5.5678    17.0880   509.9194 </r>
       <r>     5.6224    19.9194   511.0068 </r>
       <r>     5.6770     4.8272   511.2703 </r>
       <r>     5.7316     4.2085   511.5000 </r>
       <r>     5.7862     4.5791   511.7500 </r>
       <r>     5.8408     4.5792   512.0000 </r>
       <r>     5.8954     0.0000   512.0000 </r>
       <r>     5.9500     0.0000   512.0000 </r>
       <r>     6.0045     0.0000   512.0000 </r>
       <r>     6.0591     0.0000   512.0000 </r>
       <r>     6.1137     5.8095   512.3171 </r>
       <r>     6.1683    11.3519   512.9368 </r>
       <r>     6.2229    23.8653   514.2396 </r>
       <r>     6.2775    12.9475   514.9464 </r>
       <r>     6.3321    12.4193   515.6243 </r>
       <r>     6.3867    16.8810   516.5458 </r>
       <r>     6.4413    24.4521   517.8806 </r>
       <r>     6.4958    25.7382   519.2856 </r>
       <r>     6.5504    31.8102   521.0221 </r>
       <r>     6.6050     8.5164   521.4870 </r>
       <r>     6.6596    17.5083   522.4428 </r>
       <r>     6.7142    28.9854   524.0250 </r>
       <r>     6.7688    29.0812   525.6125 </r>
       <r>     6.8234    36.0503   527.5805 </r>
       <r>     6.8780    37.4980   529.6274 </r>
       <r>     6.9325    37.6715   531.6839 </r>
       <r>     6.9871    44.8923   534.1345 </r>
       <r>     7.0417    39.1141   536.2697 </r>
       <r>     7.0963    35.6763   538.2172 </r>
       <r>     7.1509    22.2032   539.4293 </r>
       <r>     7.2055    32.6620   541.2122 </r>
       <r>     7.2601    47.2631   543.7923 </r>
       <r>     7.3147    69.4379   547.5828 </r>
       <r>     7.3693    71.7952   551.5020 </r>
       <r>     7.4238    83.2293   556.0454 </r>
       <r>     7.4784    84.4420   560.6549 </r>
       <r>     7.5330    77.8183   564.9029 </r>
       <r>     7.5876    83.1397   569.4414 </r>
       <r>     7.6422    82.3759   573.9382 </r>
       <r>     7.6968    87.0934   578.6925 </r>
       <r>     7.7514   113.5928   584.8934 </r>
       <r>     7.8060    83.4099   589.4466 </r>
       <r>     7.8605    94.8539   594.6246 </r>
       <r>     7.9151    89.2131   599.4946 </r>
       <r>     7.9697   107.6923   605.3734 </r>
       <r>     8.0243    83.7472   609.9451 </r>
       <r>     8.0789    85.7772   614.6276 </r>
       <r>     8.1335    67.6868   618.3225 </r>
       <r>     8.1881    81.0632   622.7476 </r>
       <r>     8.2427    85.8657   627.4349 </r>
       <r>     8.2973    84.3087   632.0372 </r>
       <r>     8.3518    87.2494   636.8000 </r>
       <r>     8.4064    77.2743   641.0183 </r>
       <r>     8.4610    40.8585   643.2487 </r>
       <r>     8.5156     0.3946   643.2703 </r>
       <r>     8.5702     8.4724   643.7328 </r>
       <r>     8.6248     4.8953   644.0000 </r>
       <r>     8.6794     0.0000   644.0000 </r>
       <r>     8.7340     0.0000   644.0000 </r>
       <r>     8.7886     0.0000   644.0000 </r>
       <r>     8.8431     0.0000   644.0000 </r>
       <r>     8.8977     0.0000   644.0000 </r>
       <r>     8.9523     0.0000   644.0000 </r>
       <r>     9.0069     0.0000   644.0000 </r>
       <r>     9.0615     0.0000   644.0000 </r>
       <r>     9.1161     0.0000   644.0000 </r>
       <r>     9.1707     0.0000   644.0000 </r>
       <r>     9.2253     0.0000   644.0000 </r>
       <r>     9.2798     0.0000   644.0000 </r>
       <r>     9.3344     0.0000   644.0000 </r>
      </set>
     </set>
    </array>
   </total>
  </dos>
 </calculation>
 <structure name="finalpos" >
  <crystal>
   <varray name="basis" >
    <v>       0.00000000      10.93733369      10.93733369 </v>
    <v>      10.93733369       0.00000000      10.93733369 </v>
    <v>      10.93733369      10.93733369       0.00000000 </v>
   </varray>
   <i name="volume">   2616.76295363 </i>
   <varray name="rec_basis" >
    <v>      -0.04571498       0.04571498       0.04571498 </v>
    <v>       0.04571498      -0.04571498       0.04571498 </v>
    <v>       0.04571498       0.04571498      -0.04571498 </v>
   </varray>
  </crystal>
  <varray name="positions" >
   <v>       0.00355387       0.00603443       0.99470931 </v>
   <v>       0.24698414       0.98903564       0.01005360 </v>
   <v>       0.49919904       0.99235756       0.00717030 </v>
   <v>       0.75357548       0.00623395       0.99957648 </v>
   <v>       0.00784625       0.24721205       0.99751172 </v>
   <v>       0.23864803       0.24937627       0.00065199 </v>
   <v>       0.49583590       0.25019191       0.00484532 </v>
   <v>       0.75003300       0.26172555       0.98352245 </v>
   <v>       0.99060621       0.50650753       0.00182603 </v>
   <v>       0.24585454       0.50576272       0.00089960 </v>
   <v>       0.49324086       0.50835150       0.99254865 </v>
   <v>       0.74057134       0.50112296       0.00869273 </v>
   <v>       0.00057725       0.74228724       0.99524769 </v>
   <v>       0.24425076       0.75514147       0.00267590 </v>
   <v>       0.50693036       0.74759614       0.99168042 </v>
   <v>       0.74319519       0.75739273       0.00173602 </v>
   <v>       0.01302321       0.00379308       0.23420582 </v>
   <v>       0.25937060       0.99484590       0.25310127 </v>
   <v>       0.49767360       0.00779963       0.24447146 </v>
   <v>       0.74304819       0.99282263       0.26537608 </v>
   <v>       0.99509231       0.26071808       0.24052029 </v>
   <v>       0.24921776       0.23425410       0.26775614 </v>
   <v>       0.50342202       0.24431687       0.24076740 </v>
   <v>       0.75399801       0.24486036       0.25027308 </v>
   <v>       0.00178324       0.49937884       0.24852927 </v>
   <v>       0.25135519       0.49592055       0.24729775 </v>
   <v>       0.51074819       0.49406641       0.24353474 </v>
   <v>       0.75402484       0.48820329       0.25565923 </v>
   <v>       0.98998228       0.74536385       0.26160101 </v>
   <v>       0.24610553       0.74939460       0.25556977 </v>
   <v>       0.50159986       0.75195828       0.24233522 </v>
   <v>       0.75163449       0.74778197       0.25102265 </v>
   <v>       0.99298115       0.01125008       0.49837317 </v>
   <v>       0.24937140       0.99591334       0.50935152 </v>
   <v>       0.50211972       0.99279018       0.50860357 </v>
   <v>       0.75470542       0.99343309       0.49667600 </v>
   <v>       0.99964400       0.25332452       0.50109545 </v>
   <v>       0.24572844       0.25891707       0.49709166 </v>
   <v>       0.50330239       0.24850163       0.49568861 </v>
   <v>       0.74937241       0.24104524       0.50496842 </v>
   <v>       0.98705451       0.51480245       0.50148318 </v>
   <v>       0.24804790       0.50769403       0.49875876 </v>
   <v>       0.50663785       0.50183156       0.49640211 </v>
   <v>       0.74349528       0.50434851       0.50998953 </v>
   <v>       0.99115926       0.75565755       0.50085757 </v>
   <v>       0.24137113       0.74330307       0.50121674 </v>
   <v>       0.50651897       0.74571704       0.50683470 </v>
   <v>       0.76451219       0.73866647       0.49678679 </v>
   <v>       0.00584044       0.99551726       0.74102303 </v>
   <v>       0.24431424       0.99628577       0.75751823 </v>
   <v>       0.50718574       0.00868663       0.74109956 </v>
   <v>       0.75896383       0.99289679       0.74940504 </v>
   <v>       0.00813165       0.23814242       0.75116826 </v>
   <v>       0.24405682       0.24698933       0.76590895 </v>
   <v>       0.48766936       0.25506944       0.75731932 </v>
   <v>       0.74164463       0.25761228       0.75228712 </v>
   <v>       0.00171861       0.49944772       0.73810242 </v>
   <v>       0.25677038       0.49712920       0.74407567 </v>
   <v>       0.49412240       0.50132796       0.74172602 </v>
   <v>       0.74987559       0.50556426       0.75337153 </v>
   <v>       0.00818921       0.75410351       0.74545469 </v>
   <v>       0.25273483       0.75527604       0.74188658 </v>
   <v>       0.48789929       0.76408676       0.74987110 </v>
   <v>       0.74049164       0.74733720       0.75170600 </v>
   <v>       0.06866893       0.06823122       0.05552217 </v>
   <v>       0.32572348       0.05783619       0.06621282 </v>
   <v>       0.55858217       0.06742127       0.05895278 </v>
   <v>       0.80689262       0.06583984       0.05961766 </v>
   <v>       0.05862307       0.31601647       0.05922157 </v>
   <v>       0.31286800       0.30218516       0.07705430 </v>
   <v>       0.56689539       0.31869546       0.05522318 </v>
   <v>       0.81982794       0.30913108       0.05641312 </v>
   <v>       0.06297446       0.56345382       0.06025235 </v>
   <v>       0.31418358       0.56403703       0.07022119 </v>
   <v>       0.55827472       0.56310402       0.05704222 </v>
   <v>       0.80485756       0.56584334       0.06166344 </v>
   <v>       0.05547381       0.82177402       0.05640594 </v>
   <v>       0.32088278       0.80116003       0.07443653 </v>
   <v>       0.56783497       0.80822643       0.06505904 </v>
   <v>       0.81418415       0.80984537       0.06641767 </v>
   <v>       0.06554374       0.06765367       0.30609726 </v>
   <v>       0.31205260       0.06237645       0.31805848 </v>
   <v>       0.56422100       0.06579486       0.30738962 </v>
   <v>       0.81058116       0.06284933       0.30955780 </v>
   <v>       0.05114540       0.31475377       0.31716213 </v>
   <v>       0.30438916       0.32306829       0.30825398 </v>
   <v>       0.55611444       0.31978189       0.32132394 </v>
   <v>       0.81393934       0.31473480       0.31006386 </v>
   <v>       0.06646632       0.55511304       0.31504188 </v>
   <v>       0.31013160       0.55879024       0.30892512 </v>
   <v>       0.57909697       0.56669957       0.29565943 </v>
   <v>       0.81598185       0.56508569       0.30004666 </v>
   <v>       0.05629915       0.81674450       0.31436300 </v>
   <v>       0.31179301       0.81101987       0.30603110 </v>
   <v>       0.57014204       0.81208422       0.30934127 </v>
   <v>       0.80959464       0.80272250       0.31537340 </v>
   <v>       0.04844362       0.06725057       0.56696280 </v>
   <v>       0.32199929       0.06461708       0.54645547 </v>
   <v>       0.55329684       0.06184612       0.56454267 </v>
   <v>       0.81005542       0.06204752       0.56801699 </v>
   <v>       0.05956201       0.29293506       0.57486857 </v>
   <v>       0.30860689       0.31728304       0.56338498 </v>
   <v>       0.55913560       0.30723249       0.57018068 </v>
   <v>       0.80975449       0.31276275       0.56703991 </v>
   <v>       0.06305656       0.56053525       0.56237037 </v>
   <v>       0.32159626       0.56515166       0.56545690 </v>
   <v>       0.56103868       0.57179848       0.56473247 </v>
   <v>       0.81371518       0.55750233       0.56264031 </v>
   <v>       0.06766368       0.80397319       0.56532345 </v>
   <v>       0.32173367       0.80959649       0.56281000 </v>
   <v>       0.57000464       0.79896236       0.56055478 </v>
   <v>       0.81110231       0.80713191       0.57123467 </v>
   <v>       0.06774763       0.06305239       0.79860300 </v>
   <v>       0.30697858       0.06105548       0.81941959 </v>
   <v>       0.56388232       0.05782913       0.81846761 </v>
   <v>       0.81930311       0.05634959       0.81246287 </v>
   <v>       0.05984044       0.32353024       0.81565779 </v>
   <v>       0.31160761       0.31359948       0.80061493 </v>
   <v>       0.56404978       0.31983568       0.81040615 </v>
   <v>       0.81723941       0.31885791       0.80188415 </v>
   <v>       0.05616070       0.57724167       0.80396634 </v>
   <v>       0.30909167       0.57069867       0.81106261 </v>
   <v>       0.55647065       0.56945858       0.80941374 </v>
   <v>       0.80730627       0.56100436       0.82295488 </v>
   <v>       0.06833175       0.80448711       0.81597565 </v>
   <v>       0.30820239       0.82403776       0.81129794 </v>
   <v>       0.56328023       0.80191560       0.82314644 </v>
   <v>       0.83202622       0.81295920       0.80205526 </v>
  </varray>
 </structure>
</modeling>
