potpaw_PBE@./ARUN.APL1ZEROSTATE         
           1
     0.000000   10.937334   10.937334
    10.937334    0.000000   10.937334
    10.937334   10.937334    0.000000
   Si
 128
Direct configuration=     1
   0.00355387  0.00603443  0.99470931
   0.24698414  0.98903564  0.01005360
   0.49919904  0.99235756  0.00717030
   0.75357548  0.00623395  0.99957648
   0.00784625  0.24721205  0.99751172
   0.23864803  0.24937627  0.00065199
   0.49583590  0.25019191  0.00484532
   0.75003300  0.26172555  0.98352245
   0.99060621  0.50650753  0.00182603
   0.24585454  0.50576272  0.00089960
   0.49324086  0.50835150  0.99254865
   0.74057134  0.50112296  0.00869273
   0.00057725  0.74228724  0.99524769
   0.24425076  0.75514147  0.00267590
   0.50693036  0.74759614  0.99168042
   0.74319519  0.75739273  0.00173602
   0.01302321  0.00379308  0.23420582
   0.25937060  0.99484590  0.25310127
   0.49767360  0.00779963  0.24447146
   0.74304819  0.99282263  0.26537608
   0.99509231  0.26071808  0.24052029
   0.24921776  0.23425410  0.26775614
   0.50342202  0.24431687  0.24076740
   0.75399801  0.24486036  0.25027308
   0.00178324  0.49937884  0.24852927
   0.25135519  0.49592055  0.24729775
   0.51074819  0.49406641  0.24353474
   0.75402484  0.48820329  0.25565923
   0.98998228  0.74536385  0.26160101
   0.24610553  0.74939460  0.25556977
   0.50159986  0.75195828  0.24233522
   0.75163449  0.74778197  0.25102265
   0.99298115  0.01125008  0.49837317
   0.24937140  0.99591334  0.50935152
   0.50211972  0.99279018  0.50860357
   0.75470542  0.99343309  0.49667600
   0.99964400  0.25332452  0.50109545
   0.24572844  0.25891707  0.49709166
   0.50330239  0.24850163  0.49568861
   0.74937241  0.24104524  0.50496842
   0.98705451  0.51480245  0.50148318
   0.24804790  0.50769403  0.49875876
   0.50663785  0.50183156  0.49640211
   0.74349528  0.50434851  0.50998953
   0.99115926  0.75565755  0.50085757
   0.24137113  0.74330307  0.50121674
   0.50651897  0.74571704  0.50683470
   0.76451219  0.73866647  0.49678679
   0.00584044  0.99551726  0.74102303
   0.24431424  0.99628577  0.75751823
   0.50718574  0.00868663  0.74109956
   0.75896383  0.99289679  0.74940504
   0.00813165  0.23814242  0.75116826
   0.24405682  0.24698933  0.76590895
   0.48766936  0.25506944  0.75731932
   0.74164463  0.25761228  0.75228712
   0.00171861  0.49944772  0.73810242
   0.25677038  0.49712920  0.74407567
   0.49412240  0.50132796  0.74172602
   0.74987559  0.50556426  0.75337153
   0.00818921  0.75410351  0.74545469
   0.25273483  0.75527604  0.74188658
   0.48789929  0.76408676  0.74987110
   0.74049164  0.74733720  0.75170600
   0.06866893  0.06823122  0.05552217
   0.32572348  0.05783619  0.06621282
   0.55858217  0.06742127  0.05895278
   0.80689262  0.06583984  0.05961766
   0.05862307  0.31601647  0.05922157
   0.31286800  0.30218516  0.07705430
   0.56689539  0.31869546  0.05522318
   0.81982794  0.30913108  0.05641312
   0.06297446  0.56345382  0.06025235
   0.31418358  0.56403703  0.07022119
   0.55827472  0.56310402  0.05704222
   0.80485756  0.56584334  0.06166344
   0.05547381  0.82177402  0.05640594
   0.32088278  0.80116003  0.07443653
   0.56783497  0.80822643  0.06505904
   0.81418415  0.80984537  0.06641767
   0.06554374  0.06765367  0.30609726
   0.31205260  0.06237645  0.31805848
   0.56422100  0.06579486  0.30738962
   0.81058116  0.06284933  0.30955780
   0.05114540  0.31475377  0.31716213
   0.30438916  0.32306829  0.30825398
   0.55611444  0.31978189  0.32132394
   0.81393934  0.31473480  0.31006386
   0.06646632  0.55511304  0.31504188
   0.31013160  0.55879024  0.30892512
   0.57909697  0.56669957  0.29565943
   0.81598185  0.56508569  0.30004666
   0.05629915  0.81674450  0.31436300
   0.31179301  0.81101987  0.30603110
   0.57014204  0.81208422  0.30934127
   0.80959464  0.80272250  0.31537340
   0.04844362  0.06725057  0.56696280
   0.32199929  0.06461708  0.54645547
   0.55329684  0.06184612  0.56454267
   0.81005542  0.06204752  0.56801699
   0.05956201  0.29293506  0.57486857
   0.30860689  0.31728304  0.56338498
   0.55913560  0.30723249  0.57018068
   0.80975449  0.31276275  0.56703991
   0.06305656  0.56053525  0.56237037
   0.32159626  0.56515166  0.56545690
   0.56103868  0.57179848  0.56473247
   0.81371518  0.55750233  0.56264031
   0.06766368  0.80397319  0.56532345
   0.32173367  0.80959649  0.56281000
   0.57000464  0.79896236  0.56055478
   0.81110231  0.80713191  0.57123467
   0.06774763  0.06305239  0.79860300
   0.30697858  0.06105548  0.81941959
   0.56388232  0.05782913  0.81846761
   0.81930311  0.05634959  0.81246287
   0.05984044  0.32353024  0.81565779
   0.31160761  0.31359948  0.80061493
   0.56404978  0.31983568  0.81040615
   0.81723941  0.31885791  0.80188415
   0.05616070  0.57724167  0.80396634
   0.30909167  0.57069867  0.81106261
   0.55647065  0.56945858  0.80941374
   0.80730627  0.56100436  0.82295488
   0.06833175  0.80448711  0.81597565
   0.30820239  0.82403776  0.81129794
   0.56328023  0.80191560  0.82314644
   0.83202622  0.81295920  0.80205526
