 128 128   0   0
  0.2044346E+02  0.1546773E-08  0.1546773E-08  0.1546773E-08  0.5000000E-15
  1.000000000000000E-004
  CAR 
 potpaw_PBE@./ARUN.APL1ZEROSTATE         
      9.36762267     -7.04365778  301      5.88022558      1.00000000
     -7.044  0.0000E+00  0.0000E+00
     -6.989  0.0000E+00  0.0000E+00
     -6.934  0.0000E+00  0.0000E+00
     -6.880  0.0000E+00  0.0000E+00
     -6.825  0.0000E+00  0.0000E+00
     -6.770  0.0000E+00  0.0000E+00
     -6.715  0.0000E+00  0.0000E+00
     -6.661  0.0000E+00  0.0000E+00
     -6.606  0.0000E+00  0.0000E+00
     -6.551  0.0000E+00  0.0000E+00
     -6.497  0.0000E+00  0.0000E+00
     -6.442  0.0000E+00  0.0000E+00
     -6.387  0.0000E+00  0.0000E+00
     -6.333  0.1946E-05  0.1065E-06
     -6.278  0.4559E+01  0.2494E+00
     -6.223  0.1121E-01  0.2500E+00
     -6.168  0.3213E-01  0.2518E+00
     -6.114  0.1767E+02  0.1219E+01
     -6.059  0.2771E+02  0.2734E+01
     -6.004  0.9492E+01  0.3254E+01
     -5.950  0.9072E+01  0.3750E+01
     -5.895  0.1337E-01  0.3751E+01
     -5.840  0.9611E+01  0.4276E+01
     -5.785  0.1335E+02  0.5007E+01
     -5.731  0.1733E+02  0.5955E+01
     -5.676  0.2471E+02  0.7306E+01
     -5.621  0.3419E+02  0.9177E+01
     -5.567  0.3680E+02  0.1119E+02
     -5.512  0.3357E+02  0.1303E+02
     -5.457  0.2218E+02  0.1424E+02
     -5.403  0.4764E+01  0.1450E+02
     -5.348  0.3811E-04  0.1450E+02
     -5.293  0.6348E+01  0.1485E+02
     -5.238  0.1082E+02  0.1544E+02
     -5.184  0.2294E+02  0.1669E+02
     -5.129  0.4120E+02  0.1895E+02
     -5.074  0.4086E+02  0.2118E+02
     -5.020  0.4707E+02  0.2376E+02
     -4.965  0.3635E+02  0.2575E+02
     -4.910  0.3360E+02  0.2758E+02
     -4.855  0.1218E+02  0.2825E+02
     -4.801  0.2290E+02  0.2950E+02
     -4.746  0.3256E+02  0.3128E+02
     -4.691  0.3095E+02  0.3298E+02
     -4.637  0.5733E+02  0.3611E+02
     -4.582  0.2948E+02  0.3773E+02
     -4.527  0.3317E+02  0.3954E+02
     -4.473  0.2973E+02  0.4117E+02
     -4.418  0.2223E+02  0.4238E+02
     -4.363  0.1207E+02  0.4304E+02
     -4.308  0.2148E+02  0.4422E+02
     -4.254  0.4177E+02  0.4650E+02
     -4.199  0.5928E+02  0.4975E+02
     -4.144  0.6737E+02  0.5343E+02
     -4.090  0.7077E+02  0.5730E+02
     -4.035  0.5107E+02  0.6010E+02
     -3.980  0.4207E+02  0.6240E+02
     -3.926  0.4447E+02  0.6483E+02
     -3.871  0.5807E+02  0.6801E+02
     -3.816  0.4567E+02  0.7051E+02
     -3.761  0.6620E+02  0.7413E+02
     -3.707  0.4238E+02  0.7645E+02
     -3.652  0.4307E+02  0.7880E+02
     -3.597  0.1933E+02  0.7986E+02
     -3.543  0.2593E+02  0.8128E+02
     -3.488  0.4280E+02  0.8362E+02
     -3.433  0.6094E+02  0.8695E+02
     -3.378  0.5263E+02  0.8983E+02
     -3.324  0.4910E+02  0.9252E+02
     -3.269  0.5079E+02  0.9530E+02
     -3.214  0.1981E+02  0.9638E+02
     -3.160  0.3755E+02  0.9844E+02
     -3.105  0.3828E+02  0.1005E+03
     -3.050  0.4401E+02  0.1029E+03
     -2.996  0.4569E+02  0.1054E+03
     -2.941  0.3851E+02  0.1075E+03
     -2.886  0.4775E+02  0.1102E+03
     -2.831  0.3484E+02  0.1121E+03
     -2.777  0.3148E+02  0.1138E+03
     -2.722  0.3041E+02  0.1154E+03
     -2.667  0.3217E+02  0.1172E+03
     -2.613  0.2475E+02  0.1186E+03
     -2.558  0.4795E+02  0.1212E+03
     -2.503  0.2267E+02  0.1224E+03
     -2.448  0.5978E+01  0.1227E+03
     -2.394  0.3648E-08  0.1228E+03
     -2.339  0.4367E+01  0.1230E+03
     -2.284  0.4861E+01  0.1233E+03
     -2.230  0.1684E+02  0.1242E+03
     -2.175  0.2332E+02  0.1255E+03
     -2.120  0.2389E+02  0.1268E+03
     -2.066  0.3167E+02  0.1285E+03
     -2.011  0.3016E+02  0.1301E+03
     -1.956  0.2232E+02  0.1314E+03
     -1.901  0.1693E+02  0.1323E+03
     -1.847  0.8973E+01  0.1328E+03
     -1.792  0.4047E+01  0.1330E+03
     -1.737  0.4566E+01  0.1332E+03
     -1.683  0.5960E-02  0.1333E+03
     -1.628  0.1426E+02  0.1340E+03
     -1.573  0.3222E+02  0.1358E+03
     -1.519  0.4524E+02  0.1383E+03
     -1.464  0.2975E+02  0.1399E+03
     -1.409  0.2691E+02  0.1414E+03
     -1.354  0.4372E+02  0.1438E+03
     -1.300  0.5411E+02  0.1467E+03
     -1.245  0.6912E+02  0.1505E+03
     -1.190  0.6080E+02  0.1538E+03
     -1.136  0.5975E+02  0.1571E+03
     -1.081  0.6351E+02  0.1606E+03
     -1.026  0.6392E+02  0.1641E+03
     -0.971  0.6851E+02  0.1678E+03
     -0.917  0.6766E+02  0.1715E+03
     -0.862  0.6480E+02  0.1751E+03
     -0.807  0.6631E+02  0.1787E+03
     -0.753  0.4717E+02  0.1813E+03
     -0.698  0.5133E+02  0.1841E+03
     -0.643  0.4150E+02  0.1863E+03
     -0.589  0.4078E+02  0.1886E+03
     -0.534  0.2431E+02  0.1899E+03
     -0.479  0.1130E+02  0.1905E+03
     -0.424  0.1225E+02  0.1912E+03
     -0.370  0.5015E+02  0.1939E+03
     -0.315  0.4186E+02  0.1962E+03
     -0.260  0.4917E+02  0.1989E+03
     -0.206  0.5759E+02  0.2021E+03
     -0.151  0.4737E+02  0.2047E+03
     -0.096  0.4769E+02  0.2073E+03
     -0.042  0.4201E+02  0.2096E+03
      0.013  0.3152E+02  0.2113E+03
      0.068  0.3130E+02  0.2130E+03
      0.123  0.1160E+02  0.2136E+03
      0.177  0.1079E+02  0.2142E+03
      0.232  0.9531E+01  0.2147E+03
      0.287  0.6652E+01  0.2151E+03
      0.341  0.3418E+02  0.2170E+03
      0.396  0.4181E+02  0.2193E+03
      0.451  0.2194E+02  0.2205E+03
      0.506  0.1815E+02  0.2215E+03
      0.560  0.2319E+02  0.2227E+03
      0.615  0.1106E+02  0.2233E+03
      0.670  0.2503E+02  0.2247E+03
      0.724  0.1979E+02  0.2258E+03
      0.779  0.2639E+02  0.2272E+03
      0.834  0.9435E+01  0.2277E+03
      0.888  0.3121E+01  0.2279E+03
      0.943  0.1829E+02  0.2289E+03
      0.998  0.2272E+02  0.2302E+03
      1.053  0.2574E+02  0.2316E+03
      1.107  0.4128E+02  0.2338E+03
      1.162  0.1968E+02  0.2349E+03
      1.217  0.2299E+02  0.2362E+03
      1.271  0.2596E+02  0.2376E+03
      1.326  0.3483E+02  0.2395E+03
      1.381  0.2199E+02  0.2407E+03
      1.436  0.4862E+02  0.2434E+03
      1.490  0.7449E+02  0.2474E+03
      1.545  0.8457E+02  0.2521E+03
      1.600  0.8262E+02  0.2566E+03
      1.654  0.8884E+02  0.2614E+03
      1.709  0.6527E+02  0.2650E+03
      1.764  0.5388E+02  0.2680E+03
      1.818  0.4223E+02  0.2703E+03
      1.873  0.4412E+02  0.2727E+03
      1.928  0.1108E+02  0.2733E+03
      1.983  0.2301E+02  0.2745E+03
      2.037  0.2945E+02  0.2762E+03
      2.092  0.8378E+02  0.2807E+03
      2.147  0.1044E+03  0.2864E+03
      2.201  0.1130E+03  0.2926E+03
      2.256  0.1187E+03  0.2991E+03
      2.311  0.1242E+03  0.3059E+03
      2.365  0.1090E+03  0.3119E+03
      2.420  0.1024E+03  0.3175E+03
      2.475  0.4906E+02  0.3202E+03
      2.530  0.4400E+02  0.3226E+03
      2.584  0.2635E+02  0.3240E+03
      2.639  0.4750E+02  0.3266E+03
      2.694  0.6280E+02  0.3300E+03
      2.748  0.1028E+03  0.3357E+03
      2.803  0.8595E+02  0.3404E+03
      2.858  0.9782E+02  0.3457E+03
      2.913  0.9948E+02  0.3512E+03
      2.967  0.9454E+02  0.3563E+03
      3.022  0.1223E+03  0.3630E+03
      3.077  0.8906E+02  0.3679E+03
      3.131  0.6273E+02  0.3713E+03
      3.186  0.5984E+02  0.3746E+03
      3.241  0.9176E+02  0.3796E+03
      3.295  0.1079E+03  0.3855E+03
      3.350  0.9225E+02  0.3906E+03
      3.405  0.9266E+02  0.3956E+03
      3.460  0.6856E+02  0.3994E+03
      3.514  0.9920E+02  0.4048E+03
      3.569  0.8208E+02  0.4093E+03
      3.624  0.7303E+02  0.4133E+03
      3.678  0.6932E+02  0.4171E+03
      3.733  0.9115E+02  0.4221E+03
      3.788  0.8837E+02  0.4269E+03
      3.842  0.8270E+02  0.4314E+03
      3.897  0.8294E+02  0.4360E+03
      3.952  0.6347E+02  0.4394E+03
      4.007  0.5676E+02  0.4426E+03
      4.061  0.6593E+02  0.4462E+03
      4.116  0.7119E+02  0.4501E+03
      4.171  0.7090E+02  0.4539E+03
      4.225  0.7632E+02  0.4581E+03
      4.280  0.7020E+02  0.4619E+03
      4.335  0.7474E+02  0.4660E+03
      4.390  0.7169E+02  0.4700E+03
      4.444  0.6657E+02  0.4736E+03
      4.499  0.7844E+02  0.4779E+03
      4.554  0.7601E+02  0.4820E+03
      4.608  0.5250E+02  0.4849E+03
      4.663  0.5763E+02  0.4881E+03
      4.718  0.3062E+02  0.4897E+03
      4.772  0.2646E+02  0.4912E+03
      4.827  0.2581E+02  0.4926E+03
      4.882  0.2655E+02  0.4941E+03
      4.937  0.3845E+02  0.4962E+03
      4.991  0.4863E+02  0.4988E+03
      5.046  0.3649E+02  0.5008E+03
      5.101  0.3052E+02  0.5025E+03
      5.155  0.1405E+02  0.5033E+03
      5.210  0.1065E+02  0.5038E+03
      5.265  0.3724E+01  0.5040E+03
      5.320  0.1033E+02  0.5046E+03
      5.374  0.1964E+02  0.5057E+03
      5.429  0.2565E+02  0.5071E+03
      5.484  0.2661E+02  0.5085E+03
      5.538  0.2756E+02  0.5100E+03
      5.593  0.1031E+02  0.5106E+03
      5.648  0.7064E+01  0.5110E+03
      5.702  0.9139E+01  0.5115E+03
      5.757  0.4570E+01  0.5117E+03
      5.812  0.1600E+01  0.5118E+03
      5.867  0.2970E+01  0.5120E+03
      5.921  0.0000E+00  0.5120E+03
      5.976  0.0000E+00  0.5120E+03
      6.031  0.0000E+00  0.5120E+03
      6.085  0.0000E+00  0.5120E+03
      6.140  0.9334E-01  0.5120E+03
      6.195  0.2762E+02  0.5135E+03
      6.249  0.1334E+02  0.5142E+03
      6.304  0.1123E+02  0.5149E+03
      6.359  0.1503E+02  0.5157E+03
      6.414  0.3219E+02  0.5174E+03
      6.468  0.2721E+02  0.5189E+03
      6.523  0.2960E+02  0.5206E+03
      6.578  0.1237E+02  0.5212E+03
      6.632  0.9499E+01  0.5217E+03
      6.687  0.2381E+02  0.5231E+03
      6.742  0.3307E+02  0.5249E+03
      6.797  0.3385E+02  0.5267E+03
      6.851  0.2863E+02  0.5283E+03
      6.906  0.4035E+02  0.5305E+03
      6.961  0.2834E+02  0.5320E+03
      7.015  0.3790E+02  0.5341E+03
      7.070  0.5830E+02  0.5373E+03
      7.125  0.2787E+02  0.5388E+03
      7.179  0.2251E+02  0.5401E+03
      7.234  0.1974E+02  0.5411E+03
      7.289  0.7902E+02  0.5455E+03
      7.344  0.6734E+02  0.5491E+03
      7.398  0.8306E+02  0.5537E+03
      7.453  0.7926E+02  0.5580E+03
      7.508  0.8719E+02  0.5628E+03
      7.562  0.8652E+02  0.5675E+03
      7.617  0.7390E+02  0.5716E+03
      7.672  0.8421E+02  0.5762E+03
      7.726  0.9552E+02  0.5814E+03
      7.781  0.9955E+02  0.5868E+03
      7.836  0.9369E+02  0.5920E+03
      7.891  0.1014E+03  0.5975E+03
      7.945  0.8773E+02  0.6023E+03
      8.000  0.1005E+03  0.6078E+03
      8.055  0.8917E+02  0.6127E+03
      8.109  0.6066E+02  0.6160E+03
      8.164  0.7498E+02  0.6201E+03
      8.219  0.8713E+02  0.6249E+03
      8.274  0.1013E+03  0.6304E+03
      8.328  0.7126E+02  0.6343E+03
      8.383  0.7864E+02  0.6386E+03
      8.438  0.6902E+02  0.6424E+03
      8.492  0.1558E+02  0.6432E+03
      8.547  0.3134E+01  0.6434E+03
      8.602  0.2873E+01  0.6436E+03
      8.656  0.7703E+01  0.6440E+03
      8.711  0.0000E+00  0.6440E+03
      8.766  0.0000E+00  0.6440E+03
      8.821  0.0000E+00  0.6440E+03
      8.875  0.0000E+00  0.6440E+03
      8.930  0.0000E+00  0.6440E+03
      8.985  0.0000E+00  0.6440E+03
      9.039  0.0000E+00  0.6440E+03
      9.094  0.0000E+00  0.6440E+03
      9.149  0.0000E+00  0.6440E+03
      9.204  0.0000E+00  0.6440E+03
      9.258  0.0000E+00  0.6440E+03
      9.313  0.0000E+00  0.6440E+03
      9.368  0.0000E+00  0.6440E+03
