 vasp.5.4.4.18Apr17-6-g9f103f2a35 (build Nov 08 2017 09:05:29) complex          
  
 executed on          Intel_17.33 date 2020.07.18  18:48:07
 running on   32 total cores
 distrk:  each k-point on   32 cores,    1 groups
 distr:  one band on NCORES_PER_BAND=  16 cores,    2 groups


--------------------------------------------------------------------------------------------------------


 INCAR:
 POTCAR:   PAW_PBE Si 05Jan2001                   

 ----------------------------------------------------------------------------- 
|                                                                             |
|           W    W    AA    RRRRR   N    N  II  N    N   GGGG   !!!           |
|           W    W   A  A   R    R  NN   N  II  NN   N  G    G  !!!           |
|           W    W  A    A  R    R  N N  N  II  N N  N  G       !!!           |
|           W WW W  AAAAAA  RRRRR   N  N N  II  N  N N  G  GGG   !            |
|           WW  WW  A    A  R   R   N   NN  II  N   NN  G    G                |
|           W    W  A    A  R    R  N    N  II  N    N   GGGG   !!!           |
|                                                                             |
|      For optimal performance we recommend to set                            |
|        NCORE= 4 - approx SQRT( number of cores)                             |
|      NCORE specifies how many cores store one orbital (NPAR=cpu/NCORE).     |
|      This setting can  greatly improve the performance of VASP for DFT.     |
|      The default,   NCORE=1            might be grossly inefficient         |
|      on modern multi-core architectures or massively parallel machines.     |
|      Do your own testing !!!!                                               |
|      Unfortunately you need to use the default for GW and RPA calculations. |
|      (for HF NCORE is supported but not extensively tested yet)             |
|                                                                             |
 ----------------------------------------------------------------------------- 

 POTCAR:   PAW_PBE Si 05Jan2001                   
   VRHFIN =Si: s2p2                                                             
   LEXCH  = PE                                                                  
   EATOM  =   103.0669 eV,    7.5752 Ry                                         
                                                                                
   TITEL  = PAW_PBE Si 05Jan2001                                                
   LULTRA =        F    use ultrasoft PP ?                                      
   IUNSCR =        1    unscreen: 0-lin 1-nonlin 2-no                           
   RPACOR =    1.500    partial core radius                                     
   POMASS =   28.085; ZVAL   =    4.000    mass and valenz                      
   RCORE  =    1.900    outmost cutoff radius                                   
   RWIGS  =    2.480; RWIGS  =    1.312    wigner-seitz radius (au A)           
   ENMAX  =  245.345; ENMIN  =  184.009 eV                                      
   ICORE  =        2    local potential                                         
   LCOR   =        T    correct aug charges                                     
   LPAW   =        T    paw PP                                                  
   EAUG   =  322.069                                                            
   DEXC   =    -.007                                                            
   RMAX   =    2.944    core radius for proj-oper                               
   RAUG   =    1.300    factor for augmentation sphere                          
   RDEP   =    1.993    radius for radial grids                                 
   QCUT   =   -4.246; QGAM   =    8.493    optimization parameters              
                                                                                
   Description                                                                  
     l     E      TYP  RCUT    TYP  RCUT                                        
     0   .000     23  1.900                                                     
     0   .000     23  1.900                                                     
     1   .000     23  1.900                                                     
     1   .000     23  1.900                                                     
     2   .000      7  1.900                                                     
  local pseudopotential read in
  partial core-charges read in
  atomic valenz-charges read in
  non local Contribution for L=           0  read in
    real space projection operators read in
  non local Contribution for L=           0  read in
    real space projection operators read in
  non local Contribution for L=           1  read in
    real space projection operators read in
  non local Contribution for L=           1  read in
    real space projection operators read in
    PAW grid and wavefunctions read in
 
   number of l-projection  operators is LMAX  =           4
   number of lm-projection operators is LMMAX =           8
 

 ----------------------------------------------------------------------------- 
|                                                                             |
|  ADVICE TO THIS USER RUNNING 'VASP/VAMP'   (HEAR YOUR MASTER'S VOICE ...):  |
|                                                                             |
|      You have a (more or less) 'large supercell' and for larger cells       |
|      it might be more efficient to use real space projection operators      |
|      So try LREAL= Auto  in the INCAR   file.                               |
|      Mind: If you want to do a very accurate calculations keep the          |
|      reciprocal projection scheme          (i.e. LREAL=.FALSE.)             |
|                                                                             |
 ----------------------------------------------------------------------------- 

 PAW_PBE Si 05Jan2001                   :
 energy of atom  1       EATOM= -103.0669
 kinetic energy error for atom=    0.0006 (will be added to EATOM!!)
 
 
 POSCAR: kk                                      
  positions in direct lattice
  No initial velocities read in
 exchange correlation table for  LEXCH =        8
   RHO(1)=    0.500       N(1)  =     2000
   RHO(2)=  100.500       N(2)  =     4000
 


--------------------------------------------------------------------------------------------------------


 ion  position               nearest neighbor table
   1  0.994  0.005  0.003-  65 2.25 113 2.40  68 2.41  77 2.46
   2  0.255  0.011  0.998-  66 2.22  78 2.39 114 2.50  65 2.69
   3  0.489  0.003  0.009-  79 2.31  66 2.36 115 2.39  67 2.52
   4  0.752  0.998  0.011-  68 2.25  67 2.35  80 2.37 116 2.43
   5  0.999  0.246  0.997-  65 2.23 117 2.33  72 2.43  69 2.65
   6  0.254  0.254  0.000-  66 2.24  70 2.30  69 2.32 118 2.33
   7  0.505  0.258  0.993-  71 2.29  67 2.42 119 2.46  70 2.51
   8  0.744  0.244  0.019-  71 2.24  72 2.34  68 2.40 120 2.64
   9  1.000  0.507  0.998-  76 2.28  73 2.32  69 2.34 121 2.38
  10  0.242  0.501  0.018-  73 2.29  74 2.29  70 2.32 122 2.68
  11  0.503  0.502  0.991-  71 2.31  74 2.40 123 2.44  75 2.50
  12  0.752  0.502  0.999-  75 2.24  72 2.32 124 2.34  76 2.36
  13  0.003  0.762  0.997-  77 2.22 125 2.33  80 2.37  73 2.55
  14  0.252  0.747  0.997-  74 2.27 126 2.28  77 2.37  78 2.50
  15  0.495  0.756  0.002-  78 2.33 127 2.35  79 2.38  75 2.49
  16  0.749  0.755  0.994- 128 2.33  79 2.40  80 2.42  76 2.50
  17  0.000  0.999  0.256-  93 2.31  81 2.33  84 2.39  65 2.40
  18  0.241  0.020  0.245-  81 2.25  66 2.32  82 2.35  94 2.51
  19  0.505  0.998  0.248-  83 2.26  95 2.26  67 2.30  82 2.50
  20  0.751  0.009  0.252-  68 2.18  84 2.28  83 2.42  96 2.49
  21  0.990  0.254  0.257-  88 2.32  85 2.39  81 2.46  69 2.52
  22  0.251  0.248  0.248-  86 2.28  70 2.31  82 2.38  85 2.39
  23  0.501  0.240  0.247-  83 2.27  71 2.51  86 2.51  87 2.54
  24  0.756  0.254  0.240-  72 2.21  84 2.36  88 2.43  87 2.60
  25  0.996  0.502  0.254-  85 2.30  89 2.31  73 2.38  92 2.41
  26  0.253  0.510  0.243-  90 2.21  74 2.30  89 2.51  86 2.53
  27  0.503  0.500  0.256-  91 2.26  87 2.29  90 2.39  75 2.47
  28  0.753  0.502  0.241-  88 2.23  76 2.25  92 2.42  91 2.44
  29  0.004  0.743  0.237-  77 2.21  89 2.30  93 2.53  96 2.56
  30  0.244  0.762  0.240-  78 2.28  93 2.41  94 2.49  90 2.74
  31  0.506  0.741  0.250-  95 2.29  79 2.39  91 2.43  94 2.43
  32  0.749  0.742  0.243-  80 2.27  92 2.31  96 2.48  95 2.55
  33  0.000  0.997  0.508- 109 2.22 100 2.41  81 2.41  97 2.42
  34  0.249  0.997  0.510-  97 2.24 110 2.35  82 2.36  98 2.41
  35  0.494  0.003  0.507- 111 2.20  98 2.20  99 2.30  83 2.51
  36  0.749  0.006  0.497- 100 2.23  84 2.30 112 2.36  99 2.51
  37  0.002  0.250  0.507- 104 2.30 101 2.36  97 2.42  85 2.50
  38  0.241  0.255  0.504- 101 2.27 102 2.35  86 2.40  98 2.52
  39  0.501  0.241  0.503-  99 2.24 102 2.31  87 2.33 103 2.43
  40  0.741  0.267  0.499- 104 2.28 103 2.38  88 2.40 100 2.58
  41  0.999  0.504  0.504- 105 2.24  89 2.35 101 2.37 108 2.40
  42  0.251  0.482  0.514- 102 2.18 105 2.34  90 2.47 106 2.54
  43  0.496  0.503  0.502-  91 2.23 106 2.25 107 2.39 103 2.43
  44  0.745  0.505  0.496-  92 2.21 108 2.22 107 2.39 104 2.51
  45  1.000  0.759  0.512- 109 2.24 112 2.43 105 2.53  93 2.53
  46  0.246  0.755  0.508- 109 2.30 106 2.32 110 2.34  94 2.53
  47  0.498  0.764  0.496-  95 2.35 110 2.39 111 2.41 107 2.43
  48  0.755  0.753  0.496-  96 2.28 112 2.38 111 2.42 108 2.48
  49  0.011  0.995  0.735-  97 2.14 125 2.32 116 2.47 113 2.54
  50  0.254  0.998  0.746-  98 2.23 126 2.31 113 2.35 114 2.49
  51  0.494  0.004  0.750- 114 2.19  99 2.25 127 2.40 115 2.52
  52  0.754  0.998  0.750- 128 2.23 115 2.25 116 2.36 100 2.47
  53  0.000  0.247  0.748- 101 2.29 120 2.33 113 2.36 117 2.41
  54  0.253  0.248  0.757- 114 2.20 118 2.36 117 2.37 102 2.53
  55  0.494  0.246  0.753- 103 2.28 119 2.32 118 2.41 115 2.53
  56  0.750  0.247  0.748- 120 2.33 119 2.38 104 2.38 116 2.44
  57  0.005  0.502  0.738- 105 2.29 117 2.46 121 2.47 124 2.47
  58  0.238  0.497  0.749- 121 2.18 118 2.20 106 2.47 122 2.57
  59  0.491  0.503  0.757- 122 2.26 123 2.33 119 2.40 107 2.46
  60  0.759  0.502  0.744- 124 2.33 123 2.38 108 2.40 120 2.50
  61  0.992  0.765  0.758- 125 2.27 128 2.38 109 2.48 121 2.53
  62  0.258  0.750  0.754- 126 2.25 110 2.27 122 2.31 125 2.40
  63  0.497  0.747  0.757- 123 2.32 127 2.36 126 2.39 111 2.56
  64  0.754  0.750  0.742- 112 2.25 124 2.30 128 2.42 127 2.50
  65  0.043  0.070  0.067-   5 2.23   1 2.25  17 2.40   2 2.69
  66  0.303  0.077  0.061-   2 2.22   6 2.24  18 2.32   3 2.36
  67  0.565  0.067  0.067-  19 2.30   4 2.35   7 2.42   3 2.52
  68  0.804  0.054  0.080-  20 2.18   4 2.25   8 2.40   1 2.41
  69  0.071  0.321  0.059-   6 2.32   9 2.34  21 2.52   5 2.65
  70  0.306  0.319  0.065-   6 2.30  22 2.31  10 2.32   7 2.51
  71  0.570  0.320  0.049-   8 2.24   7 2.29  11 2.31  23 2.51
  72  0.807  0.319  0.065-  24 2.21  12 2.32   8 2.34   5 2.43
  73  0.061  0.560  0.066-  10 2.29   9 2.32  25 2.38  13 2.55
  74  0.313  0.568  0.060-  14 2.27  10 2.29  26 2.30  11 2.40
  75  0.574  0.559  0.061-  12 2.24  27 2.47  15 2.49  11 2.50
  76  0.819  0.557  0.064-  28 2.25   9 2.28  12 2.36  16 2.50
  77  0.064  0.810  0.063-  29 2.21  13 2.22  14 2.37   1 2.46
  78  0.311  0.822  0.060-  30 2.28  15 2.33   2 2.39  14 2.50
  79  0.560  0.820  0.062-   3 2.31  15 2.38  31 2.39  16 2.40
  80  0.815  0.810  0.064-  32 2.27  13 2.37   4 2.37  16 2.42
  81  0.063  0.059  0.317-  18 2.25  17 2.33  33 2.41  21 2.46
  82  0.307  0.060  0.323-  18 2.35  34 2.36  22 2.38  19 2.50
  83  0.561  0.061  0.308-  19 2.26  23 2.27  20 2.42  35 2.51
  84  0.811  0.067  0.315-  20 2.28  36 2.30  24 2.36  17 2.39
  85  0.063  0.319  0.309-  25 2.30  22 2.39  21 2.39  37 2.50
  86  0.302  0.310  0.315-  22 2.28  38 2.40  23 2.51  26 2.53
  87  0.551  0.319  0.319-  27 2.29  39 2.33  23 2.54  24 2.60
  88  0.807  0.326  0.309-  28 2.23  21 2.32  40 2.40  24 2.43
  89  0.055  0.562  0.319-  29 2.30  25 2.31  41 2.35  26 2.51
  90  0.315  0.545  0.319-  26 2.21  27 2.39  42 2.47  30 2.74
  91  0.562  0.549  0.325-  43 2.23  27 2.26  31 2.43  28 2.44
  92  0.806  0.561  0.321-  44 2.21  32 2.31  25 2.41  28 2.42
  93  0.054  0.816  0.313-  17 2.31  30 2.41  45 2.53  29 2.53
  94  0.314  0.821  0.308-  31 2.43  30 2.49  18 2.51  46 2.53
  95  0.547  0.819  0.310-  19 2.26  31 2.29  47 2.35  32 2.55
  96  0.801  0.813  0.316-  48 2.28  32 2.48  20 2.49  29 2.56
  97  0.072  0.058  0.566-  49 2.14  34 2.24  37 2.42  33 2.42
  98  0.320  0.056  0.570-  35 2.20  50 2.23  34 2.41  38 2.52
  99  0.550  0.064  0.572-  39 2.24  51 2.25  35 2.30  36 2.51
 100  0.810  0.064  0.555-  36 2.23  33 2.41  52 2.47  40 2.58
 101  0.061  0.316  0.567-  38 2.27  53 2.29  37 2.36  41 2.37
 102  0.319  0.311  0.556-  42 2.18  39 2.31  38 2.35  54 2.53
 103  0.554  0.310  0.572-  55 2.28  40 2.38  39 2.43  43 2.43
 104  0.820  0.307  0.559-  40 2.28  37 2.30  56 2.38  44 2.51
 105  0.067  0.560  0.557-  41 2.24  57 2.29  42 2.34  45 2.53
 106  0.319  0.572  0.555-  43 2.25  46 2.32  58 2.47  42 2.54
 107  0.556  0.571  0.562-  44 2.39  43 2.39  47 2.43  59 2.46
 108  0.811  0.557  0.555-  44 2.22  41 2.40  60 2.40  48 2.48
 109  0.064  0.821  0.562-  33 2.22  45 2.24  46 2.30  61 2.48
 110  0.309  0.811  0.575-  62 2.27  46 2.34  34 2.35  47 2.39
 111  0.563  0.830  0.555-  35 2.20  47 2.41  48 2.42  63 2.56
 112  0.809  0.819  0.564-  64 2.25  36 2.36  48 2.38  45 2.43
 113  0.068  0.061  0.813-  50 2.35  53 2.36   1 2.40  49 2.54
 114  0.320  0.074  0.801-  51 2.19  54 2.20  50 2.49   2 2.50
 115  0.577  0.047  0.821-  52 2.25   3 2.39  51 2.52  55 2.53
 116  0.817  0.054  0.818-  52 2.36   4 2.43  56 2.44  49 2.47
 117  0.066  0.308  0.813-   5 2.33  54 2.37  53 2.41  57 2.46
 118  0.304  0.323  0.816-  58 2.20   6 2.33  54 2.36  55 2.41
 119  0.562  0.315  0.799-  55 2.32  56 2.38  59 2.40   7 2.46
 120  0.816  0.305  0.810-  53 2.33  56 2.33  60 2.50   8 2.64
 121  0.066  0.565  0.809-  58 2.18   9 2.38  57 2.47  61 2.53
 122  0.313  0.568  0.806-  59 2.26  62 2.31  58 2.57  10 2.68
 123  0.572  0.565  0.798-  63 2.32  59 2.33  60 2.38  11 2.44
 124  0.809  0.568  0.813-  64 2.30  60 2.33  12 2.34  57 2.47
 125  0.068  0.813  0.813-  61 2.27  49 2.32  13 2.33  62 2.40
 126  0.308  0.816  0.816-  62 2.25  14 2.28  50 2.31  63 2.39
 127  0.556  0.815  0.817-  15 2.35  63 2.36  51 2.40  64 2.50
 128  0.805  0.821  0.810-  52 2.23  16 2.33  61 2.38  64 2.42
 
  LATTYP: Found a face centered cubic cell.
 ALAT       =    21.8746673814
  
  Lattice vectors:
  
 A1 = (   0.0000000000,  10.9373336907,  10.9373336907)
 A2 = (  10.9373336907,   0.0000000000,  10.9373336907)
 A3 = (  10.9373336907,  10.9373336907,   0.0000000000)


Analysis of symmetry for initial positions (statically):
=====================================================================
 Subroutine PRICEL returns:
 Original cell was already a primitive cell.
 

 Routine SETGRP: Setting up the symmetry group for a 
 face centered cubic supercell.


 Subroutine GETGRP returns: Found  1 space group operations
 (whereof  1 operations were pure point group operations)
 out of a pool of 48 trial point group operations.


The static configuration has the point symmetry C_1 .


Analysis of symmetry for dynamics (positions and initial velocities):
=====================================================================
 Subroutine PRICEL returns:
 Original cell was already a primitive cell.
 

 Routine SETGRP: Setting up the symmetry group for a 
 face centered cubic supercell.


 Subroutine GETGRP returns: Found  1 space group operations
 (whereof  1 operations were pure point group operations)
 out of a pool of 48 trial point group operations.


The dynamic configuration has the point symmetry C_1 .


 Subroutine INISYM returns: Found  1 space group operations
 (whereof  1 operations are pure point group operations),
 and found     1 'primitive' translations

 
 
 KPOINTS: KPOINTS File, automatically generated by

Automatic generation of k-mesh.
Space group operators:
 irot       det(A)        alpha          n_x          n_y          n_z        tau_x        tau_y        tau_z
    1     1.000000     0.000001     1.000000     0.000000     0.000000     0.000000     0.000000     0.000000
 
 Subroutine IBZKPT returns following result:
 ===========================================
 
 Found      8 irreducible k-points:
 
 Following reciprocal coordinates:
            Coordinates               Weight
  0.000000  0.000000  0.000000      1.000000
  0.500000  0.000000  0.000000      1.000000
  0.000000  0.500000  0.000000      1.000000
  0.500000  0.500000  0.000000      1.000000
  0.000000  0.000000  0.500000      1.000000
  0.500000  0.000000  0.500000      1.000000
  0.000000  0.500000  0.500000      1.000000
  0.500000  0.500000  0.500000      1.000000
 
 Following cartesian coordinates:
            Coordinates               Weight
  0.000000  0.000000  0.000000      1.000000
 -0.022857  0.022857  0.022857      1.000000
  0.022857 -0.022857  0.022857      1.000000
  0.000000  0.000000  0.045715      1.000000
  0.022857  0.022857 -0.022857      1.000000
  0.000000  0.045715  0.000000      1.000000
  0.045715  0.000000  0.000000      1.000000
  0.022857  0.022857  0.022857      1.000000
 


--------------------------------------------------------------------------------------------------------




 Dimension of arrays:
   k-points           NKPTS =      8   k-points in BZ     NKDIM =      8   number of bands    NBANDS=    322
   number of dos      NEDOS =    301   number of ions     NIONS =    128
   non local maximal  LDIM  =      4   non local SUM 2l+1 LMDIM =      8
   total plane-waves  NPLWV = ******
   max r-space proj   IRMAX =      1   max aug-charges    IRDMAX= 176811
   dimension x,y,z NGX =   120 NGY =  120 NGZ =  120
   dimension x,y,z NGXF=   240 NGYF=  240 NGZF=  240
   support grid    NGXF=   480 NGYF=  480 NGZF=  480
   ions per type =             128
   NGX,Y,Z   is equivalent  to a cutoff of  12.90, 12.90, 12.90 a.u.
   NGXF,Y,Z  is equivalent  to a cutoff of  25.80, 25.80, 25.80 a.u.

 SYSTEM =  potpaw_PBE@./ARUN.APL1ZEROSTATE         
 POSCAR =  kk                                      

 Startparameter for this run:
   NWRITE =      2    write-flag & timer
   PREC   = accura    normal or accurate (medium, high low for compatibility)
   ISTART =      0    job   : 0-new  1-cont  2-samecut
   ICHARG =      2    charge: 1-file 2-atom 10-const
   ISPIN  =      1    spin polarized calculation?
   LNONCOLLINEAR =      F non collinear calculations
   LSORBIT =      F    spin-orbit coupling
   INIWAV =      1    electr: 0-lowe 1-rand  2-diag
   LASPH  =      F    aspherical Exc in radial PAW
   METAGGA=      F    non-selfconsistent MetaGGA calc.

 Electronic Relaxation 1
   ENCUT  =  500.0 eV  36.75 Ry    6.06 a.u.  28.20 28.20 28.20*2*pi/ulx,y,z
   ENINI  =  500.0     initial cutoff
   ENAUG  =  322.1 eV  augmentation charge cutoff
   NELM   =    120;   NELMIN=  4; NELMDL= -5     # of ELM steps 
   EDIFF  = 0.1E-07   stopping-criterion for ELM
   LREAL  =      F    real-space projection
   NLSPLINE    = F    spline interpolate recip. space projectors
   LCOMPAT=      F    compatible to vasp.4.4
   GGA_COMPAT  = T    GGA compatible to vasp.4.4-vasp.4.6
   LMAXPAW     = -100 max onsite density
   LMAXMIX     =    2 max onsite mixed and CHGCAR
   VOSKOWN=      0    Vosko Wilk Nusair interpolation
   ROPT   =    0.00000
 Ionic relaxation
   EDIFFG = 0.1E-06   stopping-criterion for IOM
   NSW    =      0    number of steps for IOM
   NBLOCK =      1;   KBLOCK =      1    inner block; outer block 
   IBRION =     -1    ionic relax: 0-MD 1-quasi-New 2-CG
   NFREE  =      0    steps in history (QN), initial steepest desc. (CG)
   ISIF   =      2    stress and relaxation
   IWAVPR =     10    prediction:  0-non 1-charg 2-wave 3-comb
   ISYM   =      2    0-nonsym 1-usesym 2-fastsym
   LCORR  =      T    Harris-Foulkes like correction to forces

   POTIM  = 0.5000    time-step for ionic-motion
   TEIN   =    0.0    initial temperature
   TEBEG  =    0.0;   TEEND  =   0.0 temperature during run
   SMASS  =  -3.00    Nose mass-parameter (am)
   estimated Nose-frequenzy (Omega)   =  0.10E-29 period in steps =****** mass=  -0.547E-26a.u.
   SCALEE = 1.0000    scale energy and forces
   NPACO  =    256;   APACO  = 16.0  distance and # of slots for P.C.
   PSTRESS=    0.0 pullay stress

  Mass of Ions in am
   POMASS =  28.09
  Ionic Valenz
   ZVAL   =   4.00
  Atomic Wigner-Seitz radii
   RWIGS  =  -1.00
  virtual crystal weights 
   VCA    =   1.00
   NELECT =     512.0000    total number of electrons
   NUPDOWN=      -1.0000    fix difference up-down

 DOS related values:
   EMIN   =  10.00;   EMAX   =-10.00  energy-range for DOS
   EFERMI =   0.00
   ISMEAR =     0;   SIGMA  =   0.01  broadening in eV -4-tet -1-fermi 0-gaus

 Electronic relaxation 2 (details)
   IALGO  =     38    algorithm
   LDIAG  =      T    sub-space diagonalisation (order eigenvalues)
   LSUBROT=      F    optimize rotation matrix (better conditioning)
   TURBO    =      0    0=normal 1=particle mesh
   IRESTART =      0    0=no restart 2=restart with 2 vectors
   NREBOOT  =      0    no. of reboots
   NMIN     =      0    reboot dimension
   EREF     =   0.00    reference energy to select bands
   IMIX   =      4    mixing-type and parameters
     AMIX     =   0.40;   BMIX     =  1.00
     AMIX_MAG =   1.60;   BMIX_MAG =  1.00
     AMIN     =   0.10
     WC   =   100.;   INIMIX=   1;  MIXPRE=   1;  MAXMIX= -45

 Intra band minimization:
   WEIMIN = 0.0000     energy-eigenvalue tresh-hold
   EBREAK =  0.78E-11  absolut break condition
   DEPER  =   0.30     relativ break condition  

   TIME   =   0.40     timestep for ELM

  volume/ion in A,a.u.               =      20.44       137.96
  Fermi-wavevector in a.u.,A,eV,Ry     =   0.950408  1.796010 12.289804  0.903275
  Thomas-Fermi vector in A             =   2.078782
 
 Write flags
   LWAVE        =      F    write WAVECAR
   LDOWNSAMPLE  =      F    k-point downsampling of WAVECAR
   LCHARG       =      F    write CHGCAR
   LVTOT        =      F    write LOCPOT, total local potential
   LVHAR        =      F    write LOCPOT, Hartree potential only
   LELF         =      F    write electronic localiz. function (ELF)
   LORBIT       =      0    0 simple, 1 ext, 2 COOP (PROOUT), +10 PAW based schemes


 Dipole corrections
   LMONO  =      F    monopole corrections only (constant potential shift)
   LDIPOL =      F    correct potential (dipole corrections)
   IDIPOL =      0    1-x, 2-y, 3-z, 4-all directions 
   EPSILON=  1.0000000 bulk dielectric constant

 Exchange correlation treatment:
   GGA     =    --    GGA type
   LEXCH   =     8    internal setting for exchange type
   VOSKOWN=      0    Vosko Wilk Nusair interpolation
   LHFCALC =     F    Hartree Fock is set to
   LHFONE  =     F    Hartree Fock one center treatment
   AEXX    =    0.0000 exact exchange contribution

 Linear response parameters
   LEPSILON=     F    determine dielectric tensor
   LRPA    =     F    only Hartree local field effects (RPA)
   LNABLA  =     F    use nabla operator in PAW spheres
   LVEL    =     F    velocity operator in full k-point grid
   LINTERFAST=   F  fast interpolation
   KINTER  =     0    interpolate to denser k-point grid
   CSHIFT  =0.1000    complex shift for real part using Kramers Kronig
   OMEGAMAX=  -1.0    maximum frequency
   DEG_THRESHOLD= 0.2000000E-02 threshold for treating states as degnerate
   RTIME   =   -0.100 relaxation time in fs
  (WPLASMAI=    0.000 imaginary part of plasma frequency in eV, 0.658/RTIME)
   DFIELD  = 0.0000000 0.0000000 0.0000000 field for delta impulse in time
 
 Orbital magnetization related:
   ORBITALMAG=     F  switch on orbital magnetization
   LCHIMAG   =     F  perturbation theory with respect to B field
   DQ        =  0.001000  dq finite difference perturbation B field
   LLRAUG    =     F  two centre corrections for induced B field



--------------------------------------------------------------------------------------------------------


 Static calculation
 charge density and potential will be updated during run
 non-spin polarized calculation
 Variant of blocked Davidson
 Davidson routine will perform the subspace rotation
 perform sub-space diagonalisation
    after iterative eigenvector-optimisation
 modified Broyden-mixing scheme, WC =      100.0
 initial mixing is a Kerker type mixing with AMIX =  0.4000 and BMIX =      1.0000
 Hartree-type preconditioning will be used
 using additional bands           66
 reciprocal scheme for non local part
 use partial core corrections
 calculate Harris-corrections to forces 
   (improved forces if not selfconsistent)
 use gradient corrections 
 use of overlap-Matrix (Vanderbilt PP)
 Gauss-broadening in eV      SIGMA  =   0.01


--------------------------------------------------------------------------------------------------------


  energy-cutoff  :      500.00
  volume of cell :     2616.76
      direct lattice vectors                 reciprocal lattice vectors
     0.000000000 10.937333691 10.937333691    -0.045714981  0.045714981  0.045714981
    10.937333691  0.000000000 10.937333691     0.045714981 -0.045714981  0.045714981
    10.937333691 10.937333691  0.000000000     0.045714981  0.045714981 -0.045714981

  length of vectors
    15.467725642 15.467725642 15.467725642     0.079180669  0.079180669  0.079180669


 
 k-points in units of 2pi/SCALE and weight: KPOINTS File, automatically generated by
   0.00000000  0.00000000  0.00000000       0.125
  -0.02285749  0.02285749  0.02285749       0.125
   0.02285749 -0.02285749  0.02285749       0.125
   0.00000000  0.00000000  0.04571498       0.125
   0.02285749  0.02285749 -0.02285749       0.125
   0.00000000  0.04571498  0.00000000       0.125
   0.04571498  0.00000000  0.00000000       0.125
   0.02285749  0.02285749  0.02285749       0.125
 
 k-points in reciprocal lattice and weights: KPOINTS File, automatically generated by
   0.00000000  0.00000000  0.00000000       0.125
   0.50000000  0.00000000  0.00000000       0.125
   0.00000000  0.50000000  0.00000000       0.125
   0.50000000  0.50000000  0.00000000       0.125
   0.00000000  0.00000000  0.50000000       0.125
   0.50000000  0.00000000  0.50000000       0.125
   0.00000000  0.50000000  0.50000000       0.125
   0.50000000  0.50000000  0.50000000       0.125
 
 position of ions in fractional coordinates (direct lattice) 
   0.99396099  0.00506805  0.00271624
   0.25501360  0.01137019  0.99817788
   0.48912532  0.00255396  0.00858874
   0.75162350  0.99791777  0.01055801
   0.99871294  0.24594467  0.99717473
   0.25439252  0.25369716  0.00041768
   0.50539247  0.25823265  0.99348764
   0.74443404  0.24352324  0.01863719
   0.99953722  0.50656324  0.99755341
   0.24157066  0.50138770  0.01770904
   0.50342574  0.50227785  0.99099089
   0.75169293  0.50224714  0.99864206
   0.00254101  0.76181235  0.99710206
   0.25169169  0.74691471  0.99672216
   0.49499341  0.75580079  0.00248399
   0.74938605  0.75484585  0.99424606
   0.00000936  0.99906249  0.25593480
   0.24060031  0.01963223  0.24502091
   0.50475645  0.99764613  0.24836430
   0.75136144  0.00879279  0.25221170
   0.99000864  0.25393669  0.25743886
   0.25119307  0.24826090  0.24778270
   0.50121646  0.24016277  0.24666920
   0.75593817  0.25392057  0.23981770
   0.99644366  0.50151974  0.25429715
   0.25273586  0.51027624  0.24273222
   0.50266102  0.49978158  0.25585137
   0.75345657  0.50238291  0.24131095
   0.00364895  0.74254475  0.23728864
   0.24445123  0.76169606  0.24020094
   0.50613972  0.74067759  0.25041186
   0.74901230  0.74241753  0.24270006
   0.00010380  0.99665421  0.50758138
   0.24930440  0.99691051  0.50953877
   0.49433925  0.00290920  0.50686671
   0.74888697  0.00591413  0.49704066
   0.00152847  0.24967239  0.50664351
   0.24081745  0.25503868  0.50449843
   0.50126506  0.24113853  0.50257881
   0.74117520  0.26735715  0.49943678
   0.99938212  0.50361233  0.50429932
   0.25102758  0.48225671  0.51437207
   0.49641963  0.50261660  0.50163960
   0.74536256  0.50531278  0.49625519
   0.99976038  0.75859930  0.51240585
   0.24642423  0.75515786  0.50812068
   0.49787569  0.76385338  0.49573102
   0.75473719  0.75279154  0.49563000
   0.01070681  0.99546032  0.73460234
   0.25350193  0.99839037  0.74608938
   0.49362745  0.00440732  0.74970896
   0.75444953  0.99774991  0.74986442
   0.00004161  0.24735678  0.74755095
   0.25277498  0.24771025  0.75659202
   0.49400894  0.24649904  0.75272714
   0.75010159  0.24721874  0.74793011
   0.00470122  0.50233732  0.73816408
   0.23820782  0.49650754  0.74853167
   0.49105439  0.50347761  0.75679012
   0.75948794  0.50224486  0.74382185
   0.99198621  0.76504825  0.75808958
   0.25755289  0.75025449  0.75397140
   0.49720443  0.74682259  0.75675095
   0.75385276  0.74955162  0.74187888
   0.04255824  0.06988619  0.06682286
   0.30254326  0.07652089  0.06103824
   0.56549220  0.06674525  0.06695863
   0.80411634  0.05395780  0.08019199
   0.07108921  0.32133085  0.05917043
   0.30640058  0.31859568  0.06529838
   0.56973133  0.31953056  0.04875341
   0.80673272  0.31879540  0.06541869
   0.06095462  0.56025344  0.06581077
   0.31326213  0.56750460  0.06035791
   0.57425200  0.55927412  0.06053539
   0.81906110  0.55705862  0.06353837
   0.06375699  0.81034977  0.06257606
   0.31065925  0.82248699  0.05967278
   0.55973991  0.82027611  0.06187800
   0.81534775  0.81033851  0.06405523
   0.06343516  0.05929542  0.31655714
   0.30697995  0.06044648  0.32282212
   0.56091466  0.06061183  0.30807853
   0.81086944  0.06732416  0.31475322
   0.06254300  0.31917183  0.30850307
   0.30230109  0.31047688  0.31506792
   0.55067123  0.31859566  0.31870852
   0.80676945  0.32568026  0.30913096
   0.05459816  0.56162252  0.31857898
   0.31492977  0.54486332  0.31877125
   0.56204436  0.54903475  0.32544822
   0.80584727  0.56097467  0.32117308
   0.05364132  0.81638710  0.31319180
   0.31426181  0.82099618  0.30780384
   0.54743949  0.81939181  0.31038435
   0.80147834  0.81261289  0.31561777
   0.07181554  0.05826913  0.56565193
   0.32028093  0.05599137  0.56996638
   0.55045291  0.06421083  0.57182334
   0.81012374  0.06382273  0.55451808
   0.06141537  0.31610976  0.56674359
   0.31898004  0.31074049  0.55604695
   0.55421519  0.31037276  0.57232711
   0.82007906  0.30703581  0.55947627
   0.06727370  0.55991386  0.55702558
   0.31881476  0.57208214  0.55531988
   0.55639184  0.57128558  0.56242959
   0.81073531  0.55723234  0.55483103
   0.06435320  0.82113893  0.56203907
   0.30925800  0.81084967  0.57458051
   0.56328787  0.82954618  0.55510436
   0.80855595  0.81901482  0.56368486
   0.06773851  0.06093837  0.81285270
   0.32030847  0.07392729  0.80050048
   0.57695941  0.04707940  0.82143572
   0.81653332  0.05385910  0.81849693
   0.06569311  0.30760292  0.81282138
   0.30384817  0.32308515  0.81649640
   0.56237883  0.31465381  0.79936140
   0.81559956  0.30455293  0.80985840
   0.06613150  0.56513935  0.80941776
   0.31268085  0.56837451  0.80558851
   0.57150647  0.56470488  0.79791818
   0.80910427  0.56768621  0.81318354
   0.06774170  0.81294858  0.81305289
   0.30795262  0.81566177  0.81610640
   0.55643520  0.81454167  0.81670606
   0.80475185  0.82124871  0.81005204
 
 position of ions in cartesian coordinates  (Angst):
   0.08513937 10.90099148 10.92671400
  11.04176405 13.70657336  2.91352835
   0.12187142  5.44366483  5.37766034
  11.03003616  8.33623356 19.13531672
  13.59641163 21.82968935 13.61323554
   2.77933887  2.78694415  5.55714637
  13.69048247 16.39375191  8.35202271
   2.86733613  8.34596466 10.80561850
  16.45102577 21.84284662 16.47272326
   5.67753424  2.83582861  8.12598348
  16.33237841 16.34493326 10.99971568
  16.41572609 19.14399794 13.71476106
  19.23783390 10.93342984  8.35998779
  19.07073821 13.65431882 10.92209141
   8.29361361  5.44107634 13.68035353
  19.13040184 19.07068618 16.45228620
  13.72632420  2.79934671 10.92718218
   2.89459965  5.31140134  2.84625009
  13.62803177  8.23713287 16.43227827
   2.85469318 10.97641427  8.31406049
   5.59308498 13.64374956 13.60544517
   5.42539433  5.45746451  5.46269473
   5.32464372  8.17987505  8.10871200
   5.40018017 10.89091423 11.04516204
   8.26662149 13.67976950 16.38372553
   8.23590483  5.41909970  8.34531790
   8.26460968  8.29610309 10.96404922
   8.13402798 10.88010431 13.73553547
  10.71676480  2.63521481  8.16136949
  10.95808178  5.30080246 11.00456866
  10.83987599  8.27465708 13.63685694
  10.77455979 10.84668901 16.31226566
  16.45232664  5.55272225 10.90187504
  16.47653853  8.29972097 13.63026835
   5.57558922 10.95052368  5.43857217
   5.50098433 13.62712618  8.25551145
   8.27207942  5.55804652  2.74746759
   8.30731083  8.15176847  5.42334394
   8.13428475 10.97937543  8.11991577
   8.38668110 13.56898727 11.03065490
  11.02386603 16.44626574 16.43875182
  10.90046152  8.37143132  8.02017494
  10.98388511 10.91610687 10.92679261
  10.95448312 13.57998770 13.67905359
  13.90140744 16.53906670 19.23176652
  13.81689892  8.25270947 10.95463755
  13.77649494 10.86740821 13.79995194
  13.65440297 13.67568321 16.48834482
  18.92227265  8.15169491 11.00478570
  19.07995709 10.93286368 13.69236374
   8.24802140 13.59878518  5.44717248
  19.11424118 16.45318373 19.16439004
  10.88163775  8.17666930  2.70587876
  10.98438909 11.03978377  5.47397399
  10.92887010 13.63596850  8.09918283
  10.88427506 16.38447261 10.90802521
  13.56777770  8.12496563  5.54564965
  13.61740929 10.79229905  8.03582696
  13.78396868 13.64809186 10.87752837
  13.62864742 16.44220075 13.79999267
  16.65906667 19.14116289 19.21727222
  16.45222054 11.06337877 11.02272561
  16.44508559 13.71492844 13.60633863
  16.31227301 16.35931600 16.44323531
   1.49523240  1.19633754  1.22984221
   1.50453011  3.97661218  4.14595115
   1.46236390  6.91732574  6.91499189
   1.46724096  9.67197522  9.38504318
   4.16166947  1.42469320  4.29202920
   4.19877749  4.06539565  6.83579271
   4.02804463  6.76457398  9.72615404
   4.20227771  9.53901100 12.31027667
   6.84747316  1.38647543  6.79435984
   6.86714175  4.08640701  9.63323958
   6.77906343  6.94288147 12.39775347
   6.78767635  9.65328494 15.05108063
   9.54748116  1.38174671  9.56039730
   9.64847574  4.05044496 12.39359857
   9.64841386  6.79884250 15.09369580
   9.56353608  9.61832385 17.78067308
   4.11082477  4.15610257  1.34234531
   4.19193658  6.88835536  4.01866551
   4.03248948  9.50446847  6.79784253
   4.17890777 12.31131066  9.60509639
   6.86508981  4.05825469  4.17494245
   6.84179222  6.75237083  6.70215716
   6.97040857  9.50869644  9.50746206
   6.94314205 12.20497511 12.38598031
   9.62705752  4.08156292  6.73981128
   9.44585944  6.93099951  9.40384396
   9.56451203  9.70680246 12.15224298
   9.64834432 12.32659765 14.94938772
  12.35458130  4.01217621  9.51579111
  12.34606255  6.80373959 12.41669542
  12.35673882  9.38230560 14.94949000
  12.33983519 12.21805288 17.65385432
   6.82403275  6.97219445  1.42277944
   6.84630872  9.73693188  4.11541570
   6.95651797 12.27470980  6.72278243
   6.76299975 14.92554296  9.55864411
   9.65606164  6.87038407  4.12911829
   9.48034348  9.57046213  6.88746359
   9.65438303 12.32136907  9.45628685
   9.47733171 15.08865694 12.32763137
  12.21633937  6.82816955  6.85975971
  12.33077204  9.56070228  9.74403667
  12.39982107 12.23692326 12.33378416
  12.16300814 14.93565481 14.96191868
  15.12827934  6.85106134  9.68492295
  15.15291217  9.66683667 12.25099130
  15.14438498 12.23222900 15.23389075
  15.12304787 15.00865567 17.80128462
   9.55694448  9.63131988  1.40738197
   9.56390832 12.25866147  4.31188805
   9.49923965 15.29471415  6.82532066
   9.54124904 17.88287141  9.51977236
  12.25445447  9.60860614  4.08286325
  12.46398363 12.25358236  6.85697884
  12.18435613 14.89380730  9.59239869
  12.18868865 17.77817611 12.25148156
  15.03398978  9.57617445  6.90441996
  15.02749202 12.23088518  9.63639652
  14.90346312 14.97785438 12.42712263
  15.10303316 17.74350305 15.05841682
  17.78412059  9.63354437  9.63240347
  17.84719300 12.29420853 12.28934551
  17.84150073 15.01850417 14.99483144
  17.84208066 17.66164904 17.78411068
 


--------------------------------------------------------------------------------------------------------


 k-point  1 :   0.0000 0.0000 0.0000  plane waves:   66299
 k-point  2 :   0.5000 0.0000 0.0000  plane waves:   66394
 k-point  3 :   0.0000 0.5000 0.0000  plane waves:   66394
 k-point  4 :   0.5000 0.5000 0.0000  plane waves:   66552
 k-point  5 :   0.0000 0.0000 0.5000  plane waves:   66394
 k-point  6 :   0.5000 0.0000 0.5000  plane waves:   66552
 k-point  7 :   0.0000 0.5000 0.5000  plane waves:   66552
 k-point  8 :   0.5000 0.5000 0.5000  plane waves:   66394

 maximum and minimum number of plane-waves per node :      4207     4110

 maximum number of plane-waves:     66552
 maximum index in each direction: 
   IXMAX=   28   IYMAX=   28   IZMAX=   28
   IXMIN=  -28   IYMIN=  -28   IZMIN=  -28


 parallel 3D FFT for wavefunctions:
    minimum data exchange during FFTs selected (reduces bandwidth)
 parallel 3D FFT for charge:
    minimum data exchange during FFTs selected (reduces bandwidth)


 total amount of memory used by VASP MPI-rank0   221701. kBytes
=======================================================================

   base      :      30000. kBytes
   nonl-proj :      10690. kBytes
   fftplans  :      66746. kBytes
   grid      :      26864. kBytes
   one-center:         24. kBytes
   wavefun   :      87377. kBytes
 
     INWAV:  cpu time    0.0000: real time    0.0003
 Broyden mixing: mesh for mixing (old mesh)
   NGX = 57   NGY = 57   NGZ = 57
  (NGX  =240   NGY  =240   NGZ  =240)
  gives a total of 185193 points

 initial charge density was supplied:
 charge density of overlapping atoms calculated
 number of electron     512.0000000 magnetization 
 keeping initial charge density in first step


--------------------------------------------------------------------------------------------------------


 Maximum index for augmentation-charges         5598 (set IRDMAX)


--------------------------------------------------------------------------------------------------------


 First call to EWALD:  gamma=   0.129
 Maximum number of real-space cells 3x 3x 3
 Maximum number of reciprocal cells 3x 3x 3

    FEWALD:  cpu time    0.0059: real time    0.0059


--------------------------------------- Iteration      1(   1)  ---------------------------------------


    POTLOK:  cpu time    0.4921: real time    0.4971
    SETDIJ:  cpu time    0.5183: real time    0.5184
     EDDAV:  cpu time   70.2872: real time   70.3151
       DOS:  cpu time    0.0056: real time    0.0056
    --------------------------------------------
      LOOP:  cpu time   71.3032: real time   71.3362

 eigenvalue-minimisations  :  5152
 total energy-change (2. order) : 0.1383204E+04  (-0.1908241E+05)
 number of electron     512.0000000 magnetization 
 augmentation part      512.0000000 magnetization 

 Free energy of the ion-electron system (eV)
  ---------------------------------------------------
  alpha Z        PSCENC =       210.77028614
  Ewald energy   TEWEN  =    -14471.02737988
  -Hartree energ DENC   =      -757.30816317
  -exchange      EXHF   =         0.00000000
  -V(xc)+E(xc)   XCENC  =     -1195.32642186
  PAW double counting   =      4221.13331941    -1969.18571412
  entropy T*S    EENTRO =        -0.00144213
  eigenvalues    EBANDS =      2151.66877477
  atomic energy  EATOM  =     13192.48085998
  Solvation  Ediel_sol  =         0.00000000
  ---------------------------------------------------
  free energy    TOTEN  =      1383.20411915 eV

  energy without entropy =     1383.20556128  energy(sigma->0) =     1383.20484021


--------------------------------------------------------------------------------------------------------




--------------------------------------- Iteration      1(   2)  ---------------------------------------


     EDDAV:  cpu time   80.2194: real time   80.2406
       DOS:  cpu time    0.0011: real time    0.0011
    --------------------------------------------
      LOOP:  cpu time   80.2205: real time   80.2417

 eigenvalue-minimisations  :  6120
 total energy-change (2. order) :-0.1921508E+04  (-0.1827359E+04)
 number of electron     512.0000000 magnetization 
 augmentation part      512.0000000 magnetization 

 Free energy of the ion-electron system (eV)
  ---------------------------------------------------
  alpha Z        PSCENC =       210.77028614
  Ewald energy   TEWEN  =    -14471.02737988
  -Hartree energ DENC   =      -757.30816317
  -exchange      EXHF   =         0.00000000
  -V(xc)+E(xc)   XCENC  =     -1195.32642186
  PAW double counting   =      4221.13331941    -1969.18571412
  entropy T*S    EENTRO =        -0.00000000
  eigenvalues    EBANDS =       230.15897267
  atomic energy  EATOM  =     13192.48085998
  Solvation  Ediel_sol  =         0.00000000
  ---------------------------------------------------
  free energy    TOTEN  =      -538.30424081 eV

  energy without entropy =     -538.30424081  energy(sigma->0) =     -538.30424081


--------------------------------------------------------------------------------------------------------




--------------------------------------- Iteration      1(   3)  ---------------------------------------


     EDDAV:  cpu time   81.9626: real time   81.9931
       DOS:  cpu time    0.0010: real time    0.0010
    --------------------------------------------
      LOOP:  cpu time   81.9636: real time   81.9941

 eigenvalue-minimisations  :  6288
 total energy-change (2. order) :-0.1492949E+03  (-0.1462882E+03)
 number of electron     512.0000000 magnetization 
 augmentation part      512.0000000 magnetization 

 Free energy of the ion-electron system (eV)
  ---------------------------------------------------
  alpha Z        PSCENC =       210.77028614
  Ewald energy   TEWEN  =    -14471.02737988
  -Hartree energ DENC   =      -757.30816317
  -exchange      EXHF   =         0.00000000
  -V(xc)+E(xc)   XCENC  =     -1195.32642186
  PAW double counting   =      4221.13331941    -1969.18571412
  entropy T*S    EENTRO =        -0.00000000
  eigenvalues    EBANDS =        80.86402560
  atomic energy  EATOM  =     13192.48085998
  Solvation  Ediel_sol  =         0.00000000
  ---------------------------------------------------
  free energy    TOTEN  =      -687.59918789 eV

  energy without entropy =     -687.59918789  energy(sigma->0) =     -687.59918789


--------------------------------------------------------------------------------------------------------




--------------------------------------- Iteration      1(   4)  ---------------------------------------


     EDDAV:  cpu time   80.6842: real time   80.7239
       DOS:  cpu time    0.0019: real time    0.0019
    --------------------------------------------
      LOOP:  cpu time   80.6861: real time   80.7258

 eigenvalue-minimisations  :  6168
 total energy-change (2. order) :-0.4235251E+01  (-0.4201091E+01)
 number of electron     512.0000000 magnetization 
 augmentation part      512.0000000 magnetization 

 Free energy of the ion-electron system (eV)
  ---------------------------------------------------
  alpha Z        PSCENC =       210.77028614
  Ewald energy   TEWEN  =    -14471.02737988
  -Hartree energ DENC   =      -757.30816317
  -exchange      EXHF   =         0.00000000
  -V(xc)+E(xc)   XCENC  =     -1195.32642186
  PAW double counting   =      4221.13331941    -1969.18571412
  entropy T*S    EENTRO =        -0.00000000
  eigenvalues    EBANDS =        76.62877410
  atomic energy  EATOM  =     13192.48085998
  Solvation  Ediel_sol  =         0.00000000
  ---------------------------------------------------
  free energy    TOTEN  =      -691.83443939 eV

  energy without entropy =     -691.83443939  energy(sigma->0) =     -691.83443939


--------------------------------------------------------------------------------------------------------




--------------------------------------- Iteration      1(   5)  ---------------------------------------


     EDDAV:  cpu time   82.5222: real time   82.5451
       DOS:  cpu time    0.0014: real time    0.0014
    CHARGE:  cpu time    3.2774: real time    3.2776
    MIXING:  cpu time    0.0444: real time    0.0444
    --------------------------------------------
      LOOP:  cpu time   85.8453: real time   85.8685

 eigenvalue-minimisations  :  6344
 total energy-change (2. order) :-0.1496923E+00  (-0.1493053E+00)
 number of electron     511.9999998 magnetization 
 augmentation part      -30.1748310 magnetization 

 Broyden mixing:
  rms(total) = 0.23984E+01    rms(broyden)= 0.23984E+01
  rms(prec ) = 0.29070E+01
  weight for this iteration     100.00

 Free energy of the ion-electron system (eV)
  ---------------------------------------------------
  alpha Z        PSCENC =       210.77028614
  Ewald energy   TEWEN  =    -14471.02737988
  -Hartree energ DENC   =      -757.30816317
  -exchange      EXHF   =         0.00000000
  -V(xc)+E(xc)   XCENC  =     -1195.32642186
  PAW double counting   =      4221.13331941    -1969.18571412
  entropy T*S    EENTRO =        -0.00000000
  eigenvalues    EBANDS =        76.47908182
  atomic energy  EATOM  =     13192.48085998
  Solvation  Ediel_sol  =         0.00000000
  ---------------------------------------------------
  free energy    TOTEN  =      -691.98413167 eV

  energy without entropy =     -691.98413167  energy(sigma->0) =     -691.98413167


--------------------------------------------------------------------------------------------------------




--------------------------------------- Iteration      1(   6)  ---------------------------------------


    POTLOK:  cpu time    0.4909: real time    0.4918
    SETDIJ:  cpu time    0.5194: real time    0.5195
     EDDAV:  cpu time   77.8914: real time   77.9249
       DOS:  cpu time    0.0020: real time    0.0020
    CHARGE:  cpu time    3.2674: real time    3.2704
    MIXING:  cpu time    0.0495: real time    0.0495
    --------------------------------------------
      LOOP:  cpu time   82.2206: real time   82.2581

 eigenvalue-minimisations  :  5904
 total energy-change (2. order) : 0.8470550E+01  (-0.5879858E+00)
 number of electron     511.9999998 magnetization 
 augmentation part      -29.8336764 magnetization 

 Broyden mixing:
  rms(total) = 0.14249E+01    rms(broyden)= 0.14249E+01
  rms(prec ) = 0.17175E+01
  weight for this iteration     100.00

 eigenvalues of (default mixing * dielectric matrix)
  average eigenvalue GAMMA=   2.4304
  2.4304

 Free energy of the ion-electron system (eV)
  ---------------------------------------------------
  alpha Z        PSCENC =       210.77028614
  Ewald energy   TEWEN  =    -14471.02737988
  -Hartree energ DENC   =      -852.62826470
  -exchange      EXHF   =         0.00000000
  -V(xc)+E(xc)   XCENC  =     -1180.65927137
  PAW double counting   =      4465.75621880    -2220.58012180
  entropy T*S    EENTRO =        -0.00000000
  eigenvalues    EBANDS =       172.37409121
  atomic energy  EATOM  =     13192.48085998
  Solvation  Ediel_sol  =         0.00000000
  ---------------------------------------------------
  free energy    TOTEN  =      -683.51358161 eV

  energy without entropy =     -683.51358161  energy(sigma->0) =     -683.51358161


--------------------------------------------------------------------------------------------------------




--------------------------------------- Iteration      1(   7)  ---------------------------------------


    POTLOK:  cpu time    0.4911: real time    0.4915
    SETDIJ:  cpu time    0.5199: real time    0.5199
     EDDAV:  cpu time   77.6469: real time   77.6820
       DOS:  cpu time    0.0014: real time    0.0014
    CHARGE:  cpu time    3.2622: real time    3.2632
    MIXING:  cpu time    0.0442: real time    0.0442
    --------------------------------------------
      LOOP:  cpu time   81.9657: real time   82.0022

 eigenvalue-minimisations  :  5880
 total energy-change (2. order) : 0.3536610E+01  (-0.1127974E+01)
 number of electron     511.9999998 magnetization 
 augmentation part      -29.3808185 magnetization 

 Broyden mixing:
  rms(total) = 0.15604E+00    rms(broyden)= 0.15604E+00
  rms(prec ) = 0.20253E+00
  weight for this iteration     100.00

 eigenvalues of (default mixing * dielectric matrix)
  average eigenvalue GAMMA=   2.1077
  2.1077  2.1077

 Free energy of the ion-electron system (eV)
  ---------------------------------------------------
  alpha Z        PSCENC =       210.77028614
  Ewald energy   TEWEN  =    -14471.02737988
  -Hartree energ DENC   =     -1003.29709126
  -exchange      EXHF   =         0.00000000
  -V(xc)+E(xc)   XCENC  =     -1156.70820263
  PAW double counting   =      4785.39124138    -2548.74267969
  entropy T*S    EENTRO =        -0.00000000
  eigenvalues    EBANDS =       311.15599388
  atomic energy  EATOM  =     13192.48085998
  Solvation  Ediel_sol  =         0.00000000
  ---------------------------------------------------
  free energy    TOTEN  =      -679.97697208 eV

  energy without entropy =     -679.97697208  energy(sigma->0) =     -679.97697208


--------------------------------------------------------------------------------------------------------




--------------------------------------- Iteration      1(   8)  ---------------------------------------


    POTLOK:  cpu time    0.4920: real time    0.4954
    SETDIJ:  cpu time    0.5227: real time    0.5227
     EDDAV:  cpu time   76.6097: real time   76.6272
       DOS:  cpu time    0.0021: real time    0.0021
    CHARGE:  cpu time    3.2818: real time    3.2832
    MIXING:  cpu time    0.0470: real time    0.0470
    --------------------------------------------
      LOOP:  cpu time   80.9553: real time   80.9776

 eigenvalue-minimisations  :  5776
 total energy-change (2. order) :-0.5679675E-01  (-0.1074704E+00)
 number of electron     511.9999998 magnetization 
 augmentation part      -29.4492598 magnetization 

 Broyden mixing:
  rms(total) = 0.62540E-01    rms(broyden)= 0.62540E-01
  rms(prec ) = 0.77422E-01
  weight for this iteration     100.00

 eigenvalues of (default mixing * dielectric matrix)
  average eigenvalue GAMMA=   2.0095
  2.6797  1.6744  1.6744

 Free energy of the ion-electron system (eV)
  ---------------------------------------------------
  alpha Z        PSCENC =       210.77028614
  Ewald energy   TEWEN  =    -14471.02737988
  -Hartree energ DENC   =      -996.96592703
  -exchange      EXHF   =         0.00000000
  -V(xc)+E(xc)   XCENC  =     -1156.80125277
  PAW double counting   =      4738.35943619    -2500.24501747
  entropy T*S    EENTRO =        -0.00000000
  eigenvalues    EBANDS =       303.39522602
  atomic energy  EATOM  =     13192.48085998
  Solvation  Ediel_sol  =         0.00000000
  ---------------------------------------------------
  free energy    TOTEN  =      -680.03376883 eV

  energy without entropy =     -680.03376883  energy(sigma->0) =     -680.03376883


--------------------------------------------------------------------------------------------------------




--------------------------------------- Iteration      1(   9)  ---------------------------------------


    POTLOK:  cpu time    0.4880: real time    0.4911
    SETDIJ:  cpu time    0.5208: real time    0.5213
     EDDAV:  cpu time   79.8950: real time   79.9268
       DOS:  cpu time    0.0017: real time    0.0017
    CHARGE:  cpu time    3.2962: real time    3.2966
    MIXING:  cpu time    0.0461: real time    0.0461
    --------------------------------------------
      LOOP:  cpu time   84.2478: real time   84.2837

 eigenvalue-minimisations  :  6088
 total energy-change (2. order) :-0.2227157E-01  (-0.1044870E-01)
 number of electron     511.9999998 magnetization 
 augmentation part      -29.4548171 magnetization 

 Broyden mixing:
  rms(total) = 0.28062E-01    rms(broyden)= 0.28062E-01
  rms(prec ) = 0.32687E-01
  weight for this iteration     100.00

 eigenvalues of (default mixing * dielectric matrix)
  average eigenvalue GAMMA=   1.7871
  2.5939  1.8324  1.8324  0.8894

 Free energy of the ion-electron system (eV)
  ---------------------------------------------------
  alpha Z        PSCENC =       210.77028614
  Ewald energy   TEWEN  =    -14471.02737988
  -Hartree energ DENC   =     -1003.46497207
  -exchange      EXHF   =         0.00000000
  -V(xc)+E(xc)   XCENC  =     -1155.65290207
  PAW double counting   =      4740.72869513    -2502.67790878
  entropy T*S    EENTRO =        -0.00000000
  eigenvalues    EBANDS =       308.78728115
  atomic energy  EATOM  =     13192.48085998
  Solvation  Ediel_sol  =         0.00000000
  ---------------------------------------------------
  free energy    TOTEN  =      -680.05604040 eV

  energy without entropy =     -680.05604040  energy(sigma->0) =     -680.05604040


--------------------------------------------------------------------------------------------------------




--------------------------------------- Iteration      1(  10)  ---------------------------------------


    POTLOK:  cpu time    0.4920: real time    0.4927
    SETDIJ:  cpu time    0.5148: real time    0.5149
     EDDAV:  cpu time   78.4996: real time   78.5204
       DOS:  cpu time    0.0019: real time    0.0019
    CHARGE:  cpu time    3.3708: real time    3.3754
    MIXING:  cpu time    0.0406: real time    0.0406
    --------------------------------------------
      LOOP:  cpu time   82.9198: real time   82.9459

 eigenvalue-minimisations  :  5968
 total energy-change (2. order) :-0.2475859E-02  (-0.8324023E-03)
 number of electron     511.9999998 magnetization 
 augmentation part      -29.4640104 magnetization 

 Broyden mixing:
  rms(total) = 0.11232E-01    rms(broyden)= 0.11232E-01
  rms(prec ) = 0.13525E-01
  weight for this iteration     100.00

 eigenvalues of (default mixing * dielectric matrix)
  average eigenvalue GAMMA=   1.8566
  2.6767  2.6767  1.5087  1.5087  0.9124

 Free energy of the ion-electron system (eV)
  ---------------------------------------------------
  alpha Z        PSCENC =       210.77028614
  Ewald energy   TEWEN  =    -14471.02737988
  -Hartree energ DENC   =     -1002.38319093
  -exchange      EXHF   =         0.00000000
  -V(xc)+E(xc)   XCENC  =     -1155.81684662
  PAW double counting   =      4733.85323930    -2495.63263167
  entropy T*S    EENTRO =        -0.00000000
  eigenvalues    EBANDS =       307.69714743
  atomic energy  EATOM  =     13192.48085998
  Solvation  Ediel_sol  =         0.00000000
  ---------------------------------------------------
  free energy    TOTEN  =      -680.05851626 eV

  energy without entropy =     -680.05851626  energy(sigma->0) =     -680.05851626


--------------------------------------------------------------------------------------------------------




--------------------------------------- Iteration      1(  11)  ---------------------------------------


    POTLOK:  cpu time    0.4877: real time    0.4906
    SETDIJ:  cpu time    0.5146: real time    0.5151
     EDDAV:  cpu time   76.8515: real time   76.8770
       DOS:  cpu time    0.0012: real time    0.0012
    CHARGE:  cpu time    3.3291: real time    3.3303
    MIXING:  cpu time    0.0409: real time    0.0409
    --------------------------------------------
      LOOP:  cpu time   81.2250: real time   81.2551

 eigenvalue-minimisations  :  5792
 total energy-change (2. order) :-0.1500978E-02  (-0.2367062E-03)
 number of electron     511.9999998 magnetization 
 augmentation part      -29.4664881 magnetization 

 Broyden mixing:
  rms(total) = 0.36621E-02    rms(broyden)= 0.36621E-02
  rms(prec ) = 0.51799E-02
  weight for this iteration     100.00

 eigenvalues of (default mixing * dielectric matrix)
  average eigenvalue GAMMA=   1.7727
  2.8397  2.0277  2.0277  1.6265  1.2395  0.8751

 Free energy of the ion-electron system (eV)
  ---------------------------------------------------
  alpha Z        PSCENC =       210.77028614
  Ewald energy   TEWEN  =    -14471.02737988
  -Hartree energ DENC   =     -1002.35548517
  -exchange      EXHF   =         0.00000000
  -V(xc)+E(xc)   XCENC  =     -1155.82040232
  PAW double counting   =      4729.71925169    -2491.40462244
  entropy T*S    EENTRO =        -0.00000000
  eigenvalues    EBANDS =       307.57747476
  atomic energy  EATOM  =     13192.48085998
  Solvation  Ediel_sol  =         0.00000000
  ---------------------------------------------------
  free energy    TOTEN  =      -680.06001723 eV

  energy without entropy =     -680.06001723  energy(sigma->0) =     -680.06001723


--------------------------------------------------------------------------------------------------------




--------------------------------------- Iteration      1(  12)  ---------------------------------------


    POTLOK:  cpu time    0.4901: real time    0.4915
    SETDIJ:  cpu time    0.5157: real time    0.5158
     EDDAV:  cpu time   80.3453: real time   80.3698
       DOS:  cpu time    0.0018: real time    0.0018
    CHARGE:  cpu time    3.3338: real time    3.3342
    MIXING:  cpu time    0.0409: real time    0.0409
    --------------------------------------------
      LOOP:  cpu time   84.7276: real time   84.7540

 eigenvalue-minimisations  :  6144
 total energy-change (2. order) :-0.7097775E-04  (-0.4284239E-04)
 number of electron     511.9999998 magnetization 
 augmentation part      -29.4646477 magnetization 

 Broyden mixing:
  rms(total) = 0.18098E-02    rms(broyden)= 0.18098E-02
  rms(prec ) = 0.21617E-02
  weight for this iteration     100.00

 eigenvalues of (default mixing * dielectric matrix)
  average eigenvalue GAMMA=   1.8369
  3.1649  2.6997  1.7721  1.7721  0.8934  1.2779  1.2779

 Free energy of the ion-electron system (eV)
  ---------------------------------------------------
  alpha Z        PSCENC =       210.77028614
  Ewald energy   TEWEN  =    -14471.02737988
  -Hartree energ DENC   =     -1002.94010916
  -exchange      EXHF   =         0.00000000
  -V(xc)+E(xc)   XCENC  =     -1155.75527546
  PAW double counting   =      4730.89519148    -2492.62112678
  entropy T*S    EENTRO =        -0.00000000
  eigenvalues    EBANDS =       308.13746547
  atomic energy  EATOM  =     13192.48085998
  Solvation  Ediel_sol  =         0.00000000
  ---------------------------------------------------
  free energy    TOTEN  =      -680.06008821 eV

  energy without entropy =     -680.06008821  energy(sigma->0) =     -680.06008821


--------------------------------------------------------------------------------------------------------




--------------------------------------- Iteration      1(  13)  ---------------------------------------


    POTLOK:  cpu time    0.4905: real time    0.4916
    SETDIJ:  cpu time    0.5147: real time    0.5147
     EDDAV:  cpu time   76.1885: real time   76.2023
       DOS:  cpu time    0.0011: real time    0.0011
    CHARGE:  cpu time    3.1224: real time    3.1240
    MIXING:  cpu time    0.0398: real time    0.0398
    --------------------------------------------
      LOOP:  cpu time   80.3570: real time   80.3737

 eigenvalue-minimisations  :  5728
 total energy-change (2. order) :-0.2832226E-04  (-0.1125866E-04)
 number of electron     511.9999998 magnetization 
 augmentation part      -29.4646754 magnetization 

 Broyden mixing:
  rms(total) = 0.64303E-03    rms(broyden)= 0.64301E-03
  rms(prec ) = 0.82414E-03
  weight for this iteration     100.00

 eigenvalues of (default mixing * dielectric matrix)
  average eigenvalue GAMMA=   1.7840
  3.1523  2.5487  1.9369  1.9369  1.3992  1.3992  0.9494  0.9494

 Free energy of the ion-electron system (eV)
  ---------------------------------------------------
  alpha Z        PSCENC =       210.77028614
  Ewald energy   TEWEN  =    -14471.02737988
  -Hartree energ DENC   =     -1002.92237737
  -exchange      EXHF   =         0.00000000
  -V(xc)+E(xc)   XCENC  =     -1155.76748509
  PAW double counting   =      4730.29575823    -2492.00950647
  entropy T*S    EENTRO =        -0.00000000
  eigenvalues    EBANDS =       308.11972792
  atomic energy  EATOM  =     13192.48085998
  Solvation  Ediel_sol  =         0.00000000
  ---------------------------------------------------
  free energy    TOTEN  =      -680.06011653 eV

  energy without entropy =     -680.06011653  energy(sigma->0) =     -680.06011653


--------------------------------------------------------------------------------------------------------




--------------------------------------- Iteration      1(  14)  ---------------------------------------


    POTLOK:  cpu time    0.4876: real time    0.4908
    SETDIJ:  cpu time    0.5139: real time    0.5140
     EDDAV:  cpu time   80.5089: real time   80.5393
       DOS:  cpu time    0.0014: real time    0.0014
    CHARGE:  cpu time    3.1118: real time    3.1128
    MIXING:  cpu time    0.0561: real time    0.0561
    --------------------------------------------
      LOOP:  cpu time   84.6796: real time   84.7144

 eigenvalue-minimisations  :  6168
 total energy-change (2. order) :-0.5684893E-05  (-0.9976394E-06)
 number of electron     511.9999998 magnetization 
 augmentation part      -29.4644777 magnetization 

 Broyden mixing:
  rms(total) = 0.17566E-03    rms(broyden)= 0.17560E-03
  rms(prec ) = 0.24622E-03
  weight for this iteration     100.00

 eigenvalues of (default mixing * dielectric matrix)
  average eigenvalue GAMMA=   1.7747
  3.2060  2.5910  2.2153  1.6759  1.6759  1.3402  1.3402  0.9984  0.9289

 Free energy of the ion-electron system (eV)
  ---------------------------------------------------
  alpha Z        PSCENC =       210.77028614
  Ewald energy   TEWEN  =    -14471.02737988
  -Hartree energ DENC   =     -1002.98391642
  -exchange      EXHF   =         0.00000000
  -V(xc)+E(xc)   XCENC  =     -1155.75915983
  PAW double counting   =      4730.48634102    -2492.20450286
  entropy T*S    EENTRO =        -0.00000000
  eigenvalues    EBANDS =       308.17734963
  atomic energy  EATOM  =     13192.48085998
  Solvation  Ediel_sol  =         0.00000000
  ---------------------------------------------------
  free energy    TOTEN  =      -680.06012222 eV

  energy without entropy =     -680.06012222  energy(sigma->0) =     -680.06012222


--------------------------------------------------------------------------------------------------------




--------------------------------------- Iteration      1(  15)  ---------------------------------------


    POTLOK:  cpu time    0.4896: real time    0.4907
    SETDIJ:  cpu time    0.5148: real time    0.5156
     EDDAV:  cpu time   80.7000: real time   80.7300
       DOS:  cpu time    0.0010: real time    0.0010
    CHARGE:  cpu time    3.1263: real time    3.1279
    MIXING:  cpu time    0.0422: real time    0.0422
    --------------------------------------------
      LOOP:  cpu time   84.8739: real time   84.9074

 eigenvalue-minimisations  :  6192
 total energy-change (2. order) :-0.3123438E-05  (-0.1486090E-06)
 number of electron     511.9999998 magnetization 
 augmentation part      -29.4643804 magnetization 

 Broyden mixing:
  rms(total) = 0.67847E-04    rms(broyden)= 0.67682E-04
  rms(prec ) = 0.91303E-04
  weight for this iteration     100.00

 eigenvalues of (default mixing * dielectric matrix)
  average eigenvalue GAMMA=   1.7285
  3.2584  2.6002  2.1123  1.7422  1.7422  1.4465  1.4465  1.0743  0.9312  0.9312

 Free energy of the ion-electron system (eV)
  ---------------------------------------------------
  alpha Z        PSCENC =       210.77028614
  Ewald energy   TEWEN  =    -14471.02737988
  -Hartree energ DENC   =     -1003.00489100
  -exchange      EXHF   =         0.00000000
  -V(xc)+E(xc)   XCENC  =     -1155.75799699
  PAW double counting   =      4730.54867384    -2492.26871246
  entropy T*S    EENTRO =        -0.00000000
  eigenvalues    EBANDS =       308.19903503
  atomic energy  EATOM  =     13192.48085998
  Solvation  Ediel_sol  =         0.00000000
  ---------------------------------------------------
  free energy    TOTEN  =      -680.06012534 eV

  energy without entropy =     -680.06012534  energy(sigma->0) =     -680.06012534


--------------------------------------------------------------------------------------------------------




--------------------------------------- Iteration      1(  16)  ---------------------------------------


    POTLOK:  cpu time    0.4927: real time    0.4941
    SETDIJ:  cpu time    0.5144: real time    0.5146
     EDDAV:  cpu time   79.0748: real time   79.1055
       DOS:  cpu time    0.0013: real time    0.0013
    CHARGE:  cpu time    3.0636: real time    3.0640
    MIXING:  cpu time    0.0358: real time    0.0359
    --------------------------------------------
      LOOP:  cpu time   83.1827: real time   83.2155

 eigenvalue-minimisations  :  6016
 total energy-change (2. order) : 0.4083486E-06  (-0.2572670E-07)
 number of electron     511.9999998 magnetization 
 augmentation part      -29.4643769 magnetization 

 Broyden mixing:
  rms(total) = 0.29635E-04    rms(broyden)= 0.29256E-04
  rms(prec ) = 0.39311E-04
  weight for this iteration     100.00

 eigenvalues of (default mixing * dielectric matrix)
  average eigenvalue GAMMA=   1.6977
  3.2825  2.6165  2.0528  2.0528  1.4303  1.4303  1.4391  1.4391  0.9071  1.0122
  1.0122

 Free energy of the ion-electron system (eV)
  ---------------------------------------------------
  alpha Z        PSCENC =       210.77028614
  Ewald energy   TEWEN  =    -14471.02737988
  -Hartree energ DENC   =     -1003.00442838
  -exchange      EXHF   =         0.00000000
  -V(xc)+E(xc)   XCENC  =     -1155.75798122
  PAW double counting   =      4730.54338049    -2492.26307053
  entropy T*S    EENTRO =        -0.00000000
  eigenvalues    EBANDS =       308.19820846
  atomic energy  EATOM  =     13192.48085998
  Solvation  Ediel_sol  =         0.00000000
  ---------------------------------------------------
  free energy    TOTEN  =      -680.06012493 eV

  energy without entropy =     -680.06012493  energy(sigma->0) =     -680.06012493


--------------------------------------------------------------------------------------------------------




--------------------------------------- Iteration      1(  17)  ---------------------------------------


    POTLOK:  cpu time    0.4892: real time    0.4925
    SETDIJ:  cpu time    0.5208: real time    0.5214
     EDDAV:  cpu time   62.3266: real time   62.3479
       DOS:  cpu time    0.0012: real time    0.0012
    CHARGE:  cpu time    3.0563: real time    3.0567
    MIXING:  cpu time    0.0461: real time    0.0461
    --------------------------------------------
      LOOP:  cpu time   66.4401: real time   66.4657

 eigenvalue-minimisations  :  4344
 total energy-change (2. order) : 0.6682239E-07  (-0.3513502E-08)
 number of electron     511.9999998 magnetization 
 augmentation part      -29.4643786 magnetization 

 Broyden mixing:
  rms(total) = 0.14829E-04    rms(broyden)= 0.14057E-04
  rms(prec ) = 0.17948E-04
  weight for this iteration     100.00

 eigenvalues of (default mixing * dielectric matrix)
  average eigenvalue GAMMA=   1.7090
  3.2977  2.6092  2.3477  1.8978  1.8978  1.4878  1.4878  0.9251  1.0018  1.0882
  1.2337  1.2337

 Free energy of the ion-electron system (eV)
  ---------------------------------------------------
  alpha Z        PSCENC =       210.77028614
  Ewald energy   TEWEN  =    -14471.02737988
  -Hartree energ DENC   =     -1003.00389005
  -exchange      EXHF   =         0.00000000
  -V(xc)+E(xc)   XCENC  =     -1155.75800746
  PAW double counting   =      4730.54477663    -2492.26437229
  entropy T*S    EENTRO =        -0.00000000
  eigenvalues    EBANDS =       308.19760206
  atomic energy  EATOM  =     13192.48085998
  Solvation  Ediel_sol  =         0.00000000
  ---------------------------------------------------
  free energy    TOTEN  =      -680.06012487 eV

  energy without entropy =     -680.06012487  energy(sigma->0) =     -680.06012487


--------------------------------------------------------------------------------------------------------




--------------------------------------- Iteration      1(  18)  ---------------------------------------


    POTLOK:  cpu time    0.4918: real time    0.4931
    SETDIJ:  cpu time    0.5162: real time    0.5163
     EDDAV:  cpu time   52.5927: real time   52.6011
       DOS:  cpu time    0.0012: real time    0.0012
    CHARGE:  cpu time    3.0606: real time    3.0612
    MIXING:  cpu time    0.0532: real time    0.0534
    --------------------------------------------
      LOOP:  cpu time   56.7159: real time   56.7263

 eigenvalue-minimisations  :  3368
 total energy-change (2. order) :-0.1364442E-06  (-0.9007774E-09)
 number of electron     511.9999998 magnetization 
 augmentation part      -29.4643735 magnetization 

 Broyden mixing:
  rms(total) = 0.70968E-05    rms(broyden)= 0.52978E-05
  rms(prec ) = 0.71963E-05
  weight for this iteration     100.00
  WARNING: grid for Broyden might be to small

 eigenvalues of (default mixing * dielectric matrix)
  average eigenvalue GAMMA=   1.7177
  3.2640  2.6781  2.4053  2.4053  1.7454  1.7454  1.2861  1.2861  1.2974  1.2974
  0.9241  0.9978  0.9978

 Free energy of the ion-electron system (eV)
  ---------------------------------------------------
  alpha Z        PSCENC =       210.77028614
  Ewald energy   TEWEN  =    -14471.02737988
  -Hartree energ DENC   =     -1003.00493923
  -exchange      EXHF   =         0.00000000
  -V(xc)+E(xc)   XCENC  =     -1155.75788988
  PAW double counting   =      4730.54937261    -2492.26904919
  entropy T*S    EENTRO =        -0.00000000
  eigenvalues    EBANDS =       308.19861445
  atomic energy  EATOM  =     13192.48085998
  Solvation  Ediel_sol  =         0.00000000
  ---------------------------------------------------
  free energy    TOTEN  =      -680.06012500 eV

  energy without entropy =     -680.06012500  energy(sigma->0) =     -680.06012500


--------------------------------------------------------------------------------------------------------




--------------------------------------- Iteration      1(  19)  ---------------------------------------


    POTLOK:  cpu time    0.4888: real time    0.4927
    SETDIJ:  cpu time    0.5158: real time    0.5167
     EDDAV:  cpu time   51.3435: real time   51.3625
       DOS:  cpu time    0.0014: real time    0.0014
    CHARGE:  cpu time    3.0628: real time    3.0631
    MIXING:  cpu time    0.0484: real time    0.0484
    --------------------------------------------
      LOOP:  cpu time   55.4608: real time   55.4847

 eigenvalue-minimisations  :  3248
 total energy-change (2. order) : 0.5868424E-07  (-0.2087405E-09)
 number of electron     511.9999998 magnetization 
 augmentation part      -29.4643754 magnetization 

 Broyden mixing:
  rms(total) = 0.54091E-05    rms(broyden)= 0.26384E-05
  rms(prec ) = 0.36490E-05
  weight for this iteration     100.00
  WARNING: grid for Broyden might be to small

 eigenvalues of (default mixing * dielectric matrix)
  average eigenvalue GAMMA=   1.6599
  3.3057  2.6984  2.3485  2.3485  1.7439  1.7439  1.3529  1.3529  1.3259  1.3259
  1.0015  1.0015  0.9148  0.7750

 Free energy of the ion-electron system (eV)
  ---------------------------------------------------
  alpha Z        PSCENC =       210.77028614
  Ewald energy   TEWEN  =    -14471.02737988
  -Hartree energ DENC   =     -1003.00444912
  -exchange      EXHF   =         0.00000000
  -V(xc)+E(xc)   XCENC  =     -1155.75792912
  PAW double counting   =      4730.54888760    -2492.26851297
  entropy T*S    EENTRO =        -0.00000000
  eigenvalues    EBANDS =       308.19811243
  atomic energy  EATOM  =     13192.48085998
  Solvation  Ediel_sol  =         0.00000000
  ---------------------------------------------------
  free energy    TOTEN  =      -680.06012494 eV

  energy without entropy =     -680.06012494  energy(sigma->0) =     -680.06012494


--------------------------------------------------------------------------------------------------------




--------------------------------------- Iteration      1(  20)  ---------------------------------------


    POTLOK:  cpu time    0.4888: real time    0.4921
    SETDIJ:  cpu time    0.5174: real time    0.5174
     EDDAV:  cpu time   50.5295: real time   50.5511
       DOS:  cpu time    0.0010: real time    0.0010
    --------------------------------------------
      LOOP:  cpu time   51.5366: real time   51.5616

 eigenvalue-minimisations  :  3168
 total energy-change (2. order) :-0.9145879E-08  (-0.4586259E-10)
 number of electron     511.9999998 magnetization 
 augmentation part      -29.4643754 magnetization 

 Free energy of the ion-electron system (eV)
  ---------------------------------------------------
  alpha Z        PSCENC =       210.77028614
  Ewald energy   TEWEN  =    -14471.02737988
  -Hartree energ DENC   =     -1003.00459232
  -exchange      EXHF   =         0.00000000
  -V(xc)+E(xc)   XCENC  =     -1155.75791569
  PAW double counting   =      4730.54905821    -2492.26869132
  entropy T*S    EENTRO =        -0.00000000
  eigenvalues    EBANDS =       308.19824992
  atomic energy  EATOM  =     13192.48085998
  Solvation  Ediel_sol  =         0.00000000
  ---------------------------------------------------
  free energy    TOTEN  =      -680.06012495 eV

  energy without entropy =     -680.06012495  energy(sigma->0) =     -680.06012495


--------------------------------------------------------------------------------------------------------




 average (electrostatic) potential at core
  the test charge radii are     0.9892
  (the norm of the test charge is              1.0000)
       1 -83.6055       2 -83.5499       3 -83.6007       4 -83.6063       5 -83.4090
       6 -83.4985       7 -83.4304       8 -83.4825       9 -83.5966      10 -83.5187
      11 -83.5536      12 -83.6313      13 -83.4646      14 -83.5265      15 -83.4224
      16 -83.6180      17 -83.4246      18 -83.4902      19 -83.4910      20 -83.4637
      21 -83.3937      22 -83.2787      23 -83.4148      24 -83.4107      25 -83.4459
      26 -83.3635      27 -83.4712      28 -83.5608      29 -83.4048      30 -83.2869
      31 -83.4373      32 -83.4582      33 -83.5950      34 -83.5518      35 -83.4933
      36 -83.6443      37 -83.5410      38 -83.5817      39 -83.5066      40 -83.6555
      41 -83.6182      42 -83.5451      43 -83.6045      44 -83.5772      45 -83.6624
      46 -83.5905      47 -83.5385      48 -83.5455      49 -83.4778      50 -83.5992
      51 -83.4524      52 -83.5566      53 -83.3525      54 -83.4405      55 -83.5194
      56 -83.5145      57 -83.5452      58 -83.6354      59 -83.4892      60 -83.5971
      61 -83.5448      62 -83.4601      63 -83.4613      64 -83.6087      65 -83.4624
      66 -83.5898      67 -83.4925      68 -83.5274      69 -83.5183      70 -83.4764
      71 -83.3313      72 -83.4412      73 -83.5491      74 -83.5398      75 -83.6039
      76 -83.7170      77 -83.4380      78 -83.4647      79 -83.4716      80 -83.5217
      81 -83.4773      82 -83.5482      83 -83.5233      84 -83.5322      85 -83.3261
      86 -83.3208      87 -83.4599      88 -83.3795      89 -83.4595      90 -83.3627
      91 -83.6186      92 -83.5091      93 -83.4003      94 -83.4545      95 -83.4180
      96 -83.4058      97 -83.5336      98 -83.5768      99 -83.5353     100 -83.7328
     101 -83.4718     102 -83.4502     103 -83.6244     104 -83.5502     105 -83.6110
     106 -83.6926     107 -83.5794     108 -83.6179     109 -83.4702     110 -83.4667
     111 -83.5090     112 -83.6305     113 -83.5763     114 -83.4511     115 -83.6533
     116 -83.7100     117 -83.4208     118 -83.5885     119 -83.4575     120 -83.5200
     121 -83.5607     122 -83.5568     123 -83.4753     124 -83.6704     125 -83.4412
     126 -83.4738     127 -83.4688     128 -83.5212
 
 
 
 E-fermi :   5.8802     XC(G=0):  -9.3317     alpha+bet :-11.7321


 k-point     1 :       0.0000    0.0000    0.0000
  band No.  band energies     occupation 
      1      -6.2977      2.00000
      2      -5.7024      2.00000
      3      -5.6267      2.00000
      4      -5.5972      2.00000
      5      -5.5631      2.00000
      6      -5.5366      2.00000
      7      -5.4621      2.00000
      8      -5.4514      2.00000
      9      -5.3174      2.00000
     10      -5.2911      2.00000
     11      -5.2608      2.00000
     12      -5.2433      2.00000
     13      -5.2003      2.00000
     14      -5.1533      2.00000
     15      -5.1309      2.00000
     16      -4.4593      2.00000
     17      -4.4402      2.00000
     18      -4.4039      2.00000
     19      -4.3547      2.00000
     20      -4.3439      2.00000
     21      -4.3323      2.00000
     22      -4.2866      2.00000
     23      -4.2753      2.00000
     24      -4.2647      2.00000
     25      -4.2214      2.00000
     26      -4.1996      2.00000
     27      -4.0960      2.00000
     28      -4.0594      2.00000
     29      -4.0005      2.00000
     30      -3.9741      2.00000
     31      -3.9260      2.00000
     32      -3.8901      2.00000
     33      -3.8318      2.00000
     34      -3.8115      2.00000
     35      -3.7693      2.00000
     36      -3.7524      2.00000
     37      -3.7273      2.00000
     38      -3.6873      2.00000
     39      -3.6810      2.00000
     40      -3.6577      2.00000
     41      -3.6172      2.00000
     42      -3.6009      2.00000
     43      -3.5801      2.00000
     44      -3.5700      2.00000
     45      -3.5509      2.00000
     46      -3.5115      2.00000
     47      -3.4674      2.00000
     48      -3.4521      2.00000
     49      -3.4281      2.00000
     50      -3.3789      2.00000
     51      -3.3554      2.00000
     52      -3.3005      2.00000
     53      -3.2821      2.00000
     54      -3.2170      2.00000
     55      -3.1711      2.00000
     56      -2.3511      2.00000
     57      -2.3090      2.00000
     58      -2.2583      2.00000
     59      -2.2335      2.00000
     60      -2.2048      2.00000
     61      -2.1786      2.00000
     62      -2.1226      2.00000
     63      -2.1022      2.00000
     64      -2.0856      2.00000
     65      -2.0543      2.00000
     66      -1.9931      2.00000
     67      -1.9703      2.00000
     68      -1.9542      2.00000
     69      -1.9414      2.00000
     70      -1.8939      2.00000
     71      -1.8847      2.00000
     72      -1.8382      2.00000
     73      -1.7593      2.00000
     74      -1.3457      2.00000
     75      -1.3116      2.00000
     76      -1.2585      2.00000
     77      -1.2502      2.00000
     78      -1.0110      2.00000
     79      -0.9892      2.00000
     80      -0.9711      2.00000
     81      -0.9267      2.00000
     82      -0.9101      2.00000
     83      -0.8729      2.00000
     84      -0.8406      2.00000
     85      -0.8191      2.00000
     86      -0.7962      2.00000
     87      -0.7688      2.00000
     88      -0.7401      2.00000
     89      -0.7225      2.00000
     90      -0.7074      2.00000
     91      -0.6840      2.00000
     92      -0.6506      2.00000
     93      -0.6301      2.00000
     94      -0.5932      2.00000
     95      -0.5812      2.00000
     96      -0.5569      2.00000
     97      -0.5263      2.00000
     98      -0.5122      2.00000
     99      -0.4700      2.00000
    100      -0.4484      2.00000
    101      -0.3970      2.00000
    102      -0.0078      2.00000
    103       0.0394      2.00000
[...]
   0.218E+00 0.930E+01 -.413E+01   -.417E+00 -.878E+01 0.386E+01   0.520E+00 -.238E+01 0.102E+01   0.105E-06 -.798E-06 0.216E-05
   -.808E+01 -.375E+01 -.133E+02   0.740E+01 0.371E+01 0.116E+02   0.988E+00 -.176E+00 0.375E+01   0.197E-05 0.211E-05 0.372E-05
   0.620E+00 0.445E+01 0.396E+01   0.181E+00 -.269E+01 -.412E+01   -.136E+01 -.243E+01 -.492E-01   0.961E-07 -.366E-05 -.319E-05
   0.158E+01 -.302E+01 0.319E+01   -.155E+01 0.248E+01 -.361E+01   -.513E+00 0.115E+01 -.306E+00   -.625E-06 0.228E-05 -.359E-05
   0.487E+01 0.399E+01 0.614E+00   -.429E+01 -.362E+01 -.722E+00   -.119E+01 -.115E+01 0.601E+00   -.129E-05 0.407E-05 -.518E-06
   -.327E+01 0.370E+01 0.272E+01   0.278E+01 -.335E+01 -.232E+01   0.187E+01 -.109E+01 -.624E+00   -.422E-06 -.421E-05 0.137E-05
   0.367E+01 -.350E+01 -.113E+01   -.341E+01 0.236E+01 0.133E+01   -.719E+00 0.106E+01 0.735E+00   0.496E-06 -.183E-06 0.396E-05
   -.343E+01 -.807E+01 0.180E+01   0.341E+01 0.648E+01 -.874E+00   0.802E+00 0.342E+01 -.737E+00   0.227E-05 -.243E-06 -.247E-06
   -.291E+01 -.275E+01 -.255E+01   0.238E+01 0.299E+01 0.287E+01   0.423E+00 -.303E-01 0.645E+00   -.132E-05 -.216E-05 0.420E-06
   0.229E+00 -.457E+01 0.531E+01   -.693E+00 0.392E+01 -.504E+01   0.293E+00 0.149E+01 -.143E+01   -.154E-05 0.174E-05 0.161E-05
   -.394E+01 -.239E+01 -.976E+01   0.277E+01 0.163E+01 0.940E+01   0.138E+01 0.124E+01 0.198E+01   -.928E-06 0.126E-05 0.711E-07
   0.101E+02 0.331E+01 0.838E+00   -.931E+01 -.340E+01 -.164E+00   -.317E+01 0.673E+00 -.620E+00   -.377E-05 -.126E-05 -.308E-05
   0.388E+01 -.401E+01 0.109E+02   -.405E+01 0.347E+01 -.946E+01   -.761E+00 0.106E+01 -.272E+01   -.483E-05 0.221E-05 -.289E-05
   -.239E+01 -.970E+01 -.424E+01   0.257E+01 0.856E+01 0.448E+01   -.894E+00 0.198E+01 0.895E+00   -.176E-05 -.313E-06 0.297E-05
   -.146E+02 0.231E+01 -.111E+02   0.133E+02 -.287E+01 0.103E+02   0.341E+01 0.898E+00 0.262E+01   0.208E-06 -.350E-05 0.177E-05
   -.372E+00 0.330E+01 -.564E+01   0.390E+00 -.391E+01 0.458E+01   -.350E+00 -.441E-01 0.319E+01   -.333E-05 -.426E-05 0.400E-05
   0.338E+01 0.171E+01 -.381E+00   -.262E+01 -.168E+01 0.734E+00   -.253E+01 -.896E+00 0.612E+00   -.376E-05 -.274E-05 0.564E-05
   0.530E+01 -.588E+01 0.115E+02   -.534E+01 0.575E+01 -.963E+01   -.602E+00 0.766E+00 -.227E+01   -.359E-05 -.868E-06 -.164E-05
   0.194E+01 0.210E+01 0.633E+01   -.316E+01 -.246E+01 -.613E+01   0.124E+01 0.437E-02 -.710E+00   -.120E-05 -.215E-05 -.101E-05
   0.381E+01 -.306E+01 0.146E+01   -.393E+01 0.250E+01 -.175E+01   -.101E+01 0.220E+01 0.726E+00   0.107E-05 -.434E-06 0.296E-05
   0.281E+01 0.979E+00 -.382E+01   -.248E+01 -.120E+00 0.344E+01   -.153E+01 -.128E+01 0.182E+01   -.188E-05 -.164E-05 0.337E-05
   0.126E+01 0.188E+02 -.722E+01   -.592E+00 -.167E+02 0.645E+01   -.114E+01 -.480E+01 0.162E+01   0.724E-06 -.549E-05 0.509E-05
   -.220E+01 0.141E+02 -.544E+01   0.196E+01 -.127E+02 0.499E+01   0.847E+00 -.425E+01 0.215E+00   0.198E-05 -.420E-05 0.246E-05
   0.924E+01 -.844E+01 -.872E+01   -.810E+01 0.786E+01 0.810E+01   -.273E+01 0.135E+01 0.163E+01   -.337E-05 -.156E-05 0.244E-05
   -.936E+01 0.143E+01 -.844E+01   0.854E+01 -.213E+01 0.784E+01   0.273E+01 0.174E+01 0.191E+01   0.127E-05 -.192E-05 0.438E-05
   -.317E+01 0.650E+01 -.145E+01   0.302E+01 -.537E+01 0.818E+00   0.257E+00 -.183E+01 0.330E+00   -.396E-05 -.221E-08 0.221E-05
   0.181E+01 -.232E+01 0.357E+01   -.115E+01 0.169E+01 -.260E+01   -.587E+00 0.204E+01 -.289E+01   -.328E-05 -.552E-06 -.362E-05
   0.255E+01 0.147E+01 -.246E+01   -.204E+01 -.588E+00 0.172E+01   -.969E+00 -.168E+01 0.133E+01   -.430E-05 -.170E-05 -.852E-06
   -.349E+01 -.679E+00 -.463E+00   0.312E+01 0.112E+01 -.449E+00   0.183E+01 -.680E+00 0.114E+01   -.236E-05 0.175E-05 0.230E-05
   -.532E+01 0.987E+01 -.164E+02   0.539E+01 -.876E+01 0.147E+02   0.139E+01 -.102E+01 0.298E+01   0.467E-06 -.373E-05 0.542E-05
   0.461E+00 0.110E+02 0.363E+01   -.513E+00 -.104E+02 -.287E+01   0.255E+00 -.131E+01 -.321E+01   0.762E-06 -.515E-05 -.418E-05
   -.258E+01 -.193E+01 -.561E+00   0.289E+01 0.218E+01 0.223E+00   -.260E-01 -.594E-01 0.285E+00   0.112E-05 -.280E-06 0.233E-05
   -.690E+01 -.226E+01 -.325E+01   0.684E+01 0.219E+01 0.277E+01   0.192E+01 0.127E+01 0.216E+01   0.157E-05 0.132E-05 0.519E-05
   0.832E+01 -.536E+01 0.598E+01   -.793E+01 0.442E+01 -.557E+01   0.239E+00 0.265E+01 -.139E+01   -.364E-05 0.917E-06 -.285E-05
   0.104E+02 0.782E+00 -.360E+00   -.980E+01 -.515E+00 0.416E+00   -.121E+01 -.650E+00 0.893E+00   -.472E-06 0.627E-06 0.274E-05
   0.896E+01 -.136E+02 0.500E+01   -.817E+01 0.127E+02 -.433E+01   -.186E+01 0.269E+01 -.262E+01   -.130E-05 0.104E-05 0.273E-06
   0.859E+01 0.199E+01 -.209E+01   -.820E+01 -.138E+01 0.159E+01   -.151E+01 -.717E+00 0.129E+01   -.390E-05 -.243E-05 0.493E-06
   -.555E+01 -.105E+01 0.709E+01   0.550E+01 0.256E+00 -.622E+01   -.374E+00 -.647E-01 -.151E+01   0.104E-05 0.499E-05 -.999E-06
   -.400E+01 -.105E+01 0.170E+02   0.440E+01 0.154E+01 -.149E+02   0.106E-02 -.141E+00 -.495E+01   0.119E-05 -.253E-05 -.697E-05
   -.517E+01 0.275E+01 0.789E+00   0.461E+01 -.205E+01 -.508E+00   0.175E+01 -.310E+01 -.120E+01   0.300E-05 -.424E-05 -.252E-05
   -.717E+01 -.242E+01 -.195E+01   0.676E+01 0.156E+01 0.231E+01   0.494E+00 0.783E+00 0.439E+00   0.228E-05 0.370E-05 0.298E-05
   -.565E+01 0.458E+01 0.411E+00   0.565E+01 -.421E+01 -.102E+01   0.403E-01 -.116E+01 0.719E+00   0.955E-06 0.165E-05 -.583E-06
   0.106E+01 -.587E+01 -.268E+01   -.798E+00 0.534E+01 0.235E+01   -.191E+01 0.177E+01 -.405E+00   -.472E-06 0.141E-05 -.232E-05
   -.109E+01 -.248E+01 -.242E+01   0.923E+00 0.239E+01 0.169E+01   0.116E+01 0.871E+00 0.681E+00   0.187E-05 0.184E-05 -.174E-05
   -.119E+02 -.141E+01 0.476E+01   0.108E+02 0.153E+01 -.452E+01   0.274E+01 0.277E+00 -.285E+00   0.168E-05 0.307E-05 -.565E-06
   -.764E+01 0.129E+02 0.400E+01   0.675E+01 -.122E+02 -.352E+01   0.241E+01 -.285E+01 -.147E+01   0.361E-05 -.239E-05 -.347E-05
   0.127E+01 -.729E+00 0.160E+02   -.144E+01 0.104E+01 -.145E+02   0.870E+00 -.618E-01 -.373E+01   0.358E-05 -.212E-06 -.505E-05
   0.492E+01 -.610E+01 -.221E+01   -.445E+01 0.596E+01 0.221E+01   0.122E+00 0.947E+00 -.576E+00   0.236E-05 0.229E-06 0.837E-06
   0.142E+01 -.512E+01 0.535E+00   -.180E+01 0.468E+01 -.677E-01   -.744E+00 0.106E+01 0.707E-01   0.321E-06 0.290E-05 0.177E-05
   0.165E+01 -.712E+01 0.408E+01   -.130E+01 0.611E+01 -.422E+01   -.282E+00 0.148E+01 0.646E+00   0.182E-05 0.505E-05 -.171E-05
   -.469E+01 -.791E+01 -.446E+01   0.431E+01 0.807E+01 0.372E+01   0.107E-01 0.657E+00 0.154E+01   0.544E-05 0.145E-05 0.117E-05
   0.305E+01 -.661E+01 -.181E+01   -.281E+01 0.638E+01 0.822E+00   -.772E+00 0.314E+00 0.147E+01   -.391E-06 0.499E-06 -.113E-05
   0.878E+01 -.615E+00 0.966E+01   -.759E+01 0.629E+00 -.883E+01   -.245E+01 0.805E+00 -.147E+01   -.586E-05 0.274E-05 -.522E-05
 -----------------------------------------------------------------------------------------------
   -.110E+00 -.377E+00 -.940E+00   -.826E-13 -.533E-14 -.373E-13   0.110E+00 0.377E+00 0.940E+00   -.299E-06 -.114E-05 0.715E-06
 
 
 POSITION                                       TOTAL-FORCE (eV/Angst)
 -----------------------------------------------------------------------------------
      0.08514     10.90099     10.92671        -1.043635     -0.213385     -0.927980
     11.04176     13.70657      2.91353        -1.026819     -2.157949     -1.622643
      0.12187      5.44366      5.37766         0.338564      0.552187      1.289546
     11.03004      8.33623     19.13532        -0.994158     -0.883349     -0.663784
     13.59641     21.82969     13.61324         1.959222     -0.173064      1.316007
      2.77934      2.78694      5.55715         0.564169     -0.914084      0.497597
     13.69048     16.39375      8.35202        -0.549714     -0.862635     -0.938410
      2.86734      8.34596     10.80562        -1.794587     -0.429520      1.291713
     16.45103     21.84285     16.47272        -0.898866      0.404966      0.267625
      5.67753      2.83583      8.12598        -1.580892     -1.175717      0.898891
     16.33238     16.34493     10.99972         0.521787      0.147551      0.881290
     16.41573     19.14400     13.71476        -0.306171      0.494395      0.622270
     19.23783     10.93343      8.35999        -1.293687     -0.257382     -1.808169
     19.07074     13.65432     10.92209         1.645917      0.032462      0.735013
      8.29361      5.44108     13.68035        -0.541637      0.850268      0.001381
     19.13040     19.07069     16.45229         0.204072      0.626771     -0.381594
     13.72632      2.79935     10.92718        -0.115423     -0.959411     -0.129440
      2.89460      5.31140      2.84625        -1.060109      1.719422     -0.303549
     13.62803      8.23713     16.43228         0.714258     -1.198017     -0.843063
      2.85469     10.97641      8.31406         0.063261      0.824164     -2.658612
      5.59308     13.64375     13.60545        -0.882989      0.360812      0.869280
      5.42539      5.45746      5.46269         0.375729      0.000986     -0.859641
      5.32464      8.17988      8.10871         1.717366     -1.214305      0.982470
      5.40018     10.89091     11.04516         2.409670      0.727764     -1.520102
      8.26662     13.67977     16.38373         0.009809     -0.651535     -0.266155
      8.23590      5.41910      8.34532        -0.703910     -0.290485     -2.436994
      8.26461      8.29610     10.96405        -0.716514     -1.472124     -0.443857
      8.13403     10.88010     13.73554         1.919006      0.370650     -0.397978
     10.71676      2.63521      8.16137         3.077246      0.696321     -0.993107
     10.95808      5.30080     11.00457         0.561876      1.765511     -1.197379
     10.83988      8.27466     13.63686         0.298990     -0.900274     -0.632242
     10.77456     10.84669     16.31227         2.411789      0.239537     -0.348160
     16.45233      5.55272     10.90188         0.574584     -1.279467      1.307965
     16.47654      8.29972     13.63027        -0.620515      0.682433      0.845139
      5.57559     10.95052      5.43857        -0.868371     -0.775701      2.158804
      5.50098     13.62713      8.25551         0.141676     -0.830945     -1.668308
      8.27208      5.55805      2.74747        -1.186823     -0.291557      0.784482
      8.30731      8.15177      5.42334        -1.420857      0.912857      0.324576
      8.13428     10.97938      8.11992         0.944195     -0.335354      1.329641
      8.38668     13.56899     11.03065        -1.640971      0.033273     -1.053668
     11.02387     16.44627     16.43875        -0.834821     -1.184373     -0.945734
     10.90046      8.37143      8.02017         0.985375     -1.551241      2.777204
     10.98389     10.91611     10.92679         0.182863      1.754721     -0.244358
     10.95448     13.57999     13.67905        -0.184191      0.605889     -2.208780
     13.90141     16.53907     19.23177        -2.201041     -1.465667     -1.094388
     13.81690      8.25271     10.95464        -0.929850     -0.643523      0.953429
     13.77649     10.86741     13.79995        -0.128066      0.330104     -0.466201
     13.65440     13.67568     16.48834         0.165600      0.288259     -0.932447
     18.92227      8.15169     11.00479         3.170161      1.978347     -1.478099
     19.07996     10.93286     13.69236         1.671957      1.057974     -0.016484
      8.24802     13.59879      5.44717        -0.269457      2.637797      0.662001
     19.11424     16.45318     19.16439        -0.039854     -0.565607      1.341242
     10.88164      8.17667      2.70588         0.498767      0.852943      0.089319
     10.98439     11.03978      5.47397         0.302728     -1.735364      1.148256
     10.92887     13.63597      8.09918         0.076610      0.778222     -0.646244
     10.88428     16.38447     10.90803        -0.380455     -0.023317     -0.239833
     13.56778      8.12497      5.54565         1.129874      1.031513     -1.035568
     13.61741     10.79230      8.03583         0.198134      0.627282      3.649137
     13.78397     13.64809     10.87753        -1.608551      0.105891      0.837852
     13.62865     16.44220     13.79999        -0.782484     -0.305644     -1.107661
     16.65907     19.14116     19.21727        -2.063266     -0.294320     -0.695344
     16.45222     11.06338     11.02273         0.056118     -0.774255     -1.154757
     16.44509     13.71493     13.60634        -0.188972     -0.985734      0.997224
     16.31227     16.35932     16.44324         1.974505     -0.028565     -0.613733
      1.49523      1.19634      1.22984        -0.576979      2.485366      0.920960
      1.50453      3.97661      4.14595        -0.097156      1.395519      0.288099
      1.46236      6.91733      6.91499        -0.551866     -1.368386     -0.116244
      1.46724      9.67198      9.38504        -0.608933     -0.646585      2.319697
      4.16167      1.42469      4.29203        -0.090631     -0.485986     -2.178204
      4.19878      4.06540      6.83579        -0.761966      1.121991      1.018416
      4.02804      6.76457      9.72615         1.219652      0.339463     -1.367228
      4.20228      9.53901     12.31028        -1.662949     -0.269323      0.992816
      6.84747      1.38648      6.79436         1.436279     -0.595363      0.688553
      6.86714      4.08641      9.63324        -0.545001      0.840775      0.145939
      6.77906      6.94288     12.39775         1.398412     -1.495330     -1.173386
      6.78768      9.65328     15.05108         0.321638     -1.859819      0.743785
      9.54748      1.38175      9.56040         0.311068     -0.215845      1.990715
      9.64848      4.05044     12.39360        -0.556094     -0.676878     -0.209086
      9.64841      6.79884     15.09370        -0.487847      0.610881     -0.724653
      9.56354      9.61832     17.78067        -0.609623     -0.774014      0.494334
      4.11082      4.15610      1.34235         1.387827     -0.734842     -0.226043
      4.19194      6.88836      4.01867        -0.457322     -0.084399      0.941408
      4.03249      9.50447      6.79784         0.785007      1.830877      0.186030
      4.17891     12.31131      9.60510        -0.104939      0.211653      0.966701
      6.86509      4.05825      4.17494        -0.170605      0.839325     -1.152304
      6.84179      6.75237      6.70216         0.207844      0.480693      1.619472
      6.97041      9.50870      9.50746        -2.352753      0.584193      0.053047
      6.94314     12.20498     12.38598        -0.928669      0.528095     -1.327765
      9.62706      4.08156      6.73981        -0.714239      0.833349      1.134259
      9.44586      6.93100      9.40384         2.107904      0.336646      1.740353
      9.56451      9.70680     12.15224        -0.332067     -0.650049      2.126240
      9.64834     12.32660     14.94939        -1.760648     -0.860896      0.965080
     12.35458      4.01218      9.51579        -0.649468      0.644380     -0.402439
     12.34606      6.80374     12.41670         0.025604     -0.352164     -0.510118
     12.35674      9.38231     14.94949        -1.124285      1.635336      0.439654
     12.33984     12.21805     17.65385        -1.198133     -0.416431      1.444231
      6.82403      6.97219      1.42278        -0.468336     -2.762402      0.842051
      6.84631      9.73693      4.11542         0.603739     -2.807368     -0.237973
      6.95652     12.27471      6.72278        -1.591873      0.768534      1.014277
      6.76300     14.92554      9.55864         1.904275      1.030290      1.305387
      9.65606      6.87038      4.12912         0.107106     -0.699499     -0.299276
      9.48034      9.57046      6.88746         0.078066      1.408984     -1.915460
      9.65438     12.32137      9.45629        -0.459452     -0.794961      0.593511
      9.47733     15.08866     12.32763         1.459416     -0.234591      0.226221
     12.21634      6.82817      6.85976         1.451891      0.089536      1.290826
     12.33077      9.56070      9.74404         0.203219     -0.709406     -2.455986
     12.39982     12.23692     12.33378         0.282924      0.184271     -0.053484
     12.16301     14.93565     14.96192         1.860472      1.195234      1.669400
     15.12828      6.85106      9.68492         0.631628      1.706689     -0.975031
     15.15291      9.66684     12.25099        -0.636523     -0.382557      0.949046
     15.14438     12.23223     15.23389        -1.077765      1.820709     -1.945251
     15.12305     15.00866     17.80128        -1.119343     -0.103895      0.784469
      9.55694      9.63132      1.40738        -0.421256     -0.854249     -0.633619
      9.56391     12.25866      4.31189         0.404480      0.356123     -2.911250
      9.49924     15.29471      6.82532         1.185824     -2.401099     -0.915247
      9.54125     17.88287      9.51977         0.085183     -0.075607      0.795600
     12.25445      9.60861      4.08286         0.037020     -0.802877      0.108791
     12.46398     12.25358      6.85698        -1.644308      1.243732     -0.734887
     12.18436     14.89381      9.59240         0.992973      0.783571     -0.047510
     12.18869     17.77818     12.25148         1.667016      0.406078     -0.044877
     15.03399      9.57617      6.90442         1.526158     -2.136359     -0.994876
     15.02749     12.23089      9.63640         0.699662      0.251083     -2.249924
     14.90346     14.97785     12.42712         0.590553      0.806336     -0.581340
     15.10303     17.74350     15.05842        -1.121909      0.613178      0.537783
     17.78412      9.63354      9.63240         0.069353      0.468082      0.506787
     17.84719     12.29421     12.28935        -0.367974      0.824594      0.806221
     17.84150     15.01850     14.99483        -0.536280      0.088494      0.488902
     17.84208     17.66165     17.78411        -1.263220      0.819710     -0.640485
 -----------------------------------------------------------------------------------
    total drift:                               -0.000007     -0.000008      0.000015


--------------------------------------------------------------------------------------------------------



  FREE ENERGIE OF THE ION-ELECTRON SYSTEM (eV)
  ---------------------------------------------------
  free  energy   TOTEN  =      -680.06012495 eV

  energy  without entropy=     -680.06012495  energy(sigma->0) =     -680.06012495
 


--------------------------------------------------------------------------------------------------------


    POTLOK:  cpu time    0.9986: real time    1.0019


--------------------------------------------------------------------------------------------------------


     LOOP+:  cpu time 1659.5575: real time 1660.1669
    4ORBIT:  cpu time    0.0000: real time    0.0000

 total amount of memory used by VASP MPI-rank0   221701. kBytes
=======================================================================

   base      :      30000. kBytes
   nonl-proj :      10690. kBytes
   fftplans  :      66746. kBytes
   grid      :      26864. kBytes
   one-center:         24. kBytes
   wavefun   :      87377. kBytes
 
  
  
 General timing and accounting informations for this job:
 ========================================================
  
                  Total CPU time used (sec):     1683.535
                            User time (sec):     1682.199
                          System time (sec):        1.336
                         Elapsed time (sec):     1685.149
  
                   Maximum memory used (kb):      338304.
                   Average memory used (kb):           0.
  
                          Minor page faults:       171621
                          Major page faults:            0
                 Voluntary context switches:         1320
