<?xml version="1.0" encoding="ISO-8859-1"?>
<modeling>
 <generator>
  <i name="program" type="string">vasp </i>
  <i name="version" type="string">5.4.4.18Apr17-6-g9f103f2a35  </i>
  <i name="subversion" type="string">(build Nov 08 2017 09:05:29) complex            parallel </i>
  <i name="platform" type="string">Intel_17.33 </i>
  <i name="date" type="string">2020 07 18 </i>
  <i name="time" type="string">18:48:07 </i>
 </generator>
 <incar>
  <i type="string" name="SYSTEM">potpaw_PBE@./ARUN.APL1ZEROSTATE</i>
  <i type="string" name="PREC">accurate</i>
  <i type="string" name="ALGO">Normal</i>
  <i type="int" name="NSIM">     4</i>
  <i type="logical" name="ADDGRID"> T  </i>
  <i type="int" name="NELM">   120</i>
  <i type="int" name="NELMIN">     4</i>
  <i name="EDIFF">      0.00000001</i>
  <i type="int" name="NSW">     0</i>
  <i type="int" name="ISYM">     2</i>
  <i name="ENMAX">    500.00000000</i>
  <i type="logical" name="LREAL"> F  </i>
  <i type="logical" name="LPLANE"> T  </i>
  <i type="int" name="ISMEAR">     0</i>
  <i name="SIGMA">      0.01000000</i>
  <i type="logical" name="LWAVE"> F  </i>
  <i type="logical" name="LCHARG"> F  </i>
  <i type="logical" name="LELF"> F  </i>
  <i type="logical" name="LAECHG"> F  </i>
  <v type="int" name="KPOINT_BSE">    -1     0     0     0</v>
  <i type="int" name="NELM">   120</i>
 </incar>
 <structure name="primitive_cell" >
  <crystal>
   <varray name="basis" >
    <v>       0.00000000      10.93733369      10.93733369 </v>
    <v>      10.93733369       0.00000000      10.93733369 </v>
    <v>      10.93733369      10.93733369       0.00000000 </v>
   </varray>
   <i name="volume">   2616.76295363 </i>
   <varray name="rec_basis" >
    <v>      -0.04571498       0.04571498       0.04571498 </v>
    <v>       0.04571498      -0.04571498       0.04571498 </v>
    <v>       0.04571498       0.04571498      -0.04571498 </v>
   </varray>
  </crystal>
  <varray name="positions" >
   <v>      -0.00603901       0.00506805       0.00271624 </v>
   <v>       0.04255824       0.06988619       0.06682286 </v>
   <v>       0.06773851       0.06093837      -0.18714730 </v>
   <v>      -0.19588366       0.05395780       0.08019199 </v>
   <v>       0.06375699      -0.18965023       0.06257606 </v>
   <v>      -0.00128706       0.24594467      -0.00282527 </v>
   <v>       0.00254101      -0.23818765      -0.00289794 </v>
   <v>      -0.24837650      -0.00208223       0.01055801 </v>
   <v>      -0.25556596       0.24352324       0.01863719 </v>
   <v>      -0.24863856       0.00879279       0.25221170 </v>
   <v>       0.00004161       0.24735678      -0.25244905 </v>
   <v>       0.00364895      -0.25745525       0.23728864 </v>
   <v>       0.00000936      -0.00093751       0.25593480 </v>
   <v>       0.25169169      -0.25308529      -0.00327784 </v>
   <v>       0.25350193      -0.00160963      -0.25391062 </v>
   <v>       0.25501360       0.01137019      -0.00182212 </v>
   <v>       0.01070681      -0.00453968      -0.26539766 </v>
   <v>      -0.18440044       0.30455293      -0.19014160 </v>
   <v>      -0.18346668       0.05385910      -0.18150307 </v>
   <v>       0.06569311       0.30760292      -0.18717862 </v>
   <v>       0.05364132      -0.18361290       0.31319180 </v>
   <v>      -0.18465225      -0.18966149       0.06405523 </v>
   <v>      -0.18913056       0.06732416       0.31475322 </v>
   <v>       0.30795262      -0.18433823      -0.18389360 </v>
   <v>       0.06774170      -0.18705142      -0.18694711 </v>
   <v>      -0.19326728       0.31879540       0.06541869 </v>
   <v>       0.31065925      -0.17751301       0.05967278 </v>
   <v>      -0.19852166      -0.18738711       0.31561777 </v>
   <v>       0.32030847       0.07392729      -0.19949952 </v>
   <v>      -0.24406183       0.25392057       0.23981770 </v>
   <v>       0.24445123      -0.23830394       0.24020094 </v>
   <v>      -0.24989841       0.24721874      -0.25206989 </v>
   <v>       0.25277498       0.24771025      -0.24340798 </v>
   <v>       0.25755289      -0.24974551      -0.24602860 </v>
   <v>      -0.25098770      -0.25758247       0.24270006 </v>
   <v>      -0.43450780       0.06674525       0.06695863 </v>
   <v>      -0.43026867       0.31953056       0.04875341 </v>
   <v>      -0.43908534       0.06061183       0.30807853 </v>
   <v>       0.07181554       0.05826913      -0.43434807 </v>
   <v>       0.06141537       0.31610976      -0.43325641 </v>
   <v>       0.30254326       0.07652089       0.06103824 </v>
   <v>       0.06343516       0.05929542       0.31655714 </v>
   <v>       0.32028093       0.05599137      -0.43003362 </v>
   <v>       0.31326213      -0.43249540       0.06035791 </v>
   <v>       0.05459816      -0.43837748       0.31857898 </v>
   <v>       0.06095462      -0.43974656       0.06581077 </v>
   <v>       0.07108921       0.32133085       0.05917043 </v>
   <v>      -0.00801379      -0.23495175      -0.24191042 </v>
   <v>      -0.49878354       0.24016277       0.24666920 </v>
   <v>      -0.49524355      -0.00235387       0.24836430 </v>
   <v>      -0.49460753       0.25823265      -0.00651236 </v>
   <v>      -0.24526281      -0.24720846       0.49563000 </v>
   <v>       0.00152847       0.24967239      -0.49335649 </v>
   <v>      -0.25111303       0.00591413       0.49704066 </v>
   <v>      -0.24830707      -0.49775286      -0.00135794 </v>
   <v>       0.24930440      -0.00308949      -0.49046123 </v>
   <v>      -0.24051206      -0.49775514      -0.25617815 </v>
   <v>       0.25273586      -0.48972376       0.24273222 </v>
   <v>      -0.24555047      -0.00225009      -0.25013558 </v>
   <v>       0.24081745       0.25503868      -0.49550157 </v>
   <v>       0.24060031       0.01963223       0.24502091 </v>
   <v>       0.24157066      -0.49861230       0.01770904 </v>
   <v>       0.49362745       0.00440732      -0.25029104 </v>
   <v>      -0.25061395      -0.24515415      -0.00575394 </v>
   <v>       0.49499341      -0.24419921       0.00248399 </v>
   <v>      -0.00999136       0.25393669       0.25743886 </v>
   <v>       0.00470122      -0.49766268      -0.26183592 </v>
   <v>      -0.00355634      -0.49848026       0.25429715 </v>
   <v>       0.49720443      -0.25317741      -0.24324905 </v>
   <v>       0.25439252       0.25369716       0.00041768 </v>
   <v>      -0.00023962      -0.24140070      -0.48759415 </v>
   <v>       0.30925800      -0.18915033      -0.42541949 </v>
   <v>      -0.17992094       0.30703581      -0.44052373 </v>
   <v>      -0.19144405      -0.18098518      -0.43631514 </v>
   <v>      -0.44356480      -0.18545833      -0.18329394 </v>
   <v>      -0.19089573      -0.43231379      -0.18681646 </v>
   <v>       0.31426181      -0.17900382       0.30780384 </v>
   <v>      -0.19323055       0.32568026       0.30913096 </v>
   <v>      -0.19524815      -0.17875129      -0.18994796 </v>
   <v>       0.30384817       0.32308515      -0.18350360 </v>
   <v>      -0.43762117       0.31465381      -0.20063860 </v>
   <v>      -0.44932877       0.31859566       0.31870852 </v>
   <v>       0.31268085      -0.43162549      -0.19441149 </v>
   <v>       0.31898004       0.31074049      -0.44395305 </v>
   <v>      -0.19415273      -0.43902533       0.32117308 </v>
   <v>      -0.45256051      -0.18060819       0.31038435 </v>
   <v>       0.31492977      -0.45513668       0.31877125 </v>
   <v>      -0.49657426      -0.49772215      -0.00900911 </v>
   <v>       0.00010380      -0.00334579      -0.49241862 </v>
   <v>       0.48912532       0.00255396       0.00858874 </v>
   <v>       0.49433925       0.00290920      -0.49313329 </v>
   <v>      -0.00046278      -0.49343676      -0.00244659 </v>
   <v>      -0.00061788      -0.49638767      -0.49570068 </v>
   <v>      -0.42304059       0.04707940      -0.17856428 </v>
   <v>      -0.42574800      -0.44072588       0.06053539 </v>
   <v>      -0.18987626       0.06382273      -0.44548192 </v>
   <v>      -0.43671213      -0.17045382      -0.44489564 </v>
   <v>      -0.18093890      -0.44294138       0.06353837 </v>
   <v>      -0.44954709       0.06421083      -0.42817666 </v>
   <v>      -0.42849353      -0.43529512      -0.20208182 </v>
   <v>      -0.44026009      -0.17972389       0.06187800 </v>
   <v>       0.06435320      -0.17886107      -0.43796093 </v>
   <v>       0.06727370      -0.44008614      -0.44297442 </v>
   <v>      -0.18926469      -0.44276766      -0.44516897 </v>
   <v>       0.06613150      -0.43486065      -0.19058224 </v>
   <v>       0.25102758       0.48225671      -0.48562793 </v>
   <v>       0.23820782       0.49650754      -0.25146833 </v>
   <v>       0.49787569      -0.23614662       0.49573102 </v>
   <v>      -0.49873494       0.24113853      -0.49742119 </v>
   <v>      -0.24654343      -0.49761709       0.24131095 </v>
   <v>       0.49400894       0.24649904      -0.24727286 </v>
   <v>       0.24642423      -0.24484214      -0.49187932 </v>
   <v>      -0.49733898       0.49978158       0.25585137 </v>
   <v>      -0.25463744      -0.49468722       0.49625519 </v>
   <v>       0.49105439      -0.49652239      -0.24320988 </v>
   <v>      -0.49386028      -0.25932241       0.25041186 </v>
   <v>      -0.25882480       0.26735715       0.49943678 </v>
   <v>       0.30697995       0.06044648       0.32282212 </v>
   <v>       0.06254300       0.31917183       0.30850307 </v>
   <v>       0.30230109       0.31047688       0.31506792 </v>
   <v>       0.30640058       0.31859568       0.06529838 </v>
   <v>      -0.24614724      -0.25044838      -0.25812112 </v>
   <v>       0.25119307       0.24826090       0.24778270 </v>
   <v>      -0.43795564      -0.45096525       0.32544822 </v>
   <v>      -0.44578481       0.31037276      -0.42767289 </v>
   <v>      -0.44360816      -0.42871442      -0.43757041 </v>
   <v>       0.31881476      -0.42791786      -0.44468012 </v>
   <v>       0.49641963      -0.49738340      -0.49836040 </v>
  </varray>
 </structure>
 <varray name="primitive_index" >
  <v type="int" >        1 </v>
  <v type="int" >       65 </v>
  <v type="int" >      113 </v>
  <v type="int" >       68 </v>
  <v type="int" >       77 </v>
  <v type="int" >        5 </v>
  <v type="int" >       13 </v>
  <v type="int" >        4 </v>
  <v type="int" >        8 </v>
  <v type="int" >       20 </v>
  <v type="int" >       53 </v>
  <v type="int" >       29 </v>
  <v type="int" >       17 </v>
  <v type="int" >       14 </v>
  <v type="int" >       50 </v>
  <v type="int" >        2 </v>
  <v type="int" >       49 </v>
  <v type="int" >      120 </v>
  <v type="int" >      116 </v>
  <v type="int" >      117 </v>
  <v type="int" >       93 </v>
  <v type="int" >       80 </v>
  <v type="int" >       84 </v>
  <v type="int" >      126 </v>
  <v type="int" >      125 </v>
  <v type="int" >       72 </v>
  <v type="int" >       78 </v>
  <v type="int" >       96 </v>
  <v type="int" >      114 </v>
  <v type="int" >       24 </v>
  <v type="int" >       30 </v>
  <v type="int" >       56 </v>
  <v type="int" >       54 </v>
  <v type="int" >       62 </v>
  <v type="int" >       32 </v>
  <v type="int" >       67 </v>
  <v type="int" >       71 </v>
  <v type="int" >       83 </v>
  <v type="int" >       97 </v>
  <v type="int" >      101 </v>
  <v type="int" >       66 </v>
  <v type="int" >       81 </v>
  <v type="int" >       98 </v>
  <v type="int" >       74 </v>
  <v type="int" >       89 </v>
  <v type="int" >       73 </v>
  <v type="int" >       69 </v>
  <v type="int" >       61 </v>
  <v type="int" >       23 </v>
  <v type="int" >       19 </v>
  <v type="int" >        7 </v>
  <v type="int" >       48 </v>
  <v type="int" >       37 </v>
  <v type="int" >       36 </v>
  <v type="int" >       12 </v>
  <v type="int" >       34 </v>
  <v type="int" >       60 </v>
  <v type="int" >       26 </v>
  <v type="int" >       52 </v>
  <v type="int" >       38 </v>
  <v type="int" >       18 </v>
  <v type="int" >       10 </v>
  <v type="int" >       51 </v>
  <v type="int" >       16 </v>
  <v type="int" >       15 </v>
  <v type="int" >       21 </v>
  <v type="int" >       57 </v>
  <v type="int" >       25 </v>
  <v type="int" >       63 </v>
  <v type="int" >        6 </v>
  <v type="int" >       45 </v>
  <v type="int" >      110 </v>
  <v type="int" >      104 </v>
  <v type="int" >      112 </v>
  <v type="int" >      127 </v>
  <v type="int" >      124 </v>
  <v type="int" >       94 </v>
  <v type="int" >       88 </v>
  <v type="int" >      128 </v>
  <v type="int" >      118 </v>
  <v type="int" >      119 </v>
  <v type="int" >       87 </v>
  <v type="int" >      122 </v>
  <v type="int" >      102 </v>
  <v type="int" >       92 </v>
  <v type="int" >       95 </v>
  <v type="int" >       90 </v>
  <v type="int" >       11 </v>
  <v type="int" >       33 </v>
  <v type="int" >        3 </v>
  <v type="int" >       35 </v>
  <v type="int" >        9 </v>
  <v type="int" >       41 </v>
  <v type="int" >      115 </v>
  <v type="int" >       75 </v>
  <v type="int" >      100 </v>
  <v type="int" >      111 </v>
  <v type="int" >       76 </v>
  <v type="int" >       99 </v>
  <v type="int" >      123 </v>
  <v type="int" >       79 </v>
  <v type="int" >      109 </v>
  <v type="int" >      105 </v>
  <v type="int" >      108 </v>
  <v type="int" >      121 </v>
  <v type="int" >       42 </v>
  <v type="int" >       58 </v>
  <v type="int" >       47 </v>
  <v type="int" >       39 </v>
  <v type="int" >       28 </v>
  <v type="int" >       55 </v>
  <v type="int" >       46 </v>
  <v type="int" >       27 </v>
  <v type="int" >       44 </v>
  <v type="int" >       59 </v>
  <v type="int" >       31 </v>
  <v type="int" >       40 </v>
  <v type="int" >       82 </v>
  <v type="int" >       85 </v>
  <v type="int" >       86 </v>
  <v type="int" >       70 </v>
  <v type="int" >       64 </v>
  <v type="int" >       22 </v>
  <v type="int" >       91 </v>
  <v type="int" >      103 </v>
  <v type="int" >      107 </v>
  <v type="int" >      106 </v>
  <v type="int" >       43 </v>
 </varray>
 <kpoints>
  <generation param="Gamma">
   <v type="int" name="divisions">       2        2        2 </v>
   <v name="usershift">      0.00000000       0.00000000       0.00000000 </v>
   <v name="genvec1">      0.50000000       0.00000000       0.00000000 </v>
   <v name="genvec2">      0.00000000       0.50000000       0.00000000 </v>
   <v name="genvec3">      0.00000000       0.00000000       0.50000000 </v>
   <v name="shift">      0.00000000       0.00000000       0.00000000 </v>
  </generation>
  <varray name="kpointlist" >
   <v>       0.00000000       0.00000000       0.00000000 </v>
   <v>       0.50000000       0.00000000       0.00000000 </v>
   <v>       0.00000000       0.50000000       0.00000000 </v>
   <v>       0.50000000       0.50000000       0.00000000 </v>
   <v>       0.00000000       0.00000000       0.50000000 </v>
   <v>       0.50000000       0.00000000       0.50000000 </v>
   <v>       0.00000000       0.50000000       0.50000000 </v>
   <v>       0.50000000       0.50000000       0.50000000 </v>
  </varray>
  <varray name="weights" >
   <v>       0.12500000 </v>
   <v>       0.12500000 </v>
   <v>       0.12500000 </v>
   <v>       0.12500000 </v>
   <v>       0.12500000 </v>
   <v>       0.12500000 </v>
   <v>       0.12500000 </v>
   <v>       0.12500000 </v>
  </varray>
 </kpoints>
 <parameters>
  <separator name="general" >
   <i type="string" name="SYSTEM">potpaw_PBE@./ARUN.APL1ZEROSTATE</i>
   <i type="logical" name="LCOMPAT"> F  </i>
  </separator>
  <separator name="electronic" >
   <i type="string" name="PREC">accura</i>
   <i name="ENMAX">    500.00000000</i>
   <i name="ENAUG">    322.06900000</i>
   <i name="EDIFF">      0.00000001</i>
   <i type="int" name="IALGO">    38</i>
   <i type="int" name="IWAVPR">    10</i>
   <i type="int" name="NBANDS">   322</i>
   <i name="NELECT">    512.00000000</i>
   <i type="int" name="TURBO">     0</i>
   <i type="int" name="IRESTART">     0</i>
   <i type="int" name="NREBOOT">     0</i>
   <i type="int" name="NMIN">     0</i>
   <i name="EREF">      0.00000000</i>
   <separator name="electronic smearing" >
    <i type="int" name="ISMEAR">     0</i>
    <i name="SIGMA">      0.01000000</i>
    <i name="KSPACING">      0.50000000</i>
    <i type="logical" name="KGAMMA"> T  </i>
   </separator>
   <separator name="electronic projectors" >
    <i type="logical" name="LREAL"> F  </i>
    <v name="ROPT">      0.00000000</v>
    <i type="int" name="LMAXPAW">  -100</i>
    <i type="int" name="LMAXMIX">     2</i>
    <i type="logical" name="NLSPLINE"> F  </i>
   </separator>
   <separator name="electronic startup" >
    <i type="int" name="ISTART">     0</i>
    <i type="int" name="ICHARG">     2</i>
    <i type="int" name="INIWAV">     1</i>
   </separator>
   <separator name="electronic spin" >
    <i type="int" name="ISPIN">     1</i>
    <i type="logical" name="LNONCOLLINEAR"> F  </i>
    <v name="MAGMOM">      1.00000000      1.00000000      1.00000000      1.00000000      1.00000000      1.00000000      1.00000000      1.00000000      1.00000000      1.00000000      1.00000000      1.00000000      1.00000000      1.00000000      1.00000000      1.00000000      1.00000000      1.00000000      1.00000000      1.00000000
      1.00000000      1.00000000      1.00000000      1.00000000      1.00000000      1.00000000      1.00000000      1.00000000      1.00000000      1.00000000      1.00000000      1.00000000      1.00000000      1.00000000      1.00000000      1.00000000      1.00000000      1.00000000      1.00000000      1.00000000
      1.00000000      1.00000000      1.00000000      1.00000000      1.00000000      1.00000000      1.00000000      1.00000000      1.00000000      1.00000000      1.00000000      1.00000000      1.00000000      1.00000000      1.00000000      1.00000000      1.00000000      1.00000000      1.00000000      1.00000000
      1.00000000      1.00000000      1.00000000      1.00000000      1.00000000      1.00000000      1.00000000      1.00000000      1.00000000      1.00000000      1.00000000      1.00000000      1.00000000      1.00000000      1.00000000      1.00000000      1.00000000      1.00000000      1.00000000      1.00000000
      1.00000000      1.00000000      1.00000000      1.00000000      1.00000000      1.00000000      1.00000000      1.00000000      1.00000000      1.00000000      1.00000000      1.00000000      1.00000000      1.00000000      1.00000000      1.00000000      1.00000000      1.00000000      1.00000000      1.00000000
      1.00000000      1.00000000      1.00000000      1.00000000      1.00000000      1.00000000      1.00000000      1.00000000      1.00000000      1.00000000      1.00000000      1.00000000      1.00000000      1.00000000      1.00000000      1.00000000      1.00000000      1.00000000      1.00000000      1.00000000
      1.00000000      1.00000000      1.00000000      1.00000000      1.00000000      1.00000000      1.00000000      1.00000000</v>
    <i name="NUPDOWN">     -1.00000000</i>
    <i type="logical" name="LSORBIT"> F  </i>
    <v name="SAXIS">      0.00000000      0.00000000      1.00000000</v>
    <i type="logical" name="LSPIRAL"> F  </i>
    <v name="QSPIRAL">      0.00000000      0.00000000      0.00000000</v>
    <i type="logical" name="LZEROZ"> F  </i>
   </separator>
   <separator name="electronic exchange-correlation" >
    <i type="logical" name="LASPH"> F  </i>
    <i type="logical" name="LMETAGGA"> F  </i>
   </separator>
   <separator name="electronic convergence" >
    <i type="int" name="NELM">   120</i>
    <i type="int" name="NELMDL">    -5</i>
    <i type="int" name="NELMIN">     4</i>
    <i name="ENINI">    500.00000000</i>
    <separator name="electronic convergence detail" >
     <i type="logical" name="LDIAG"> T  </i>
     <i type="logical" name="LSUBROT"> F  </i>
     <i name="WEIMIN">      0.00000000</i>
     <i name="EBREAK">      0.00000000</i>
     <i name="DEPER">      0.30000000</i>
     <i type="int" name="NRMM">     4</i>
     <i name="TIME">      0.40000000</i>
    </separator>
   </separator>
   <separator name="electronic mixer" >
    <i name="AMIX">      0.40000000</i>
    <i name="BMIX">      1.00000000</i>
    <i name="AMIN">      0.10000000</i>
    <i name="AMIX_MAG">      1.60000000</i>
    <i name="BMIX_MAG">      1.00000000</i>
    <separator name="electronic mixer details" >
     <i type="int" name="IMIX">     4</i>
     <i type="logical" name="MIXFIRST"> F  </i>
     <i type="int" name="MAXMIX">   -45</i>
     <i name="WC">    100.00000000</i>
     <i type="int" name="INIMIX">     1</i>
     <i type="int" name="MIXPRE">     1</i>
     <i type="int" name="MREMOVE">     5</i>
    </separator>
   </separator>
   <separator name="electronic dipolcorrection" >
    <i type="logical" name="LDIPOL"> F  </i>
    <i type="logical" name="LMONO"> F  </i>
    <i type="int" name="IDIPOL">     0</i>
    <i name="EPSILON">      1.00000000</i>
    <v name="DIPOL">   -100.00000000   -100.00000000   -100.00000000</v>
    <i name="EFIELD">      0.00000000</i>
   </separator>
  </separator>
  <separator name="grids" >
   <i type="int" name="NGX">   120</i>
   <i type="int" name="NGY">   120</i>
   <i type="int" name="NGZ">   120</i>
   <i type="int" name="NGXF">   240</i>
   <i type="int" name="NGYF">   240</i>
   <i type="int" name="NGZF">   240</i>
   <i type="logical" name="ADDGRID"> T  </i>
  </separator>
  <separator name="ionic" >
   <i type="int" name="NSW">     0</i>
   <i type="int" name="IBRION">    -1</i>
   <i type="int" name="MDALGO">     0</i>
   <i type="int" name="ISIF">     2</i>
   <i name="PSTRESS">      0.00000000</i>
   <i name="EDIFFG">      0.00000010</i>
   <i type="int" name="NFREE">     0</i>
   <i name="POTIM">      0.50000000</i>
   <i name="SMASS">     -3.00000000</i>
   <i name="SCALEE">      1.00000000</i>
  </separator>
  <separator name="ionic md" >
   <i name="TEBEG">      0.00010000</i>
   <i name="TEEND">      0.00010000</i>
   <i type="int" name="NBLOCK">     1</i>
   <i type="int" name="KBLOCK">     1</i>
   <i type="int" name="NPACO">   256</i>
   <i name="APACO">     16.00000000</i>
  </separator>
  <separator name="symmetry" >
   <i type="int" name="ISYM">     2</i>
   <i name="SYMPREC">      0.00001000</i>
  </separator>
  <separator name="dos" >
   <i type="int" name="LORBIT">     0</i>
   <v name="RWIGS">     -1.00000000</v>
   <i type="int" name="NEDOS">   301</i>
   <i name="EMIN">     10.00000000</i>
   <i name="EMAX">    -10.00000000</i>
   <i name="EFERMI">      0.00000000</i>
  </separator>
  <separator name="writing" >
   <i type="int" name="NWRITE">     2</i>
   <i type="logical" name="LWAVE"> F  </i>
   <i type="logical" name="LDOWNSAMPLE"> F  </i>
   <i type="logical" name="LCHARG"> F  </i>
   <i type="logical" name="LPARD"> F  </i>
   <i type="logical" name="LVTOT"> F  </i>
   <i type="logical" name="LVHAR"> F  </i>
   <i type="logical" name="LELF"> F  </i>
   <i type="logical" name="LOPTICS"> F  </i>
   <v name="STM">      0.00000000      0.00000000      0.00000000      0.00000000      0.00000000      0.00000000      0.00000000</v>
  </separator>
  <separator name="performance" >
   <i type="int" name="NPAR">     2</i>
   <i type="int" name="NSIM">     4</i>
   <i type="int" name="NBLK">    -1</i>
   <i type="logical" name="LPLANE"> T  </i>
   <i type="logical" name="LSCALAPACK"> T  </i>
   <i type="logical" name="LSCAAWARE"> F  </i>
   <i type="logical" name="LSCALU"> F  </i>
   <i type="logical" name="LASYNC"> F  </i>
   <i type="logical" name="LORBITALREAL"> F  </i>
  </separator>
  <separator name="miscellaneous" >
   <i type="int" name="IDIOT">     3</i>
   <i type="int" name="ISPECIAL">     0</i>
   <i type="logical" name="LMUSIC"> F  </i>
   <v name="POMASS">     28.08500000</v>
   <v name="DARWINR">      0.00000000</v>
   <v name="DARWINV">      1.00000000</v>
   <i type="logical" name="LCORR"> T  </i>
  </separator>
  <i type="logical" name="GGA_COMPAT"> T  </i>
  <i type="logical" name="LBERRY"> F  </i>
  <i type="int" name="ICORELEVEL">     0</i>
  <i type="logical" name="LDAU"> F  </i>
  <i type="int" name="I_CONSTRAINED_M">     0</i>
  <separator name="electronic exchange-correlation" >
   <i type="string" name="GGA">--</i>
   <i type="int" name="VOSKOWN">     0</i>
   <i type="logical" name="LHFCALC"> F  </i>
   <i type="string" name="PRECFOCK"></i>
   <i type="logical" name="LSYMGRAD"> F  </i>
   <i type="logical" name="LHFONE"> F  </i>
   <i type="logical" name="LRHFCALC"> F  </i>
   <i type="logical" name="LTHOMAS"> F  </i>
   <i type="logical" name="LMODELHF"> F  </i>
   <i name="ENCUT4O">     -1.00000000</i>
   <i type="int" name="EXXOEP">     0</i>
   <i type="int" name="FOURORBIT">     0</i>
   <i name="AEXX">      0.00000000</i>
   <i name="HFALPHA">      0.00000000</i>
   <i name="MCALPHA">      0.00000000</i>
   <i name="ALDAX">      1.00000000</i>
   <i name="AGGAX">      1.00000000</i>
   <i name="ALDAC">      1.00000000</i>
   <i name="AGGAC">      1.00000000</i>
   <i type="int" name="NKREDX">     1</i>
   <i type="int" name="NKREDY">     1</i>
   <i type="int" name="NKREDZ">     1</i>
   <i type="logical" name="SHIFTRED"> F  </i>
   <i type="logical" name="ODDONLY"> F  </i>
   <i type="logical" name="EVENONLY"> F  </i>
   <i type="int" name="LMAXFOCK">     0</i>
   <i type="int" name="NMAXFOCKAE">     0</i>
   <i type="logical" name="LFOCKAEDFT"> F  </i>
   <i name="HFSCREEN">      0.00000000</i>
   <i name="HFSCREENC">      0.00000000</i>
   <i type="int" name="NBANDSGWLOW">     0</i>
  </separator>
  <separator name="vdW DFT" >
   <i type="logical" name="LUSE_VDW"> F  </i>
   <i name="Zab_VDW">     -0.84910000</i>
   <i name="PARAM1">      0.12340000</i>
   <i name="PARAM2">      1.00000000</i>
   <i name="PARAM3">      0.00000000</i>
  </separator>
  <separator name="model GW" >
   <i type="int" name="MODEL_GW">     0</i>
   <i name="MODEL_EPS0">     12.26607635</i>
   <i name="MODEL_ALPHA">      1.00000000</i>
  </separator>
  <separator name="linear response parameters" >
   <i type="logical" name="LEPSILON"> F  </i>
   <i type="logical" name="LRPA"> F  </i>
   <i type="logical" name="LNABLA"> F  </i>
   <i type="logical" name="LVEL"> F  </i>
   <i type="int" name="KINTER">     0</i>
   <i name="CSHIFT">      0.10000000</i>
   <i name="OMEGAMAX">     -1.00000000</i>
   <i name="DEG_THRESHOLD">      0.00200000</i>
   <i name="RTIME">     -0.10000000</i>
   <i name="WPLASMAI">      0.00000000</i>
   <v name="DFIELD">      0.00000000      0.00000000      0.00000000</v>
   <v name="WPLASMA">      0.00000000      0.00000000      0.00000000      0.00000000      0.00000000      0.00000000      0.00000000      0.00000000      0.00000000</v>
  </separator>
  <separator name="orbital magnetization" >
   <i type="logical" name="NUCIND"> F  </i>
   <v name="MAGPOS">      0.00000000      0.00000000      0.00000000</v>
   <i type="logical" name="LNICSALL"> T  </i>
   <i type="logical" name="ORBITALMAG"> F  </i>
   <i type="logical" name="LMAGBLOCH"> F  </i>
   <i type="logical" name="LCHIMAG"> F  </i>
   <i type="logical" name="LGAUGE"> T  </i>
   <i type="int" name="MAGATOM">     0</i>
   <v name="MAGDIPOL">      0.00000000      0.00000000      0.00000000</v>
   <v name="AVECCONST">      0.00000000      0.00000000      0.00000000</v>
  </separator>
  <separator name="response functions" >
   <i type="logical" name="LADDER"> F  </i>
   <i type="logical" name="LRPAFORCE"> F  </i>
   <i type="logical" name="LFXC"> F  </i>
   <i type="logical" name="LHARTREE"> T  </i>
   <i type="int" name="IBSE">     0</i>
   <v type="int" name="KPOINT">    -1     0     0     0</v>
   <i type="logical" name="LTCTE"> F  </i>
   <i type="logical" name="LTETE"> F  </i>
   <i type="logical" name="LTRIPLET"> F  </i>
   <i type="logical" name="LFXCEPS"> F  </i>
   <i type="logical" name="LFXHEG"> F  </i>
   <i type="int" name="NATURALO">     2</i>
   <i type="logical" name="L2ORDER"> F  </i>
   <i type="logical" name="LMP2LT"> F  </i>
   <i type="logical" name="LUSEW"> F  </i>
   <i name="ENCUTGW">     -2.00000000</i>
   <i name="ENCUTGWSOFT">     -2.00000000</i>
   <i name="ENCUTLF">     -1.00000000</i>
   <i type="int" name="LMAXMP2">    -1</i>
   <i name="SCISSOR">      0.00000000</i>
   <i type="int" name="NOMEGA">     0</i>
   <i type="int" name="NOMEGAR">     0</i>
   <i type="int" name="NBANDSGW">    -1</i>
   <i type="int" name="NBANDSO">    -1</i>
   <i type="int" name="NBANDSV">    -1</i>
   <i type="int" name="NELM">   120</i>
   <i type="int" name="NELMHF">     1</i>
   <i type="int" name="DIM">     3</i>
   <i type="int" name="ANTIRES">     0</i>
   <i name="OMEGAMAX">    -30.00000000</i>
   <i name="OMEGAMIN">    -30.00000000</i>
   <i name="OMEGATL">   -200.00000000</i>
   <i type="int" name="OMEGAGRID">   140</i>
   <i name="CSHIFT">     -0.10000000</i>
   <i type="logical" name="SELFENERGY"> F  </i>
   <i type="logical" name="LSPECTRAL"> F  </i>
   <i type="logical" name="LSPECTRALGW"> F  </i>
   <i type="logical" name="LSINGLES"> F  </i>
   <i type="logical" name="LFERMIGW"> F  </i>
   <i type="logical" name="ODDONLYGW"> F  </i>
   <i type="logical" name="EVENONLYGW"> F  </i>
   <i type="int" name="NKREDLFX">     1</i>
   <i type="int" name="NKREDLFY">     1</i>
   <i type="int" name="NKREDLFZ">     1</i>
   <i type="int" name="MAXMEM">  2800</i>
   <i type="int" name="TELESCOPE">     0</i>
   <i type="int" name="TAUPAR">     1</i>
   <i type="int" name="OMEGAPAR">    -1</i>
   <i name="LAMBDA">      1.00000000</i>
  </separator>
  <separator name="External order field" >
   <i name="OFIELD_KAPPA">      0.00000000</i>
   <v name="OFIELD_K">      0.00000000      0.00000000      0.00000000</v>
   <i name="OFIELD_Q6_NEAR">      0.00000000</i>
   <i name="OFIELD_Q6_FAR">      0.00000000</i>
   <i name="OFIELD_A">      0.00000000</i>
  </separator>
 </parameters>
 <atominfo>
  <atoms>     128 </atoms>
  <types>       1 </types>
  <array name="atoms" >
   <dimension dim="1">ion</dimension>
   <field type="string">element</field>
   <field type="int">atomtype</field>
   <set>
    <rc><c>Si</c><c>   1</c></rc>
    <rc><c>Si</c><c>   1</c></rc>
    <rc><c>Si</c><c>   1</c></rc>
    <rc><c>Si</c><c>   1</c></rc>
    <rc><c>Si</c><c>   1</c></rc>
    <rc><c>Si</c><c>   1</c></rc>
    <rc><c>Si</c><c>   1</c></rc>
    <rc><c>Si</c><c>   1</c></rc>
    <rc><c>Si</c><c>   1</c></rc>
    <rc><c>Si</c><c>   1</c></rc>
    <rc><c>Si</c><c>   1</c></rc>
    <rc><c>Si</c><c>   1</c></rc>
    <rc><c>Si</c><c>   1</c></rc>
    <rc><c>Si</c><c>   1</c></rc>
    <rc><c>Si</c><c>   1</c></rc>
    <rc><c>Si</c><c>   1</c></rc>
    <rc><c>Si</c><c>   1</c></rc>
    <rc><c>Si</c><c>   1</c></rc>
    <rc><c>Si</c><c>   1</c></rc>
    <rc><c>Si</c><c>   1</c></rc>
    <rc><c>Si</c><c>   1</c></rc>
    <rc><c>Si</c><c>   1</c></rc>
    <rc><c>Si</c><c>   1</c></rc>
    <rc><c>Si</c><c>   1</c></rc>
    <rc><c>Si</c><c>   1</c></rc>
    <rc><c>Si</c><c>   1</c></rc>
    <rc><c>Si</c><c>   1</c></rc>
    <rc><c>Si</c><c>   1</c></rc>
    <rc><c>Si</c><c>   1</c></rc>
    <rc><c>Si</c><c>   1</c></rc>
    <rc><c>Si</c><c>   1</c></rc>
    <rc><c>Si</c><c>   1</c></rc>
    <rc><c>Si</c><c>   1</c></rc>
    <rc><c>Si</c><c>   1</c></rc>
    <rc><c>Si</c><c>   1</c></rc>
    <rc><c>Si</c><c>   1</c></rc>
    <rc><c>Si</c><c>   1</c></rc>
    <rc><c>Si</c><c>   1</c></rc>
    <rc><c>Si</c><c>   1</c></rc>
    <rc><c>Si</c><c>   1</c></rc>
    <rc><c>Si</c><c>   1</c></rc>
    <rc><c>Si</c><c>   1</c></rc>
    <rc><c>Si</c><c>   1</c></rc>
    <rc><c>Si</c><c>   1</c></rc>
    <rc><c>Si</c><c>   1</c></rc>
    <rc><c>Si</c><c>   1</c></rc>
    <rc><c>Si</c><c>   1</c></rc>
    <rc><c>Si</c><c>   1</c></rc>
    <rc><c>Si</c><c>   1</c></rc>
    <rc><c>Si</c><c>   1</c></rc>
    <rc><c>Si</c><c>   1</c></rc>
    <rc><c>Si</c><c>   1</c></rc>
    <rc><c>Si</c><c>   1</c></rc>
    <rc><c>Si</c><c>   1</c></rc>
    <rc><c>Si</c><c>   1</c></rc>
    <rc><c>Si</c><c>   1</c></rc>
    <rc><c>Si</c><c>   1</c></rc>
    <rc><c>Si</c><c>   1</c></rc>
    <rc><c>Si</c><c>   1</c></rc>
    <rc><c>Si</c><c>   1</c></rc>
    <rc><c>Si</c><c>   1</c></rc>
    <rc><c>Si</c><c>   1</c></rc>
    <rc><c>Si</c><c>   1</c></rc>
    <rc><c>Si</c><c>   1</c></rc>
    <rc><c>Si</c><c>   1</c></rc>
    <rc><c>Si</c><c>   1</c></rc>
    <rc><c>Si</c><c>   1</c></rc>
    <rc><c>Si</c><c>   1</c></rc>
    <rc><c>Si</c><c>   1</c></rc>
    <rc><c>Si</c><c>   1</c></rc>
    <rc><c>Si</c><c>   1</c></rc>
    <rc><c>Si</c><c>   1</c></rc>
    <rc><c>Si</c><c>   1</c></rc>
    <rc><c>Si</c><c>   1</c></rc>
    <rc><c>Si</c><c>   1</c></rc>
    <rc><c>Si</c><c>   1</c></rc>
    <rc><c>Si</c><c>   1</c></rc>
    <rc><c>Si</c><c>   1</c></rc>
    <rc><c>Si</c><c>   1</c></rc>
    <rc><c>Si</c><c>   1</c></rc>
    <rc><c>Si</c><c>   1</c></rc>
    <rc><c>Si</c><c>   1</c></rc>
    <rc><c>Si</c><c>   1</c></rc>
    <rc><c>Si</c><c>   1</c></rc>
    <rc><c>Si</c><c>   1</c></rc>
    <rc><c>Si</c><c>   1</c></rc>
    <rc><c>Si</c><c>   1</c></rc>
    <rc><c>Si</c><c>   1</c></rc>
    <rc><c>Si</c><c>   1</c></rc>
    <rc><c>Si</c><c>   1</c></rc>
    <rc><c>Si</c><c>   1</c></rc>
    <rc><c>Si</c><c>   1</c></rc>
    <rc><c>Si</c><c>   1</c></rc>
    <rc><c>Si</c><c>   1</c></rc>
    <rc><c>Si</c><c>   1</c></rc>
    <rc><c>Si</c><c>   1</c></rc>
    <rc><c>Si</c><c>   1</c></rc>
    <rc><c>Si</c><c>   1</c></rc>
    <rc><c>Si</c><c>   1</c></rc>
    <rc><c>Si</c><c>   1</c></rc>
    <rc><c>Si</c><c>   1</c></rc>
    <rc><c>Si</c><c>   1</c></rc>
    <rc><c>Si</c><c>   1</c></rc>
    <rc><c>Si</c><c>   1</c></rc>
    <rc><c>Si</c><c>   1</c></rc>
    <rc><c>Si</c><c>   1</c></rc>
    <rc><c>Si</c><c>   1</c></rc>
    <rc><c>Si</c><c>   1</c></rc>
    <rc><c>Si</c><c>   1</c></rc>
    <rc><c>Si</c><c>   1</c></rc>
    <rc><c>Si</c><c>   1</c></rc>
    <rc><c>Si</c><c>   1</c></rc>
    <rc><c>Si</c><c>   1</c></rc>
    <rc><c>Si</c><c>   1</c></rc>
    <rc><c>Si</c><c>   1</c></rc>
    <rc><c>Si</c><c>   1</c></rc>
    <rc><c>Si</c><c>   1</c></rc>
    <rc><c>Si</c><c>   1</c></rc>
    <rc><c>Si</c><c>   1</c></rc>
    <rc><c>Si</c><c>   1</c></rc>
    <rc><c>Si</c><c>   1</c></rc>
    <rc><c>Si</c><c>   1</c></rc>
    <rc><c>Si</c><c>   1</c></rc>
    <rc><c>Si</c><c>   1</c></rc>
    <rc><c>Si</c><c>   1</c></rc>
    <rc><c>Si</c><c>   1</c></rc>
    <rc><c>Si</c><c>   1</c></rc>
    <rc><c>Si</c><c>   1</c></rc>
   </set>
  </array>
  <array name="atomtypes" >
   <dimension dim="1">type</dimension>
   <field type="int">atomspertype</field>
   <field type="string">element</field>
   <field>mass</field>
   <field>valence</field>
   <field type="string">pseudopotential</field>
   <set>
    <rc><c> 128</c><c>Si</c><c>     28.08500000</c><c>      4.00000000</c><c> PAW_PBE Si 05Jan2001                   </c></rc>
   </set>
  </array>
 </atominfo>
 <structure name="initialpos" >
  <crystal>
   <varray name="basis" >
    <v>       0.00000000      10.93733369      10.93733369 </v>
    <v>      10.93733369       0.00000000      10.93733369 </v>
    <v>      10.93733369      10.93733369       0.00000000 </v>
   </varray>
   <i name="volume">   2616.76295363 </i>
   <varray name="rec_basis" >
    <v>      -0.04571498       0.04571498       0.04571498 </v>
    <v>       0.04571498      -0.04571498       0.04571498 </v>
    <v>       0.04571498       0.04571498      -0.04571498 </v>
   </varray>
  </crystal>
  <varray name="positions" >
   <v>       0.99396099       0.00506805       0.00271624 </v>
   <v>       0.25501360       0.01137019       0.99817788 </v>
   <v>       0.48912532       0.00255396       0.00858874 </v>
   <v>       0.75162350       0.99791777       0.01055801 </v>
   <v>       0.99871294       0.24594467       0.99717473 </v>
   <v>       0.25439252       0.25369716       0.00041768 </v>
   <v>       0.50539247       0.25823265       0.99348764 </v>
   <v>       0.74443404       0.24352324       0.01863719 </v>
   <v>       0.99953722       0.50656324       0.99755341 </v>
   <v>       0.24157066       0.50138770       0.01770904 </v>
   <v>       0.50342574       0.50227785       0.99099089 </v>
   <v>       0.75169293       0.50224714       0.99864206 </v>
   <v>       0.00254101       0.76181235       0.99710206 </v>
   <v>       0.25169169       0.74691471       0.99672216 </v>
   <v>       0.49499341       0.75580079       0.00248399 </v>
   <v>       0.74938605       0.75484585       0.99424606 </v>
   <v>       0.00000936       0.99906249       0.25593480 </v>
   <v>       0.24060031       0.01963223       0.24502091 </v>
   <v>       0.50475645       0.99764613       0.24836430 </v>
   <v>       0.75136144       0.00879279       0.25221170 </v>
   <v>       0.99000864       0.25393669       0.25743886 </v>
   <v>       0.25119307       0.24826090       0.24778270 </v>
   <v>       0.50121646       0.24016277       0.24666920 </v>
   <v>       0.75593817       0.25392057       0.23981770 </v>
   <v>       0.99644366       0.50151974       0.25429715 </v>
   <v>       0.25273586       0.51027624       0.24273222 </v>
   <v>       0.50266102       0.49978158       0.25585137 </v>
   <v>       0.75345657       0.50238291       0.24131095 </v>
   <v>       0.00364895       0.74254475       0.23728864 </v>
   <v>       0.24445123       0.76169606       0.24020094 </v>
   <v>       0.50613972       0.74067759       0.25041186 </v>
   <v>       0.74901230       0.74241753       0.24270006 </v>
   <v>       0.00010380       0.99665421       0.50758138 </v>
   <v>       0.24930440       0.99691051       0.50953877 </v>
   <v>       0.49433925       0.00290920       0.50686671 </v>
   <v>       0.74888697       0.00591413       0.49704066 </v>
   <v>       0.00152847       0.24967239       0.50664351 </v>
   <v>       0.24081745       0.25503868       0.50449843 </v>
   <v>       0.50126506       0.24113853       0.50257881 </v>
   <v>       0.74117520       0.26735715       0.49943678 </v>
   <v>       0.99938212       0.50361233       0.50429932 </v>
   <v>       0.25102758       0.48225671       0.51437207 </v>
   <v>       0.49641963       0.50261660       0.50163960 </v>
   <v>       0.74536256       0.50531278       0.49625519 </v>
   <v>       0.99976038       0.75859930       0.51240585 </v>
   <v>       0.24642423       0.75515786       0.50812068 </v>
   <v>       0.49787569       0.76385338       0.49573102 </v>
   <v>       0.75473719       0.75279154       0.49563000 </v>
   <v>       0.01070681       0.99546032       0.73460234 </v>
   <v>       0.25350193       0.99839037       0.74608938 </v>
   <v>       0.49362745       0.00440732       0.74970896 </v>
   <v>       0.75444953       0.99774991       0.74986442 </v>
   <v>       0.00004161       0.24735678       0.74755095 </v>
   <v>       0.25277498       0.24771025       0.75659202 </v>
   <v>       0.49400894       0.24649904       0.75272714 </v>
   <v>       0.75010159       0.24721874       0.74793011 </v>
   <v>       0.00470122       0.50233732       0.73816408 </v>
   <v>       0.23820782       0.49650754       0.74853167 </v>
   <v>       0.49105439       0.50347761       0.75679012 </v>
   <v>       0.75948794       0.50224486       0.74382185 </v>
   <v>       0.99198621       0.76504825       0.75808958 </v>
   <v>       0.25755289       0.75025449       0.75397140 </v>
   <v>       0.49720443       0.74682259       0.75675095 </v>
   <v>       0.75385276       0.74955162       0.74187888 </v>
   <v>       0.04255824       0.06988619       0.06682286 </v>
   <v>       0.30254326       0.07652089       0.06103824 </v>
   <v>       0.56549220       0.06674525       0.06695863 </v>
   <v>       0.80411634       0.05395780       0.08019199 </v>
   <v>       0.07108921       0.32133085       0.05917043 </v>
   <v>       0.30640058       0.31859568       0.06529838 </v>
   <v>       0.56973133       0.31953056       0.04875341 </v>
   <v>       0.80673272       0.31879540       0.06541869 </v>
   <v>       0.06095462       0.56025344       0.06581077 </v>
   <v>       0.31326213       0.56750460       0.06035791 </v>
   <v>       0.57425200       0.55927412       0.06053539 </v>
   <v>       0.81906110       0.55705862       0.06353837 </v>
   <v>       0.06375699       0.81034977       0.06257606 </v>
   <v>       0.31065925       0.82248699       0.05967278 </v>
   <v>       0.55973991       0.82027611       0.06187800 </v>
   <v>       0.81534775       0.81033851       0.06405523 </v>
   <v>       0.06343516       0.05929542       0.31655714 </v>
   <v>       0.30697995       0.06044648       0.32282212 </v>
   <v>       0.56091466       0.06061183       0.30807853 </v>
   <v>       0.81086944       0.06732416       0.31475322 </v>
   <v>       0.06254300       0.31917183       0.30850307 </v>
   <v>       0.30230109       0.31047688       0.31506792 </v>
   <v>       0.55067123       0.31859566       0.31870852 </v>
   <v>       0.80676945       0.32568026       0.30913096 </v>
   <v>       0.05459816       0.56162252       0.31857898 </v>
   <v>       0.31492977       0.54486332       0.31877125 </v>
   <v>       0.56204436       0.54903475       0.32544822 </v>
   <v>       0.80584727       0.56097467       0.32117308 </v>
   <v>       0.05364132       0.81638710       0.31319180 </v>
   <v>       0.31426181       0.82099618       0.30780384 </v>
   <v>       0.54743949       0.81939181       0.31038435 </v>
   <v>       0.80147834       0.81261289       0.31561777 </v>
   <v>       0.07181554       0.05826913       0.56565193 </v>
   <v>       0.32028093       0.05599137       0.56996638 </v>
   <v>       0.55045291       0.06421083       0.57182334 </v>
   <v>       0.81012374       0.06382273       0.55451808 </v>
   <v>       0.06141537       0.31610976       0.56674359 </v>
   <v>       0.31898004       0.31074049       0.55604695 </v>
   <v>       0.55421519       0.31037276       0.57232711 </v>
   <v>       0.82007906       0.30703581       0.55947627 </v>
   <v>       0.06727370       0.55991386       0.55702558 </v>
   <v>       0.31881476       0.57208214       0.55531988 </v>
   <v>       0.55639184       0.57128558       0.56242959 </v>
   <v>       0.81073531       0.55723234       0.55483103 </v>
   <v>       0.06435320       0.82113893       0.56203907 </v>
   <v>       0.30925800       0.81084967       0.57458051 </v>
   <v>       0.56328787       0.82954618       0.55510436 </v>
   <v>       0.80855595       0.81901482       0.56368486 </v>
   <v>       0.06773851       0.06093837       0.81285270 </v>
   <v>       0.32030847       0.07392729       0.80050048 </v>
   <v>       0.57695941       0.04707940       0.82143572 </v>
   <v>       0.81653332       0.05385910       0.81849693 </v>
   <v>       0.06569311       0.30760292       0.81282138 </v>
   <v>       0.30384817       0.32308515       0.81649640 </v>
   <v>       0.56237883       0.31465381       0.79936140 </v>
   <v>       0.81559956       0.30455293       0.80985840 </v>
   <v>       0.06613150       0.56513935       0.80941776 </v>
   <v>       0.31268085       0.56837451       0.80558851 </v>
   <v>       0.57150647       0.56470488       0.79791818 </v>
   <v>       0.80910427       0.56768621       0.81318354 </v>
   <v>       0.06774170       0.81294858       0.81305289 </v>
   <v>       0.30795262       0.81566177       0.81610640 </v>
   <v>       0.55643520       0.81454167       0.81670606 </v>
   <v>       0.80475185       0.82124871       0.81005204 </v>
  </varray>
 </structure>
 <calculation>
  <scstep>
   <time name="dav">   70.29   70.32</time>
   <time name="total">   71.30   71.34</time>
   <energy>
    <i name="alphaZ">    210.77028614 </i>
    <i name="ewald"> -14471.02737988 </i>
    <i name="hartreedc">   -757.30816317 </i>
    <i name="XCdc">  -1195.32642186 </i>
    <i name="pawpsdc">   4221.13331941 </i>
    <i name="pawaedc">  -1969.18571412 </i>
    <i name="eentropy">     -0.00144213 </i>
    <i name="bandstr">   2151.66877477 </i>
    <i name="atom">  13192.48085998 </i>
    <i name="e_fr_energy">   1383.20411915 </i>
    <i name="e_wo_entrp">   1383.20556128 </i>
    <i name="e_0_energy">   1383.20484021 </i>
   </energy>
  </scstep>
  <scstep>
   <time name="dav">   80.22   80.24</time>
   <time name="total">   80.22   80.24</time>
   <energy>
    <i name="e_fr_energy">   -538.30424081 </i>
    <i name="e_wo_entrp">   -538.30424081 </i>
    <i name="e_0_energy">   -538.30424081 </i>
   </energy>
  </scstep>
  <scstep>
   <time name="dav">   81.96   81.99</time>
   <time name="total">   81.96   81.99</time>
   <energy>
    <i name="e_fr_energy">   -687.59918789 </i>
    <i name="e_wo_entrp">   -687.59918789 </i>
    <i name="e_0_energy">   -687.59918789 </i>
   </energy>
  </scstep>
  <scstep>
   <time name="dav">   80.68   80.72</time>
   <time name="total">   80.69   80.73</time>
   <energy>
    <i name="e_fr_energy">   -691.83443939 </i>
    <i name="e_wo_entrp">   -691.83443939 </i>
    <i name="e_0_energy">   -691.83443939 </i>
   </energy>
  </scstep>
  <scstep>
   <time name="dav">   82.52   82.55</time>
   <time name="total">   85.85   85.87</time>
   <energy>
    <i name="e_fr_energy">   -691.98413167 </i>
    <i name="e_wo_entrp">   -691.98413167 </i>
    <i name="e_0_energy">   -691.98413167 </i>
   </energy>
  </scstep>
  <scstep>
   <time name="dav">   77.89   77.92</time>
   <time name="total">   82.22   82.26</time>
   <energy>
    <i name="e_fr_energy">   -683.51358161 </i>
    <i name="e_wo_entrp">   -683.51358161 </i>
    <i name="e_0_energy">   -683.51358161 </i>
   </energy>
  </scstep>
  <scstep>
   <time name="dav">   77.65   77.68</time>
   <time name="total">   81.97   82.00</time>
   <energy>
    <i name="e_fr_energy">   -679.97697208 </i>
    <i name="e_wo_entrp">   -679.97697208 </i>
    <i name="e_0_energy">   -679.97697208 </i>
   </energy>
  </scstep>
  <scstep>
   <time name="dav">   76.61   76.63</time>
   <time name="total">   80.96   80.98</time>
   <energy>
    <i name="e_fr_energy">   -680.03376883 </i>
    <i name="e_wo_entrp">   -680.03376883 </i>
    <i name="e_0_energy">   -680.03376883 </i>
   </energy>
  </scstep>
  <scstep>
   <time name="dav">   79.90   79.93</time>
   <time name="total">   84.25   84.28</time>
   <energy>
    <i name="e_fr_energy">   -680.05604040 </i>
    <i name="e_wo_entrp">   -680.05604040 </i>
    <i name="e_0_energy">   -680.05604040 </i>
   </energy>
  </scstep>
  <scstep>
   <time name="dav">   78.50   78.52</time>
   <time name="total">   82.92   82.95</time>
   <energy>
    <i name="e_fr_energy">   -680.05851626 </i>
    <i name="e_wo_entrp">   -680.05851626 </i>
    <i name="e_0_energy">   -680.05851626 </i>
   </energy>
  </scstep>
  <scstep>
   <time name="dav">   76.85   76.88</time>
   <time name="total">   81.23   81.26</time>
   <energy>
    <i name="e_fr_energy">   -680.06001723 </i>
    <i name="e_wo_entrp">   -680.06001723 </i>
    <i name="e_0_energy">   -680.06001723 </i>
   </energy>
  </scstep>
  <scstep>
   <time name="dav">   80.35   80.37</time>
   <time name="total">   84.73   84.75</time>
   <energy>
    <i name="e_fr_energy">   -680.06008821 </i>
    <i name="e_wo_entrp">   -680.06008821 </i>
    <i name="e_0_energy">   -680.06008821 </i>
   </energy>
  </scstep>
  <scstep>
   <time name="dav">   76.19   76.20</time>
   <time name="total">   80.36   80.37</time>
   <energy>
    <i name="e_fr_energy">   -680.06011653 </i>
    <i name="e_wo_entrp">   -680.06011653 </i>
    <i name="e_0_energy">   -680.06011653 </i>
   </energy>
  </scstep>
  <scstep>
   <time name="dav">   80.51   80.54</time>
   <time name="total">   84.68   84.71</time>
   <energy>
    <i name="e_fr_energy">   -680.06012222 </i>
    <i name="e_wo_entrp">   -680.06012222 </i>
    <i name="e_0_energy">   -680.06012222 </i>
   </energy>
  </scstep>
  <scstep>
   <time name="dav">   80.70   80.73</time>
   <time name="total">   84.87   84.91</time>
   <energy>
    <i name="e_fr_energy">   -680.06012534 </i>
    <i name="e_wo_entrp">   -680.06012534 </i>
    <i name="e_0_energy">   -680.06012534 </i>
   </energy>
  </scstep>
  <scstep>
   <time name="dav">   79.07   79.11</time>
   <time name="total">   83.18   83.22</time>
   <energy>
    <i name="e_fr_energy">   -680.06012493 </i>
    <i name="e_wo_entrp">   -680.06012493 </i>
    <i name="e_0_energy">   -680.06012493 </i>
   </energy>
  </scstep>
  <scstep>
   <time name="dav">   62.33   62.35</time>
   <time name="total">   66.44   66.47</time>
   <energy>
    <i name="e_fr_energy">   -680.06012487 </i>
    <i name="e_wo_entrp">   -680.06012487 </i>
    <i name="e_0_energy">   -680.06012487 </i>
   </energy>
  </scstep>
  <scstep>
   <time name="dav">   52.59   52.60</time>
   <time name="total">   56.72   56.73</time>
   <energy>
    <i name="e_fr_energy">   -680.06012500 </i>
    <i name="e_wo_entrp">   -680.06012500 </i>
    <i name="e_0_energy">   -680.06012500 </i>
   </energy>
  </scstep>
  <scstep>
   <time name="dav">   51.34   51.36</time>
   <time name="total">   55.46   55.48</time>
   <energy>
    <i name="e_fr_energy">   -680.06012494 </i>
    <i name="e_wo_entrp">   -680.06012494 </i>
    <i name="e_0_energy">   -680.06012494 </i>
   </energy>
  </scstep>
  <scstep>
   <time name="dav">   50.53   50.55</time>
   <time name="total">   51.54   51.56</time>
   <energy>
    <i name="alphaZ">    210.77028614 </i>
    <i name="ewald"> -14471.02737988 </i>
    <i name="hartreedc">  -1003.00459232 </i>
    <i name="XCdc">  -1155.75791569 </i>
    <i name="pawpsdc">   4730.54905821 </i>
    <i name="pawaedc">  -2492.26869132 </i>
    <i name="eentropy">     -0.00000000 </i>
    <i name="bandstr">    308.19824992 </i>
    <i name="atom">  13192.48085998 </i>
    <i name="e_fr_energy">   -680.06012495 </i>
    <i name="e_wo_entrp">   -680.06012495 </i>
    <i name="e_0_energy">   -680.06012495 </i>
   </energy>
  </scstep>
  <structure>
   <crystal>
    <varray name="basis" >
     <v>       0.00000000      10.93733369      10.93733369 </v>
     <v>      10.93733369       0.00000000      10.93733369 </v>
     <v>      10.93733369      10.93733369       0.00000000 </v>
    </varray>
    <i name="volume">   2616.76295363 </i>
    <varray name="rec_basis" >
     <v>      -0.04571498       0.04571498       0.04571498 </v>
     <v>       0.04571498      -0.04571498       0.04571498 </v>
     <v>       0.04571498       0.04571498      -0.04571498 </v>
    </varray>
   </crystal>
   <varray name="positions" >
    <v>       0.99396099       0.00506805       0.00271624 </v>
    <v>       0.25501360       0.01137019       0.99817788 </v>
    <v>       0.48912532       0.00255396       0.00858874 </v>
    <v>       0.75162350       0.99791777       0.01055801 </v>
    <v>       0.99871294       0.24594467       0.99717473 </v>
    <v>       0.25439252       0.25369716       0.00041768 </v>
    <v>       0.50539247       0.25823265       0.99348764 </v>
    <v>       0.74443404       0.24352324       0.01863719 </v>
    <v>       0.99953722       0.50656324       0.99755341 </v>
    <v>       0.24157066       0.50138770       0.01770904 </v>
    <v>       0.50342574       0.50227785       0.99099089 </v>
    <v>       0.75169293       0.50224714       0.99864206 </v>
    <v>       0.00254101       0.76181235       0.99710206 </v>
    <v>       0.25169169       0.74691471       0.99672216 </v>
    <v>       0.49499341       0.75580079       0.00248399 </v>
    <v>       0.74938605       0.75484585       0.99424606 </v>
    <v>       0.00000936       0.99906249       0.25593480 </v>
    <v>       0.24060031       0.01963223       0.24502091 </v>
    <v>       0.50475645       0.99764613       0.24836430 </v>
    <v>       0.75136144       0.00879279       0.25221170 </v>
    <v>       0.99000864       0.25393669       0.25743886 </v>
    <v>       0.25119307       0.24826090       0.24778270 </v>
    <v>       0.50121646       0.24016277       0.24666920 </v>
    <v>       0.75593817       0.25392057       0.23981770 </v>
    <v>       0.99644366       0.50151974       0.25429715 </v>
    <v>       0.25273586       0.51027624       0.24273222 </v>
    <v>       0.50266102       0.49978158       0.25585137 </v>
    <v>       0.75345657       0.50238291       0.24131095 </v>
    <v>       0.00364895       0.74254475       0.23728864 </v>
    <v>       0.24445123       0.76169606       0.24020094 </v>
    <v>       0.50613972       0.74067759       0.25041186 </v>
    <v>       0.74901230       0.74241753       0.24270006 </v>
    <v>       0.00010380       0.99665421       0.50758138 </v>
    <v>       0.24930440       0.99691051       0.50953877 </v>
    <v>       0.49433925       0.00290920       0.50686671 </v>
    <v>       0.74888697       0.00591413       0.49704066 </v>
    <v>       0.00152847       0.24967239       0.50664351 </v>
    <v>       0.24081745       0.25503868       0.50449843 </v>
    <v>       0.50126506       0.24113853       0.50257881 </v>
    <v>       0.74117520       0.26735715       0.49943678 </v>
    <v>       0.99938212       0.50361233       0.50429932 </v>
    <v>       0.25102758       0.48225671       0.51437207 </v>
    <v>       0.49641963       0.50261660       0.50163960 </v>
    <v>       0.74536256       0.50531278       0.49625519 </v>
    <v>       0.99976038       0.75859930       0.51240585 </v>
    <v>       0.24642423       0.75515786       0.50812068 </v>
    <v>       0.49787569       0.76385338       0.49573102 </v>
    <v>       0.75473719       0.75279154       0.49563000 </v>
    <v>       0.01070681       0.99546032       0.73460234 </v>
    <v>       0.25350193       0.99839037       0.74608938 </v>
    <v>       0.49362745       0.00440732       0.74970896 </v>
    <v>       0.75444953       0.99774991       0.74986442 </v>
    <v>       0.00004161       0.24735678       0.74755095 </v>
    <v>       0.25277498       0.24771025       0.75659202 </v>
    <v>       0.49400894       0.24649904       0.75272714 </v>
    <v>       0.75010159       0.24721874       0.74793011 </v>
    <v>       0.00470122       0.50233732       0.73816408 </v>
    <v>       0.23820782       0.49650754       0.74853167 </v>
    <v>       0.49105439       0.50347761       0.75679012 </v>
    <v>       0.75948794       0.50224486       0.74382185 </v>
    <v>       0.99198621       0.76504825       0.75808958 </v>
    <v>       0.25755289       0.75025449       0.75397140 </v>
    <v>       0.49720443       0.74682259       0.75675095 </v>
    <v>       0.75385276       0.74955162       0.74187888 </v>
    <v>       0.04255824       0.06988619       0.06682286 </v>
    <v>       0.30254326       0.07652089       0.06103824 </v>
    <v>       0.56549220       0.06674525       0.06695863 </v>
    <v>       0.80411634       0.05395780       0.08019199 </v>
    <v>       0.07108921       0.32133085       0.05917043 </v>
    <v>       0.30640058       0.31859568       0.06529838 </v>
    <v>       0.56973133       0.31953056       0.04875341 </v>
    <v>       0.80673272       0.31879540       0.06541869 </v>
    <v>       0.06095462       0.56025344       0.06581077 </v>
    <v>       0.31326213       0.56750460       0.06035791 </v>
    <v>       0.57425200       0.55927412       0.06053539 </v>
    <v>       0.81906110       0.55705862       0.06353837 </v>
    <v>       0.06375699       0.81034977       0.06257606 </v>
    <v>       0.31065925       0.82248699       0.05967278 </v>
    <v>       0.55973991       0.82027611       0.06187800 </v>
    <v>       0.81534775       0.81033851       0.06405523 </v>
    <v>       0.06343516       0.05929542       0.31655714 </v>
    <v>       0.30697995       0.06044648       0.32282212 </v>
    <v>       0.56091466       0.06061183       0.30807853 </v>
    <v>       0.81086944       0.06732416       0.31475322 </v>
    <v>       0.06254300       0.31917183       0.30850307 </v>
    <v>       0.30230109       0.31047688       0.31506792 </v>
    <v>       0.55067123       0.31859566       0.31870852 </v>
    <v>       0.80676945       0.32568026       0.30913096 </v>
    <v>       0.05459816       0.56162252       0.31857898 </v>
    <v>       0.31492977       0.54486332       0.31877125 </v>
    <v>       0.56204436       0.54903475       0.32544822 </v>
    <v>       0.80584727       0.56097467       0.32117308 </v>
    <v>       0.05364132       0.81638710       0.31319180 </v>
    <v>       0.31426181       0.82099618       0.30780384 </v>
    <v>       0.54743949       0.81939181       0.31038435 </v>
    <v>       0.80147834       0.81261289       0.31561777 </v>
    <v>       0.07181554       0.05826913       0.56565193 </v>
    <v>       0.32028093       0.05599137       0.56996638 </v>
    <v>       0.55045291       0.06421083       0.57182334 </v>
    <v>       0.81012374       0.06382273       0.55451808 </v>
    <v>       0.06141537       0.31610976       0.56674359 </v>
    <v>       0.31898004       0.31074049       0.55604695 </v>
    <v>       0.55421519       0.31037276       0.57232711 </v>
    <v>       0.82007906       0.30703581       0.55947627 </v>
    <v>       0.06727370       0.55991386       0.55702558 </v>
    <v>       0.31881476       0.57208214       0.55531988 </v>
    <v>       0.55639184       0.57128558       0.56242959 </v>
    <v>       0.81073531       0.55723234       0.55483103 </v>
    <v>       0.06435320       0.82113893       0.56203907 </v>
    <v>       0.30925800       0.81084967       0.57458051 </v>
    <v>       0.56328787       0.82954618       0.55510436 </v>
    <v>       0.80855595       0.81901482       0.56368486 </v>
    <v>       0.06773851       0.06093837       0.81285270 </v>
    <v>       0.32030847       0.07392729       0.80050048 </v>
    <v>       0.57695941       0.04707940       0.82143572 </v>
    <v>       0.81653332       0.05385910       0.81849693 </v>
    <v>       0.06569311       0.30760292       0.81282138 </v>
    <v>       0.30384817       0.32308515       0.81649640 </v>
    <v>       0.56237883       0.31465381       0.79936140 </v>
    <v>       0.81559956       0.30455293       0.80985840 </v>
    <v>       0.06613150       0.56513935       0.80941776 </v>
    <v>       0.31268085       0.56837451       0.80558851 </v>
    <v>       0.57150647       0.56470488       0.79791818 </v>
    <v>       0.80910427       0.56768621       0.81318354 </v>
    <v>       0.06774170       0.81294858       0.81305289 </v>
    <v>       0.30795262       0.81566177       0.81610640 </v>
    <v>       0.55643520       0.81454167       0.81670606 </v>
    <v>       0.80475185       0.82124871       0.81005204 </v>
   </varray>
  </structure>
  <varray name="forces" >
   <v>      -1.04363524      -0.21338545      -0.92797975 </v>
   <v>      -1.02681895      -2.15794903      -1.62264323 </v>
   <v>       0.33856359       0.55218672       1.28954614 </v>
   <v>      -0.99415772      -0.88334920      -0.66378394 </v>
   <v>       1.95922172      -0.17306372       1.31600672 </v>
   <v>       0.56416938      -0.91408385       0.49759673 </v>
   <v>      -0.54971401      -0.86263510      -0.93840972 </v>
   <v>      -1.79458669      -0.42952050       1.29171307 </v>
   <v>      -0.89886642       0.40496612       0.26762460 </v>
   <v>      -1.58089191      -1.17571673       0.89889084 </v>
   <v>       0.52178670       0.14755115       0.88128998 </v>
   <v>      -0.30617086       0.49439496       0.62227039 </v>
   <v>      -1.29368664      -0.25738157      -1.80816926 </v>
   <v>       1.64591715       0.03246196       0.73501277 </v>
   <v>      -0.54163675       0.85026826       0.00138064 </v>
   <v>       0.20407210       0.62677084      -0.38159362 </v>
   <v>      -0.11542328      -0.95941068      -0.12943955 </v>
   <v>      -1.06010915       1.71942208      -0.30354926 </v>
   <v>       0.71425757      -1.19801668      -0.84306322 </v>
   <v>       0.06326062       0.82416436      -2.65861167 </v>
   <v>      -0.88298858       0.36081228       0.86928016 </v>
   <v>       0.37572878       0.00098631      -0.85964067 </v>
   <v>       1.71736576      -1.21430541       0.98246969 </v>
   <v>       2.40967016       0.72776395      -1.52010155 </v>
   <v>       0.00980928      -0.65153466      -0.26615485 </v>
   <v>      -0.70391023      -0.29048462      -2.43699436 </v>
   <v>      -0.71651439      -1.47212350      -0.44385719 </v>
   <v>       1.91900556       0.37065023      -0.39797831 </v>
   <v>       3.07724574       0.69632139      -0.99310680 </v>
   <v>       0.56187579       1.76551105      -1.19737932 </v>
   <v>       0.29898995      -0.90027427      -0.63224228 </v>
   <v>       2.41178909       0.23953664      -0.34816049 </v>
   <v>       0.57458352      -1.27946688       1.30796520 </v>
   <v>      -0.62051520       0.68243256       0.84513921 </v>
   <v>      -0.86837052      -0.77570133       2.15880376 </v>
   <v>       0.14167641      -0.83094481      -1.66830837 </v>
   <v>      -1.18682251      -0.29155710       0.78448182 </v>
   <v>      -1.42085746       0.91285696       0.32457592 </v>
   <v>       0.94419478      -0.33535398       1.32964070 </v>
   <v>      -1.64097079       0.03327336      -1.05366848 </v>
   <v>      -0.83482081      -1.18437271      -0.94573351 </v>
   <v>       0.98537542      -1.55124127       2.77720417 </v>
   <v>       0.18286288       1.75472068      -0.24435832 </v>
   <v>      -0.18419063       0.60588871      -2.20878011 </v>
   <v>      -2.20104094      -1.46566690      -1.09438755 </v>
   <v>      -0.92985002      -0.64352279       0.95342855 </v>
   <v>      -0.12806649       0.33010447      -0.46620150 </v>
   <v>       0.16559968       0.28825894      -0.93244698 </v>
   <v>       3.17016120       1.97834675      -1.47809906 </v>
   <v>       1.67195733       1.05797401      -0.01648435 </v>
   <v>      -0.26945705       2.63779705       0.66200124 </v>
   <v>      -0.03985440      -0.56560659       1.34124229 </v>
   <v>       0.49876703       0.85294287       0.08931889 </v>
   <v>       0.30272839      -1.73536361       1.14825639 </v>
   <v>       0.07660998       0.77822156      -0.64624350 </v>
   <v>      -0.38045512      -0.02331654      -0.23983255 </v>
   <v>       1.12987380       1.03151289      -1.03556800 </v>
   <v>       0.19813414       0.62728237       3.64913669 </v>
   <v>      -1.60855137       0.10589060       0.83785166 </v>
   <v>      -0.78248447      -0.30564379      -1.10766133 </v>
   <v>      -2.06326610      -0.29431999      -0.69534358 </v>
   <v>       0.05611773      -0.77425521      -1.15475733 </v>
   <v>      -0.18897227      -0.98573382       0.99722372 </v>
   <v>       1.97450480      -0.02856528      -0.61373314 </v>
   <v>      -0.57697871       2.48536592       0.92095982 </v>
   <v>      -0.09715552       1.39551902       0.28809883 </v>
   <v>      -0.55186634      -1.36838582      -0.11624352 </v>
   <v>      -0.60893303      -0.64658455       2.31969681 </v>
   <v>      -0.09063089      -0.48598617      -2.17820423 </v>
   <v>      -0.76196618       1.12199090       1.01841619 </v>
   <v>       1.21965181       0.33946303      -1.36722755 </v>
   <v>      -1.66294850      -0.26932292       0.99281611 </v>
   <v>       1.43627911      -0.59536301       0.68855301 </v>
   <v>      -0.54500114       0.84077526       0.14593860 </v>
   <v>       1.39841198      -1.49532954      -1.17338607 </v>
   <v>       0.32163848      -1.85981864       0.74378512 </v>
   <v>       0.31106759      -0.21584499       1.99071512 </v>
   <v>      -0.55609395      -0.67687772      -0.20908595 </v>
   <v>      -0.48784677       0.61088143      -0.72465338 </v>
   <v>      -0.60962323      -0.77401357       0.49433446 </v>
   <v>       1.38782668      -0.73484249      -0.22604291 </v>
   <v>      -0.45732204      -0.08439858       0.94140767 </v>
   <v>       0.78500660       1.83087717       0.18603034 </v>
   <v>      -0.10493938       0.21165319       0.96670053 </v>
   <v>      -0.17060504       0.83932453      -1.15230448 </v>
   <v>       0.20784351       0.48069324       1.61947185 </v>
   <v>      -2.35275284       0.58419292       0.05304719 </v>
   <v>      -0.92866948       0.52809529      -1.32776505 </v>
   <v>      -0.71423899       0.83334916       1.13425862 </v>
   <v>       2.10790421       0.33664590       1.74035297 </v>
   <v>      -0.33206724      -0.65004935       2.12624007 </v>
   <v>      -1.76064788      -0.86089609       0.96508020 </v>
   <v>      -0.64946801       0.64438021      -0.40243906 </v>
   <v>       0.02560357      -0.35216370      -0.51011757 </v>
   <v>      -1.12428492       1.63533625       0.43965423 </v>
   <v>      -1.19813317      -0.41643065       1.44423110 </v>
   <v>      -0.46833574      -2.76240248       0.84205093 </v>
   <v>       0.60373881      -2.80736778      -0.23797292 </v>
   <v>      -1.59187321       0.76853412       1.01427667 </v>
   <v>       1.90427487       1.03028977       1.30538666 </v>
   <v>       0.10710621      -0.69949858      -0.29927579 </v>
   <v>       0.07806593       1.40898438      -1.91545999 </v>
   <v>      -0.45945241      -0.79496059       0.59351068 </v>
   <v>       1.45941595      -0.23459135       0.22622100 </v>
   <v>       1.45189127       0.08953563       1.29082646 </v>
   <v>       0.20321852      -0.70940633      -2.45598629 </v>
   <v>       0.28292434       0.18427100      -0.05348417 </v>
   <v>       1.86047243       1.19523381       1.66940028 </v>
   <v>       0.63162840       1.70668860      -0.97503065 </v>
   <v>      -0.63652282      -0.38255684       0.94904594 </v>
   <v>      -1.07776483       1.82070947      -1.94525094 </v>
   <v>      -1.11934329      -0.10389504       0.78446892 </v>
   <v>      -0.42125623      -0.85424889      -0.63361915 </v>
   <v>       0.40448013       0.35612324      -2.91124990 </v>
   <v>       1.18582438      -2.40109885      -0.91524730 </v>
   <v>       0.08518335      -0.07560733       0.79560000 </v>
   <v>       0.03701984      -0.80287676       0.10879101 </v>
   <v>      -1.64430773       1.24373197      -0.73488657 </v>
   <v>       0.99297301       0.78357144      -0.04751000 </v>
   <v>       1.66701560       0.40607846      -0.04487718 </v>
   <v>       1.52615792      -2.13635861      -0.99487580 </v>
   <v>       0.69966157       0.25108343      -2.24992418 </v>
   <v>       0.59055333       0.80633553      -0.58134004 </v>
   <v>      -1.12190851       0.61317800       0.53778346 </v>
   <v>       0.06935305       0.46808238       0.50678713 </v>
   <v>      -0.36797428       0.82459424       0.80622062 </v>
   <v>      -0.53627955       0.08849353       0.48890196 </v>
   <v>      -1.26321970       0.81971028      -0.64048521 </v>
  </varray>
  <varray name="stress" >
   <v>      11.23971572       2.33715737       1.71543394 </v>
   <v>       2.33715737      13.64651153      -1.68644505 </v>
   <v>       1.71543395      -1.68644505      11.90112063 </v>
  </varray>
  <energy>
   <i name="e_fr_energy">   -680.06012495 </i>
   <i name="e_wo_entrp">   -680.06012495 </i>
   <i name="e_0_energy">     -0.00000000 </i>
  </energy>
  <time name="totalsc"> 1659.56 1660.17</time>
  <eigenvalues>
   <array>
    <dimension dim="1">band</dimension>
    <dimension dim="2">kpoint</dimension>
    <dimension dim="3">spin</dimension>
    <field>eigene</field>
    <field>occ</field>
    <set>
     <set comment="spin 1">
      <set comment="kpoint 1">
       <r>   -6.2977    1.0000 </r>
       <r>   -5.7024    1.0000 </r>
       <r>   -5.6267    1.0000 </r>
       <r>   -5.5972    1.0000 </r>
       <r>   -5.5631    1.0000 </r>
       <r>   -5.5366    1.0000 </r>
       <r>   -5.4621    1.0000 </r>
       <r>   -5.4514    1.0000 </r>
       <r>   -5.3174    1.0000 </r>
       <r>   -5.2911    1.0000 </r>
       <r>   -5.2608    1.0000 </r>
       <r>   -5.2433    1.0000 </r>
       <r>   -5.2003    1.0000 </r>
       <r>   -5.1533    1.0000 </r>
       <r>   -5.1309    1.0000 </r>
       <r>   -4.4593    1.0000 </r>
       <r>   -4.4402    1.0000 </r>
       <r>   -4.4039    1.0000 </r>
       <r>   -4.3547    1.0000 </r>
       <r>   -4.3439    1.0000 </r>
       <r>   -4.3323    1.0000 </r>
       <r>   -4.2866    1.0000 </r>
       <r>   -4.2753    1.0000 </r>
       <r>   -4.2647    1.0000 </r>
       <r>   -4.2214    1.0000 </r>
       <r>   -4.1996    1.0000 </r>
       <r>   -4.0960    1.0000 </r>
       <r>   -4.0594    1.0000 </r>
       <r>   -4.0005    1.0000 </r>
       <r>   -3.9741    1.0000 </r>
       <r>   -3.9260    1.0000 </r>
       <r>   -3.8901    1.0000 </r>
       <r>   -3.8318    1.0000 </r>
       <r>   -3.8115    1.0000 </r>
       <r>   -3.7693    1.0000 </r>
       <r>   -3.7524    1.0000 </r>
       <r>   -3.7273    1.0000 </r>
       <r>   -3.6873    1.0000 </r>
       <r>   -3.6810    1.0000 </r>
       <r>   -3.6577    1.0000 </r>
       <r>   -3.6172    1.0000 </r>
       <r>   -3.6009    1.0000 </r>
       <r>   -3.5801    1.0000 </r>
       <r>   -3.5700    1.0000 </r>
       <r>   -3.5509    1.0000 </r>
       <r>   -3.5115    1.0000 </r>
       <r>   -3.4674    1.0000 </r>
       <r>   -3.4521    1.0000 </r>
       <r>   -3.4281    1.0000 </r>
       <r>   -3.3789    1.0000 </r>
       <r>   -3.3554    1.0000 </r>
       <r>   -3.3005    1.0000 </r>
       <r>   -3.2821    1.0000 </r>
       <r>   -3.2170    1.0000 </r>
       <r>   -3.1711    1.0000 </r>
       <r>   -2.3511    1.0000 </r>
       <r>   -2.3090    1.0000 </r>
       <r>   -2.2583    1.0000 </r>
       <r>   -2.2335    1.0000 </r>
       <r>   -2.2048    1.0000 </r>
       <r>   -2.1786    1.0000 </r>
       <r>   -2.1226    1.0000 </r>
       <r>   -2.1022    1.0000 </r>
       <r>   -2.0856    1.0000 </r>
       <r>   -2.0543    1.0000 </r>
       <r>   -1.9931    1.0000 </r>
       <r>   -1.9703    1.0000 </r>
       <r>   -1.9542    1.0000 </r>
       <r>   -1.9414    1.0000 </r>
       <r>   -1.8939    1.0000 </r>
       <r>   -1.8847    1.0000 </r>
       <r>   -1.8382    1.0000 </r>
       <r>   -1.7593    1.0000 </r>
       <r>   -1.3457    1.0000 </r>
       <r>   -1.3116    1.0000 </r>
       <r>   -1.2585    1.0000 </r>
       <r>   -1.2502    1.0000 </r>
       <r>   -1.0110    1.0000 </r>
       <r>   -0.9892    1.0000 </r>
       <r>   -0.9711    1.0000 </r>
       <r>   -0.9267    1.0000 </r>
       <r>   -0.9101    1.0000 </r>
       <r>   -0.8729    1.0000 </r>
       <r>   -0.8406    1.0000 </r>
       <r>   -0.8191    1.0000 </r>
       <r>   -0.7962    1.0000 </r>
       <r>   -0.7688    1.0000 </r>
       <r>   -0.7401    1.0000 </r>
       <r>   -0.7225    1.0000 </r>
       <r>   -0.7074    1.0000 </r>
       <r>   -0.6840    1.0000 </r>
       <r>   -0.6506    1.0000 </r>
       <r>   -0.6301    1.0000 </r>
       <r>   -0.5932    1.0000 </r>
       <r>   -0.5812    1.0000 </r>
       <r>   -0.5569    1.0000 </r>
       <r>   -0.5263    1.0000 </r>
       <r>   -0.5122    1.0000 </r>
       <r>   -0.4700    1.0000 </r>
       <r>   -0.4484    1.0000 </r>
       <r>   -0.3970    1.0000 </r>
       <r>   -0.0078    1.0000 </r>
       <r>    0.0394    1.0000 </r>
       <r>    0.0871    1.0000 </r>
       <r>    0.1217    1.0000 </r>
       <r>    0.1456    1.0000 </r>
       <r>    0.1677    1.0000 </r>
       <r>    0.1987    1.0000 </r>
       <r>    0.2066    1.0000 </r>
       <r>    0.2835    1.0000 </r>
       <r>    0.3048    1.0000 </r>
       <r>    0.3369    1.0000 </r>
       <r>    0.3537    1.0000 </r>
       <r>    1.4534    1.0000 </r>
       <r>    1.4632    1.0000 </r>
       <r>    1.4868    1.0000 </r>
       <r>    1.5347    1.0000 </r>
       <r>    1.5540    1.0000 </r>
       <r>    1.5674    1.0000 </r>
       <r>    1.5988    1.0000 </r>
       <r>    1.6076    1.0000 </r>
       <r>    1.6228    1.0000 </r>
       <r>    1.6612    1.0000 </r>
       <r>    1.6849    1.0000 </r>
       <r>    1.7030    1.0000 </r>
       <r>    1.7203    1.0000 </r>
       <r>    1.7215    1.0000 </r>
       <r>    1.7486    1.0000 </r>
       <r>    1.7633    1.0000 </r>
       <r>    1.7849    1.0000 </r>
       <r>    1.8005    1.0000 </r>
       <r>    1.8086    1.0000 </r>
       <r>    1.8215    1.0000 </r>
       <r>    1.8314    1.0000 </r>
       <r>    1.8446    1.0000 </r>
       <r>    1.8571    1.0000 </r>
       <r>    1.8599    1.0000 </r>
       <r>    1.8691    1.0000 </r>
       <r>    1.8862    1.0000 </r>
       <r>    1.9217    1.0000 </r>
       <r>    1.9311    1.0000 </r>
       <r>    1.9474    1.0000 </r>
       <r>    1.9589    1.0000 </r>
       <r>    1.9678    1.0000 </r>
       <r>    1.9893    1.0000 </r>
       <r>    1.9975    1.0000 </r>
       <r>    2.0085    1.0000 </r>
       <r>    2.0256    1.0000 </r>
       <r>    2.0305    1.0000 </r>
       <r>    2.0432    1.0000 </r>
       <r>    2.0604    1.0000 </r>
       <r>    2.0672    1.0000 </r>
       <r>    2.0774    1.0000 </r>
       <r>    2.1058    1.0000 </r>
       <r>    2.1061    1.0000 </r>
       <r>    2.1161    1.0000 </r>
       <r>    2.1345    1.0000 </r>
       <r>    2.1535    1.0000 </r>
       <r>    2.1570    1.0000 </r>
       <r>    2.1942    1.0000 </r>
       <r>    2.1950    1.0000 </r>
       <r>    2.2065    1.0000 </r>
       <r>    2.2222    1.0000 </r>
       <r>    2.2320    1.0000 </r>
       <r>    2.2577    1.0000 </r>
       <r>    2.2834    1.0000 </r>
       <r>    2.2983    1.0000 </r>
       <r>    2.3250    1.0000 </r>
       <r>    2.3431    1.0000 </r>
       <r>    2.3846    1.0000 </r>
       <r>    2.4090    1.0000 </r>
       <r>    2.4155    1.0000 </r>
       <r>    2.4711    1.0000 </r>
       <r>    2.4953    1.0000 </r>
       <r>    2.6133    1.0000 </r>
       <r>    2.7793    1.0000 </r>
       <r>    2.7848    1.0000 </r>
       <r>    2.7973    1.0000 </r>
       <r>    2.8373    1.0000 </r>
       <r>    2.8417    1.0000 </r>
       <r>    2.8626    1.0000 </r>
       <r>    3.1981    1.0000 </r>
       <r>    3.2249    1.0000 </r>
       <r>    3.2467    1.0000 </r>
       <r>    3.2632    1.0000 </r>
       <r>    3.2775    1.0000 </r>
       <r>    3.2929    1.0000 </r>
       <r>    3.3216    1.0000 </r>
       <r>    3.3482    1.0000 </r>
       <r>    3.3650    1.0000 </r>
       <r>    3.3777    1.0000 </r>
       <r>    3.3871    1.0000 </r>
       <r>    3.3922    1.0000 </r>
       <r>    3.4304    1.0000 </r>
       <r>    3.4569    1.0000 </r>
       <r>    3.4764    1.0000 </r>
       <r>    3.4849    1.0000 </r>
       <r>    3.5067    1.0000 </r>
       <r>    3.5200    1.0000 </r>
       <r>    3.5441    1.0000 </r>
       <r>    3.5663    1.0000 </r>
       <r>    3.5750    1.0000 </r>
       <r>    3.5885    1.0000 </r>
       <r>    3.6298    1.0000 </r>
       <r>    3.6746    1.0000 </r>
       <r>    3.6851    1.0000 </r>
       <r>    3.6978    1.0000 </r>
       <r>    3.7098    1.0000 </r>
       <r>    3.7328    1.0000 </r>
       <r>    3.7405    1.0000 </r>
       <r>    3.7792    1.0000 </r>
       <r>    3.8003    1.0000 </r>
       <r>    3.8369    1.0000 </r>
       <r>    3.8576    1.0000 </r>
       <r>    3.8677    1.0000 </r>
       <r>    3.9037    1.0000 </r>
       <r>    3.9781    1.0000 </r>
       <r>    4.1770    1.0000 </r>
       <r>    4.1981    1.0000 </r>
       <r>    4.2271    1.0000 </r>
       <r>    4.2377    1.0000 </r>
       <r>    4.2750    1.0000 </r>
       <r>    4.2837    1.0000 </r>
       <r>    4.3229    1.0000 </r>
       <r>    4.3316    1.0000 </r>
       <r>    4.3606    1.0000 </r>
       <r>    4.3752    1.0000 </r>
       <r>    4.3892    1.0000 </r>
       <r>    4.4044    1.0000 </r>
       <r>    4.4520    1.0000 </r>
       <r>    4.4627    1.0000 </r>
       <r>    4.4855    1.0000 </r>
       <r>    4.5171    1.0000 </r>
       <r>    4.5290    1.0000 </r>
       <r>    4.5530    1.0000 </r>
       <r>    4.6124    1.0000 </r>
       <r>    4.6245    1.0000 </r>
       <r>    4.7045    1.0000 </r>
       <r>    4.7636    1.0000 </r>
       <r>    4.8276    1.0000 </r>
       <r>    4.8730    1.0000 </r>
       <r>    4.9103    1.0000 </r>
       <r>    4.9281    1.0000 </r>
       <r>    4.9417    1.0000 </r>
       <r>    4.9711    1.0000 </r>
       <r>    4.9789    1.0000 </r>
       <r>    4.9919    1.0000 </r>
       <r>    5.0595    1.0000 </r>
       <r>    5.0865    1.0000 </r>
       <r>    5.1402    1.0000 </r>
       <r>    5.1673    1.0000 </r>
       <r>    5.2126    1.0000 </r>
       <r>    5.2714    1.0000 </r>
       <r>    5.6854    1.0000 </r>
       <r>    5.7195    1.0000 </r>
       <r>    5.8146    1.0000 </r>
       <r>    6.1891    0.0000 </r>
       <r>    6.2040    0.0000 </r>
       <r>    6.2344    0.0000 </r>
       <r>    6.2826    0.0000 </r>
       <r>    6.2866    0.0000 </r>
       <r>    6.3401    0.0000 </r>
       <r>    6.5434    0.0000 </r>
       <r>    6.5809    0.0000 </r>
       <r>    6.6195    0.0000 </r>
       <r>    6.6463    0.0000 </r>
       <r>    6.6812    0.0000 </r>
       <r>    6.7045    0.0000 </r>
       <r>    6.7904    0.0000 </r>
       <r>    6.8227    0.0000 </r>
       <r>    6.8493    0.0000 </r>
       <r>    6.8679    0.0000 </r>
       <r>    6.8878    0.0000 </r>
       <r>    6.9140    0.0000 </r>
       <r>    6.9411    0.0000 </r>
       <r>    6.9653    0.0000 </r>
       <r>    7.0030    0.0000 </r>
       <r>    7.0071    0.0000 </r>
       <r>    7.0252    0.0000 </r>
       <r>    7.0320    0.0000 </r>
       <r>    7.0456    0.0000 </r>
       <r>    7.0552    0.0000 </r>
       <r>    7.0747    0.0000 </r>
       <r>    7.0967    0.0000 </r>
       <r>    7.1288    0.0000 </r>
       <r>    7.1447    0.0000 </r>
       <r>    7.1669    0.0000 </r>
       <r>    7.1690    0.0000 </r>
       <r>    7.1827    0.0000 </r>
       <r>    7.2112    0.0000 </r>
       <r>    7.2177    0.0000 </r>
       <r>    7.2443    0.0000 </r>
       <r>    7.2640    0.0000 </r>
       <r>    7.2870    0.0000 </r>
       <r>    7.3209    0.0000 </r>
       <r>    7.3466    0.0000 </r>
       <r>    7.4201    0.0000 </r>
       <r>    7.4531    0.0000 </r>
       <r>    7.4748    0.0000 </r>
       <r>    7.5327    0.0000 </r>
       <r>    7.5578    0.0000 </r>
       <r>    7.5829    0.0000 </r>
       <r>    7.6130    0.0000 </r>
       <r>    7.6458    0.0000 </r>
       <r>    7.8323    0.0000 </r>
       <r>    7.8579    0.0000 </r>
       <r>    7.8970    0.0000 </r>
       <r>    7.9168    0.0000 </r>
       <r>    7.9456    0.0000 </r>
       <r>    7.9630    0.0000 </r>
       <r>    7.9858    0.0000 </r>
       <r>    8.0135    0.0000 </r>
       <r>    8.0267    0.0000 </r>
       <r>    8.0544    0.0000 </r>
       <r>    8.1103    0.0000 </r>
       <r>    8.1266    0.0000 </r>
       <r>    8.1844    0.0000 </r>
       <r>    8.1925    0.0000 </r>
       <r>    8.2527    0.0000 </r>
       <r>    8.5436    0.0000 </r>
       <r>    8.6052    0.0000 </r>
       <r>    8.6217    0.0000 </r>
      </set>
      <set comment="kpoint 2">
       <r>   -6.1256    1.0000 </r>
       <r>   -6.0897    1.0000 </r>
       <r>   -5.6859    1.0000 </r>
       <r>   -5.6309    1.0000 </r>
       <r>   -5.5919    1.0000 </r>
       <r>   -5.5825    1.0000 </r>
       <r>   -5.5209    1.0000 </r>
       <r>   -5.4990    1.0000 </r>
       <r>   -5.1700    1.0000 </r>
       <r>   -5.0986    1.0000 </r>
       <r>   -5.0827    1.0000 </r>
       <r>   -5.0619    1.0000 </r>
       <r>   -5.0261    1.0000 </r>
       <r>   -4.9482    1.0000 </r>
       <r>   -4.7423    1.0000 </r>
[...]
       <r>    -3.1050    38.2758   100.5289 </r>
       <r>    -3.0502    44.0116   102.9365 </r>
       <r>    -2.9955    45.6851   105.4357 </r>
       <r>    -2.9408    38.5139   107.5426 </r>
       <r>    -2.8861    47.7473   110.1546 </r>
       <r>    -2.8314    34.8368   112.0603 </r>
       <r>    -2.7767    31.4806   113.7824 </r>
       <r>    -2.7220    30.4073   115.4459 </r>
       <r>    -2.6673    32.1700   117.2057 </r>
       <r>    -2.6126    24.7489   118.5596 </r>
       <r>    -2.5579    47.9526   121.1828 </r>
       <r>    -2.5032    22.6693   122.4230 </r>
       <r>    -2.4485     5.9784   122.7500 </r>
       <r>    -2.3938     0.0000   122.7500 </r>
       <r>    -2.3391     4.3673   122.9889 </r>
       <r>    -2.2844     4.8607   123.2548 </r>
       <r>    -2.2297    16.8368   124.1759 </r>
       <r>    -2.1750    23.3209   125.4516 </r>
       <r>    -2.1203    23.8908   126.7586 </r>
       <r>    -2.0656    31.6655   128.4908 </r>
       <r>    -2.0109    30.1617   130.1408 </r>
       <r>    -1.9562    22.3213   131.3619 </r>
       <r>    -1.9015    16.9251   132.2878 </r>
       <r>    -1.8468     8.9731   132.7786 </r>
       <r>    -1.7920     4.0466   133.0000 </r>
       <r>    -1.7373     4.5657   133.2498 </r>
       <r>    -1.6826     0.0060   133.2501 </r>
       <r>    -1.6279    14.2631   134.0303 </r>
       <r>    -1.5732    32.2210   135.7930 </r>
       <r>    -1.5185    45.2365   138.2676 </r>
       <r>    -1.4638    29.7476   139.8949 </r>
       <r>    -1.4091    26.9117   141.3671 </r>
       <r>    -1.3544    43.7190   143.7588 </r>
       <r>    -1.2997    54.1129   146.7190 </r>
       <r>    -1.2450    69.1239   150.5004 </r>
       <r>    -1.1903    60.8008   153.8264 </r>
       <r>    -1.1356    59.7491   157.0950 </r>
       <r>    -1.0809    63.5143   160.5695 </r>
       <r>    -1.0262    63.9152   164.0659 </r>
       <r>    -0.9715    68.5119   167.8138 </r>
       <r>    -0.9168    67.6631   171.5153 </r>
       <r>    -0.8621    64.7999   175.0601 </r>
       <r>    -0.8074    66.3078   178.6874 </r>
       <r>    -0.7527    47.1665   181.2677 </r>
       <r>    -0.6980    51.3288   184.0756 </r>
       <r>    -0.6433    41.4970   186.3456 </r>
       <r>    -0.5886    40.7773   188.5764 </r>
       <r>    -0.5338    24.3104   189.9062 </r>
       <r>    -0.4791    11.3005   190.5244 </r>
       <r>    -0.4244    12.2531   191.1947 </r>
       <r>    -0.3697    50.1521   193.9383 </r>
       <r>    -0.3150    41.8615   196.2283 </r>
       <r>    -0.2603    49.1689   198.9181 </r>
       <r>    -0.2056    57.5935   202.0687 </r>
       <r>    -0.1509    47.3685   204.6600 </r>
       <r>    -0.0962    47.6935   207.2691 </r>
       <r>    -0.0415    42.0074   209.5671 </r>
       <r>     0.0132    31.5229   211.2915 </r>
       <r>     0.0679    31.3005   213.0038 </r>
       <r>     0.1226    11.5953   213.6381 </r>
       <r>     0.1773    10.7930   214.2286 </r>
       <r>     0.2320     9.5313   214.7500 </r>
       <r>     0.2867     6.6521   215.1139 </r>
       <r>     0.3414    34.1803   216.9837 </r>
       <r>     0.3961    41.8095   219.2709 </r>
       <r>     0.4508    21.9432   220.4713 </r>
       <r>     0.5055    18.1479   221.4641 </r>
       <r>     0.5602    23.1941   222.7329 </r>
       <r>     0.6149    11.0621   223.3380 </r>
       <r>     0.6696    25.0324   224.7074 </r>
       <r>     0.7243    19.7893   225.7900 </r>
       <r>     0.7791    26.3935   227.2338 </r>
       <r>     0.8338     9.4355   227.7500 </r>
       <r>     0.8885     3.1208   227.9207 </r>
       <r>     0.9432    18.2944   228.9215 </r>
       <r>     0.9979    22.7235   230.1646 </r>
       <r>     1.0526    25.7415   231.5727 </r>
       <r>     1.1073    41.2825   233.8311 </r>
       <r>     1.1620    19.6796   234.9076 </r>
       <r>     1.2167    22.9852   236.1650 </r>
       <r>     1.2714    25.9580   237.5850 </r>
       <r>     1.3261    34.8311   239.4905 </r>
       <r>     1.3808    21.9885   240.6933 </r>
       <r>     1.4355    48.6197   243.3531 </r>
       <r>     1.4902    74.4939   247.4282 </r>
       <r>     1.5449    84.5679   252.0545 </r>
       <r>     1.5996    82.6176   256.5740 </r>
       <r>     1.6543    88.8430   261.4342 </r>
       <r>     1.7090    65.2743   265.0050 </r>
       <r>     1.7637    53.8832   267.9526 </r>
       <r>     1.8184    42.2274   270.2626 </r>
       <r>     1.8731    44.1248   272.6764 </r>
       <r>     1.9278    11.0807   273.2826 </r>
       <r>     1.9825    23.0099   274.5413 </r>
       <r>     2.0373    29.4507   276.1524 </r>
       <r>     2.0920    83.7758   280.7353 </r>
       <r>     2.1467   104.3872   286.4457 </r>
       <r>     2.2014   112.9724   292.6258 </r>
       <r>     2.2561   118.7410   299.1215 </r>
       <r>     2.3108   124.2034   305.9160 </r>
       <r>     2.3655   109.0212   311.8799 </r>
       <r>     2.4202   102.3942   317.4814 </r>
       <r>     2.4749    49.0593   320.1651 </r>
       <r>     2.5296    43.9989   322.5720 </r>
       <r>     2.5843    26.3494   324.0135 </r>
       <r>     2.6390    47.5040   326.6122 </r>
       <r>     2.6937    62.8017   330.0477 </r>
       <r>     2.7484   102.7839   335.6705 </r>
       <r>     2.8031    85.9527   340.3725 </r>
       <r>     2.8578    97.8193   345.7236 </r>
       <r>     2.9125    99.4795   351.1656 </r>
       <r>     2.9672    94.5376   356.3372 </r>
       <r>     3.0219   122.2620   363.0255 </r>
       <r>     3.0766    89.0553   367.8972 </r>
       <r>     3.1313    62.7259   371.3287 </r>
       <r>     3.1860    59.8431   374.6023 </r>
       <r>     3.2407    91.7563   379.6218 </r>
       <r>     3.2954   107.8932   385.5241 </r>
       <r>     3.3502    92.2476   390.5704 </r>
       <r>     3.4049    92.6596   395.6394 </r>
       <r>     3.4596    68.5607   399.3900 </r>
       <r>     3.5143    99.1953   404.8164 </r>
       <r>     3.5690    82.0836   409.3067 </r>
       <r>     3.6237    73.0293   413.3017 </r>
       <r>     3.6784    69.3164   417.0936 </r>
       <r>     3.7331    91.1498   422.0799 </r>
       <r>     3.7878    88.3716   426.9143 </r>
       <r>     3.8425    82.7037   431.4385 </r>
       <r>     3.8972    82.9433   435.9759 </r>
       <r>     3.9519    63.4654   439.4478 </r>
       <r>     4.0066    56.7629   442.5530 </r>
       <r>     4.0613    65.9275   446.1595 </r>
       <r>     4.1160    71.1916   450.0540 </r>
       <r>     4.1707    70.9010   453.9327 </r>
       <r>     4.2254    76.3186   458.1077 </r>
       <r>     4.2801    70.2014   461.9480 </r>
       <r>     4.3348    74.7397   466.0366 </r>
       <r>     4.3895    71.6891   469.9583 </r>
       <r>     4.4442    66.5734   473.6002 </r>
       <r>     4.4989    78.4384   477.8911 </r>
       <r>     4.5536    76.0059   482.0490 </r>
       <r>     4.6084    52.4966   484.9208 </r>
       <r>     4.6631    57.6299   488.0734 </r>
       <r>     4.7178    30.6211   489.7485 </r>
       <r>     4.7725    26.4574   491.1959 </r>
       <r>     4.8272    25.8090   492.6077 </r>
       <r>     4.8819    26.5455   494.0599 </r>
       <r>     4.9366    38.4516   496.1634 </r>
       <r>     4.9913    48.6263   498.8235 </r>
       <r>     5.0460    36.4924   500.8198 </r>
       <r>     5.1007    30.5219   502.4895 </r>
       <r>     5.1554    14.0494   503.2581 </r>
       <r>     5.2101    10.6464   503.8405 </r>
       <r>     5.2648     3.7239   504.0442 </r>
       <r>     5.3195    10.3339   504.6095 </r>
       <r>     5.3742    19.6352   505.6836 </r>
       <r>     5.4289    25.6473   507.0866 </r>
       <r>     5.4836    26.6109   508.5424 </r>
       <r>     5.5383    27.5577   510.0499 </r>
       <r>     5.5930    10.3054   510.6136 </r>
       <r>     5.6477     7.0643   511.0001 </r>
       <r>     5.7024     9.1387   511.5000 </r>
       <r>     5.7571     4.5697   511.7500 </r>
       <r>     5.8118     1.6000   511.8375 </r>
       <r>     5.8665     2.9700   512.0000 </r>
       <r>     5.9213     0.0000   512.0000 </r>
       <r>     5.9760     0.0000   512.0000 </r>
       <r>     6.0307     0.0000   512.0000 </r>
       <r>     6.0854     0.0000   512.0000 </r>
       <r>     6.1401     0.0933   512.0051 </r>
       <r>     6.1948    27.6168   513.5159 </r>
       <r>     6.2495    13.3433   514.2458 </r>
       <r>     6.3042    11.2282   514.8600 </r>
       <r>     6.3589    15.0294   515.6822 </r>
       <r>     6.4136    32.1918   517.4432 </r>
       <r>     6.4683    27.2135   518.9319 </r>
       <r>     6.5230    29.6019   520.5513 </r>
       <r>     6.5777    12.3740   521.2282 </r>
       <r>     6.6324     9.4987   521.7478 </r>
       <r>     6.6871    23.8098   523.0503 </r>
       <r>     6.7418    33.0669   524.8593 </r>
       <r>     6.7965    33.8452   526.7107 </r>
       <r>     6.8512    28.6282   528.2768 </r>
       <r>     6.9059    40.3497   530.4842 </r>
       <r>     6.9606    28.3421   532.0346 </r>
       <r>     7.0153    37.8971   534.1077 </r>
       <r>     7.0700    58.2995   537.2970 </r>
       <r>     7.1247    27.8734   538.8218 </r>
       <r>     7.1795    22.5077   540.0530 </r>
       <r>     7.2342    19.7415   541.1330 </r>
       <r>     7.2889    79.0159   545.4555 </r>
       <r>     7.3436    67.3378   549.1392 </r>
       <r>     7.3983    83.0621   553.6831 </r>
       <r>     7.4530    79.2619   558.0190 </r>
       <r>     7.5077    87.1892   562.7887 </r>
       <r>     7.5624    86.5169   567.5216 </r>
       <r>     7.6171    73.9004   571.5642 </r>
       <r>     7.6718    84.2114   576.1710 </r>
       <r>     7.7265    95.5196   581.3963 </r>
       <r>     7.7812    99.5476   586.8420 </r>
       <r>     7.8359    93.6878   591.9672 </r>
       <r>     7.8906   101.4059   597.5145 </r>
       <r>     7.9453    87.7313   602.3139 </r>
       <r>     8.0000   100.5498   607.8144 </r>
       <r>     8.0547    89.1728   612.6925 </r>
       <r>     8.1094    60.6635   616.0111 </r>
       <r>     8.1641    74.9849   620.1131 </r>
       <r>     8.2188    87.1293   624.8795 </r>
       <r>     8.2735   101.3191   630.4221 </r>
       <r>     8.3282    71.2556   634.3201 </r>
       <r>     8.3829    78.6390   638.6221 </r>
       <r>     8.4377    69.0201   642.3978 </r>
       <r>     8.4924    15.5789   643.2500 </r>
       <r>     8.5471     3.1341   643.4215 </r>
       <r>     8.6018     2.8729   643.5786 </r>
       <r>     8.6565     7.7031   644.0000 </r>
       <r>     8.7112     0.0000   644.0000 </r>
       <r>     8.7659     0.0000   644.0000 </r>
       <r>     8.8206     0.0000   644.0000 </r>
       <r>     8.8753     0.0000   644.0000 </r>
       <r>     8.9300     0.0000   644.0000 </r>
       <r>     8.9847     0.0000   644.0000 </r>
       <r>     9.0394     0.0000   644.0000 </r>
       <r>     9.0941     0.0000   644.0000 </r>
       <r>     9.1488     0.0000   644.0000 </r>
       <r>     9.2035     0.0000   644.0000 </r>
       <r>     9.2582     0.0000   644.0000 </r>
       <r>     9.3129     0.0000   644.0000 </r>
       <r>     9.3676     0.0000   644.0000 </r>
      </set>
     </set>
    </array>
   </total>
  </dos>
 </calculation>
 <structure name="finalpos" >
  <crystal>
   <varray name="basis" >
    <v>       0.00000000      10.93733369      10.93733369 </v>
    <v>      10.93733369       0.00000000      10.93733369 </v>
    <v>      10.93733369      10.93733369       0.00000000 </v>
   </varray>
   <i name="volume">   2616.76295363 </i>
   <varray name="rec_basis" >
    <v>      -0.04571498       0.04571498       0.04571498 </v>
    <v>       0.04571498      -0.04571498       0.04571498 </v>
    <v>       0.04571498       0.04571498      -0.04571498 </v>
   </varray>
  </crystal>
  <varray name="positions" >
   <v>       0.99396099       0.00506805       0.00271624 </v>
   <v>       0.25501360       0.01137019       0.99817788 </v>
   <v>       0.48912532       0.00255396       0.00858874 </v>
   <v>       0.75162350       0.99791777       0.01055801 </v>
   <v>       0.99871294       0.24594467       0.99717473 </v>
   <v>       0.25439252       0.25369716       0.00041768 </v>
   <v>       0.50539247       0.25823265       0.99348764 </v>
   <v>       0.74443404       0.24352324       0.01863719 </v>
   <v>       0.99953722       0.50656324       0.99755341 </v>
   <v>       0.24157066       0.50138770       0.01770904 </v>
   <v>       0.50342574       0.50227785       0.99099089 </v>
   <v>       0.75169293       0.50224714       0.99864206 </v>
   <v>       0.00254101       0.76181235       0.99710206 </v>
   <v>       0.25169169       0.74691471       0.99672216 </v>
   <v>       0.49499341       0.75580079       0.00248399 </v>
   <v>       0.74938605       0.75484585       0.99424606 </v>
   <v>       0.00000936       0.99906249       0.25593480 </v>
   <v>       0.24060031       0.01963223       0.24502091 </v>
   <v>       0.50475645       0.99764613       0.24836430 </v>
   <v>       0.75136144       0.00879279       0.25221170 </v>
   <v>       0.99000864       0.25393669       0.25743886 </v>
   <v>       0.25119307       0.24826090       0.24778270 </v>
   <v>       0.50121646       0.24016277       0.24666920 </v>
   <v>       0.75593817       0.25392057       0.23981770 </v>
   <v>       0.99644366       0.50151974       0.25429715 </v>
   <v>       0.25273586       0.51027624       0.24273222 </v>
   <v>       0.50266102       0.49978158       0.25585137 </v>
   <v>       0.75345657       0.50238291       0.24131095 </v>
   <v>       0.00364895       0.74254475       0.23728864 </v>
   <v>       0.24445123       0.76169606       0.24020094 </v>
   <v>       0.50613972       0.74067759       0.25041186 </v>
   <v>       0.74901230       0.74241753       0.24270006 </v>
   <v>       0.00010380       0.99665421       0.50758138 </v>
   <v>       0.24930440       0.99691051       0.50953877 </v>
   <v>       0.49433925       0.00290920       0.50686671 </v>
   <v>       0.74888697       0.00591413       0.49704066 </v>
   <v>       0.00152847       0.24967239       0.50664351 </v>
   <v>       0.24081745       0.25503868       0.50449843 </v>
   <v>       0.50126506       0.24113853       0.50257881 </v>
   <v>       0.74117520       0.26735715       0.49943678 </v>
   <v>       0.99938212       0.50361233       0.50429932 </v>
   <v>       0.25102758       0.48225671       0.51437207 </v>
   <v>       0.49641963       0.50261660       0.50163960 </v>
   <v>       0.74536256       0.50531278       0.49625519 </v>
   <v>       0.99976038       0.75859930       0.51240585 </v>
   <v>       0.24642423       0.75515786       0.50812068 </v>
   <v>       0.49787569       0.76385338       0.49573102 </v>
   <v>       0.75473719       0.75279154       0.49563000 </v>
   <v>       0.01070681       0.99546032       0.73460234 </v>
   <v>       0.25350193       0.99839037       0.74608938 </v>
   <v>       0.49362745       0.00440732       0.74970896 </v>
   <v>       0.75444953       0.99774991       0.74986442 </v>
   <v>       0.00004161       0.24735678       0.74755095 </v>
   <v>       0.25277498       0.24771025       0.75659202 </v>
   <v>       0.49400894       0.24649904       0.75272714 </v>
   <v>       0.75010159       0.24721874       0.74793011 </v>
   <v>       0.00470122       0.50233732       0.73816408 </v>
   <v>       0.23820782       0.49650754       0.74853167 </v>
   <v>       0.49105439       0.50347761       0.75679012 </v>
   <v>       0.75948794       0.50224486       0.74382185 </v>
   <v>       0.99198621       0.76504825       0.75808958 </v>
   <v>       0.25755289       0.75025449       0.75397140 </v>
   <v>       0.49720443       0.74682259       0.75675095 </v>
   <v>       0.75385276       0.74955162       0.74187888 </v>
   <v>       0.04255824       0.06988619       0.06682286 </v>
   <v>       0.30254326       0.07652089       0.06103824 </v>
   <v>       0.56549220       0.06674525       0.06695863 </v>
   <v>       0.80411634       0.05395780       0.08019199 </v>
   <v>       0.07108921       0.32133085       0.05917043 </v>
   <v>       0.30640058       0.31859568       0.06529838 </v>
   <v>       0.56973133       0.31953056       0.04875341 </v>
   <v>       0.80673272       0.31879540       0.06541869 </v>
   <v>       0.06095462       0.56025344       0.06581077 </v>
   <v>       0.31326213       0.56750460       0.06035791 </v>
   <v>       0.57425200       0.55927412       0.06053539 </v>
   <v>       0.81906110       0.55705862       0.06353837 </v>
   <v>       0.06375699       0.81034977       0.06257606 </v>
   <v>       0.31065925       0.82248699       0.05967278 </v>
   <v>       0.55973991       0.82027611       0.06187800 </v>
   <v>       0.81534775       0.81033851       0.06405523 </v>
   <v>       0.06343516       0.05929542       0.31655714 </v>
   <v>       0.30697995       0.06044648       0.32282212 </v>
   <v>       0.56091466       0.06061183       0.30807853 </v>
   <v>       0.81086944       0.06732416       0.31475322 </v>
   <v>       0.06254300       0.31917183       0.30850307 </v>
   <v>       0.30230109       0.31047688       0.31506792 </v>
   <v>       0.55067123       0.31859566       0.31870852 </v>
   <v>       0.80676945       0.32568026       0.30913096 </v>
   <v>       0.05459816       0.56162252       0.31857898 </v>
   <v>       0.31492977       0.54486332       0.31877125 </v>
   <v>       0.56204436       0.54903475       0.32544822 </v>
   <v>       0.80584727       0.56097467       0.32117308 </v>
   <v>       0.05364132       0.81638710       0.31319180 </v>
   <v>       0.31426181       0.82099618       0.30780384 </v>
   <v>       0.54743949       0.81939181       0.31038435 </v>
   <v>       0.80147834       0.81261289       0.31561777 </v>
   <v>       0.07181554       0.05826913       0.56565193 </v>
   <v>       0.32028093       0.05599137       0.56996638 </v>
   <v>       0.55045291       0.06421083       0.57182334 </v>
   <v>       0.81012374       0.06382273       0.55451808 </v>
   <v>       0.06141537       0.31610976       0.56674359 </v>
   <v>       0.31898004       0.31074049       0.55604695 </v>
   <v>       0.55421519       0.31037276       0.57232711 </v>
   <v>       0.82007906       0.30703581       0.55947627 </v>
   <v>       0.06727370       0.55991386       0.55702558 </v>
   <v>       0.31881476       0.57208214       0.55531988 </v>
   <v>       0.55639184       0.57128558       0.56242959 </v>
   <v>       0.81073531       0.55723234       0.55483103 </v>
   <v>       0.06435320       0.82113893       0.56203907 </v>
   <v>       0.30925800       0.81084967       0.57458051 </v>
   <v>       0.56328787       0.82954618       0.55510436 </v>
   <v>       0.80855595       0.81901482       0.56368486 </v>
   <v>       0.06773851       0.06093837       0.81285270 </v>
   <v>       0.32030847       0.07392729       0.80050048 </v>
   <v>       0.57695941       0.04707940       0.82143572 </v>
   <v>       0.81653332       0.05385910       0.81849693 </v>
   <v>       0.06569311       0.30760292       0.81282138 </v>
   <v>       0.30384817       0.32308515       0.81649640 </v>
   <v>       0.56237883       0.31465381       0.79936140 </v>
   <v>       0.81559956       0.30455293       0.80985840 </v>
   <v>       0.06613150       0.56513935       0.80941776 </v>
   <v>       0.31268085       0.56837451       0.80558851 </v>
   <v>       0.57150647       0.56470488       0.79791818 </v>
   <v>       0.80910427       0.56768621       0.81318354 </v>
   <v>       0.06774170       0.81294858       0.81305289 </v>
   <v>       0.30795262       0.81566177       0.81610640 </v>
   <v>       0.55643520       0.81454167       0.81670606 </v>
   <v>       0.80475185       0.82124871       0.81005204 </v>
  </varray>
 </structure>
</modeling>
