potpaw_PBE@./ARUN.APL1ZEROSTATE         
           1
     0.000000   10.937334   10.937334
    10.937334    0.000000   10.937334
    10.937334   10.937334    0.000000
   Si
 128
Direct configuration=     1
   0.99396099  0.00506805  0.00271624
   0.25501360  0.01137019  0.99817788
   0.48912532  0.00255396  0.00858874
   0.75162350  0.99791777  0.01055801
   0.99871294  0.24594467  0.99717473
   0.25439252  0.25369716  0.00041768
   0.50539247  0.25823265  0.99348764
   0.74443404  0.24352324  0.01863719
   0.99953722  0.50656324  0.99755341
   0.24157066  0.50138770  0.01770904
   0.50342574  0.50227785  0.99099089
   0.75169293  0.50224714  0.99864206
   0.00254101  0.76181235  0.99710206
   0.25169169  0.74691471  0.99672216
   0.49499341  0.75580079  0.00248399
   0.74938605  0.75484585  0.99424606
   0.00000936  0.99906249  0.25593480
   0.24060031  0.01963223  0.24502091
   0.50475645  0.99764613  0.24836430
   0.75136144  0.00879279  0.25221170
   0.99000864  0.25393669  0.25743886
   0.25119307  0.24826090  0.24778270
   0.50121646  0.24016277  0.24666920
   0.75593817  0.25392057  0.23981770
   0.99644366  0.50151974  0.25429715
   0.25273586  0.51027624  0.24273222
   0.50266102  0.49978158  0.25585137
   0.75345657  0.50238291  0.24131095
   0.00364895  0.74254475  0.23728864
   0.24445123  0.76169606  0.24020094
   0.50613972  0.74067759  0.25041186
   0.74901230  0.74241753  0.24270006
   0.00010380  0.99665421  0.50758138
   0.24930440  0.99691051  0.50953877
   0.49433925  0.00290920  0.50686671
   0.74888697  0.00591413  0.49704066
   0.00152847  0.24967239  0.50664351
   0.24081745  0.25503868  0.50449843
   0.50126506  0.24113853  0.50257881
   0.74117520  0.26735715  0.49943678
   0.99938212  0.50361233  0.50429932
   0.25102758  0.48225671  0.51437207
   0.49641963  0.50261660  0.50163960
   0.74536256  0.50531278  0.49625519
   0.99976038  0.75859930  0.51240585
   0.24642423  0.75515786  0.50812068
   0.49787569  0.76385338  0.49573102
   0.75473719  0.75279154  0.49563000
   0.01070681  0.99546032  0.73460234
   0.25350193  0.99839037  0.74608938
   0.49362745  0.00440732  0.74970896
   0.75444953  0.99774991  0.74986442
   0.00004161  0.24735678  0.74755095
   0.25277498  0.24771025  0.75659202
   0.49400894  0.24649904  0.75272714
   0.75010159  0.24721874  0.74793011
   0.00470122  0.50233732  0.73816408
   0.23820782  0.49650754  0.74853167
   0.49105439  0.50347761  0.75679012
   0.75948794  0.50224486  0.74382185
   0.99198621  0.76504825  0.75808958
   0.25755289  0.75025449  0.75397140
   0.49720443  0.74682259  0.75675095
   0.75385276  0.74955162  0.74187888
   0.04255824  0.06988619  0.06682286
   0.30254326  0.07652089  0.06103824
   0.56549220  0.06674525  0.06695863
   0.80411634  0.05395780  0.08019199
   0.07108921  0.32133085  0.05917043
   0.30640058  0.31859568  0.06529838
   0.56973133  0.31953056  0.04875341
   0.80673272  0.31879540  0.06541869
   0.06095462  0.56025344  0.06581077
   0.31326213  0.56750460  0.06035791
   0.57425200  0.55927412  0.06053539
   0.81906110  0.55705862  0.06353837
   0.06375699  0.81034977  0.06257606
   0.31065925  0.82248699  0.05967278
   0.55973991  0.82027611  0.06187800
   0.81534775  0.81033851  0.06405523
   0.06343516  0.05929542  0.31655714
   0.30697995  0.06044648  0.32282212
   0.56091466  0.06061183  0.30807853
   0.81086944  0.06732416  0.31475322
   0.06254300  0.31917183  0.30850307
   0.30230109  0.31047688  0.31506792
   0.55067123  0.31859566  0.31870852
   0.80676945  0.32568026  0.30913096
   0.05459816  0.56162252  0.31857898
   0.31492977  0.54486332  0.31877125
   0.56204436  0.54903475  0.32544822
   0.80584727  0.56097467  0.32117308
   0.05364132  0.81638710  0.31319180
   0.31426181  0.82099618  0.30780384
   0.54743949  0.81939181  0.31038435
   0.80147834  0.81261289  0.31561777
   0.07181554  0.05826913  0.56565193
   0.32028093  0.05599137  0.56996638
   0.55045291  0.06421083  0.57182334
   0.81012374  0.06382273  0.55451808
   0.06141537  0.31610976  0.56674359
   0.31898004  0.31074049  0.55604695
   0.55421519  0.31037276  0.57232711
   0.82007906  0.30703581  0.55947627
   0.06727370  0.55991386  0.55702558
   0.31881476  0.57208214  0.55531988
   0.55639184  0.57128558  0.56242959
   0.81073531  0.55723234  0.55483103
   0.06435320  0.82113893  0.56203907
   0.30925800  0.81084967  0.57458051
   0.56328787  0.82954618  0.55510436
   0.80855595  0.81901482  0.56368486
   0.06773851  0.06093837  0.81285270
   0.32030847  0.07392729  0.80050048
   0.57695941  0.04707940  0.82143572
   0.81653332  0.05385910  0.81849693
   0.06569311  0.30760292  0.81282138
   0.30384817  0.32308515  0.81649640
   0.56237883  0.31465381  0.79936140
   0.81559956  0.30455293  0.80985840
   0.06613150  0.56513935  0.80941776
   0.31268085  0.56837451  0.80558851
   0.57150647  0.56470488  0.79791818
   0.80910427  0.56768621  0.81318354
   0.06774170  0.81294858  0.81305289
   0.30795262  0.81566177  0.81610640
   0.55643520  0.81454167  0.81670606
   0.80475185  0.82124871  0.81005204
