 128 128   0   0
  0.2044346E+02  0.1546773E-08  0.1546773E-08  0.1546773E-08  0.5000000E-15
  1.000000000000000E-004
  CAR 
 potpaw_PBE@./ARUN.APL1ZEROSTATE         
      9.33572078     -7.04743471  301      5.96352128      1.00000000
     -7.047  0.0000E+00  0.0000E+00
     -6.993  0.0000E+00  0.0000E+00
     -6.938  0.0000E+00  0.0000E+00
     -6.884  0.0000E+00  0.0000E+00
     -6.829  0.0000E+00  0.0000E+00
     -6.774  0.0000E+00  0.0000E+00
     -6.720  0.0000E+00  0.0000E+00
     -6.665  0.0000E+00  0.0000E+00
     -6.611  0.0000E+00  0.0000E+00
     -6.556  0.0000E+00  0.0000E+00
     -6.501  0.0000E+00  0.0000E+00
     -6.447  0.0000E+00  0.0000E+00
     -6.392  0.0000E+00  0.0000E+00
     -6.337  0.2035E-05  0.1112E-06
     -6.283  0.4566E+01  0.2494E+00
     -6.228  0.1140E-01  0.2500E+00
     -6.174  0.8128E-03  0.2500E+00
     -6.119  0.1820E+02  0.1244E+01
     -6.064  0.2992E+02  0.2878E+01
     -6.010  0.1388E+02  0.3636E+01
     -5.955  0.2084E+01  0.3750E+01
     -5.901  0.1743E-09  0.3750E+01
     -5.846  0.8194E+01  0.4197E+01
     -5.791  0.1243E+02  0.4877E+01
     -5.737  0.2070E+02  0.6007E+01
     -5.682  0.3255E+02  0.7784E+01
     -5.628  0.2731E+02  0.9276E+01
     -5.573  0.3998E+02  0.1146E+02
     -5.518  0.2343E+02  0.1274E+02
     -5.464  0.2202E+02  0.1394E+02
     -5.409  0.1050E+02  0.1452E+02
     -5.355  0.5143E+01  0.1480E+02
     -5.300  0.3739E+01  0.1500E+02
     -5.245  0.1396E+02  0.1576E+02
     -5.191  0.2747E+02  0.1726E+02
     -5.136  0.3734E+02  0.1930E+02
     -5.081  0.5630E+02  0.2238E+02
     -5.027  0.3739E+02  0.2442E+02
     -4.972  0.4120E+02  0.2667E+02
     -4.918  0.2421E+02  0.2799E+02
     -4.863  0.2077E+02  0.2912E+02
     -4.808  0.1625E+02  0.3001E+02
     -4.754  0.3583E+02  0.3197E+02
     -4.699  0.4557E+02  0.3446E+02
     -4.645  0.3160E+02  0.3618E+02
     -4.590  0.2968E+02  0.3780E+02
     -4.535  0.3024E+02  0.3946E+02
     -4.481  0.3307E+02  0.4126E+02
     -4.426  0.2300E+02  0.4252E+02
     -4.372  0.1846E+02  0.4353E+02
     -4.317  0.4633E+02  0.4606E+02
     -4.262  0.2743E+02  0.4755E+02
     -4.208  0.6076E+02  0.5087E+02
     -4.153  0.4941E+02  0.5357E+02
     -4.098  0.6801E+02  0.5728E+02
     -4.044  0.5639E+02  0.6036E+02
     -3.989  0.4870E+02  0.6302E+02
     -3.935  0.5531E+02  0.6604E+02
     -3.880  0.2698E+02  0.6752E+02
     -3.825  0.5407E+02  0.7047E+02
     -3.771  0.5796E+02  0.7363E+02
     -3.716  0.4540E+02  0.7611E+02
     -3.662  0.3261E+02  0.7789E+02
     -3.607  0.3036E+02  0.7955E+02
     -3.552  0.3144E+02  0.8127E+02
     -3.498  0.5631E+02  0.8435E+02
     -3.443  0.5833E+02  0.8753E+02
     -3.389  0.4760E+02  0.9013E+02
     -3.334  0.5274E+02  0.9301E+02
     -3.279  0.3458E+02  0.9490E+02
     -3.225  0.3449E+02  0.9678E+02
     -3.170  0.3644E+02  0.9877E+02
     -3.115  0.4552E+02  0.1013E+03
     -3.061  0.5117E+02  0.1041E+03
     -3.006  0.4040E+02  0.1063E+03
     -2.952  0.3396E+02  0.1081E+03
     -2.897  0.3985E+02  0.1103E+03
     -2.842  0.3082E+02  0.1120E+03
     -2.788  0.3046E+02  0.1136E+03
     -2.733  0.2876E+02  0.1152E+03
     -2.679  0.3280E+02  0.1170E+03
     -2.624  0.3479E+02  0.1189E+03
     -2.569  0.3697E+02  0.1209E+03
     -2.515  0.1935E+02  0.1220E+03
     -2.460  0.1390E+02  0.1227E+03
     -2.406  0.4794E+01  0.1230E+03
     -2.351  0.1368E+00  0.1230E+03
     -2.296  0.5134E+01  0.1233E+03
     -2.242  0.1332E+02  0.1240E+03
     -2.187  0.3320E+02  0.1258E+03
     -2.132  0.2084E+02  0.1270E+03
     -2.078  0.3170E+02  0.1287E+03
     -2.023  0.2036E+02  0.1298E+03
     -1.969  0.1506E+02  0.1306E+03
     -1.914  0.2647E+02  0.1321E+03
     -1.859  0.7821E+01  0.1325E+03
     -1.805  0.4576E+01  0.1327E+03
     -1.750  0.9504E+01  0.1333E+03
     -1.696  0.7439E+01  0.1337E+03
     -1.641  0.1152E+02  0.1343E+03
     -1.586  0.2062E+02  0.1354E+03
     -1.532  0.4445E+02  0.1379E+03
     -1.477  0.3790E+02  0.1399E+03
     -1.423  0.4381E+02  0.1423E+03
     -1.368  0.3586E+02  0.1443E+03
     -1.313  0.5041E+02  0.1470E+03
     -1.259  0.5094E+02  0.1498E+03
     -1.204  0.5211E+02  0.1527E+03
     -1.149  0.7222E+02  0.1566E+03
     -1.095  0.6301E+02  0.1600E+03
     -1.040  0.7585E+02  0.1642E+03
     -0.986  0.7274E+02  0.1682E+03
     -0.931  0.5277E+02  0.1710E+03
     -0.876  0.7952E+02  0.1754E+03
     -0.822  0.5247E+02  0.1782E+03
     -0.767  0.5516E+02  0.1813E+03
     -0.713  0.3817E+02  0.1833E+03
     -0.658  0.4331E+02  0.1857E+03
     -0.603  0.3846E+02  0.1878E+03
     -0.549  0.2622E+02  0.1892E+03
     -0.494  0.2401E+02  0.1906E+03
     -0.440  0.1762E+02  0.1915E+03
     -0.385  0.4337E+02  0.1939E+03
     -0.330  0.4220E+02  0.1962E+03
     -0.276  0.3900E+02  0.1983E+03
     -0.221  0.5526E+02  0.2013E+03
     -0.167  0.4578E+02  0.2038E+03
     -0.112  0.5374E+02  0.2068E+03
     -0.057  0.3943E+02  0.2089E+03
     -0.003  0.2534E+02  0.2103E+03
      0.052  0.3616E+02  0.2123E+03
      0.107  0.1791E+02  0.2133E+03
      0.161  0.1740E+02  0.2142E+03
      0.216  0.1126E+02  0.2148E+03
      0.270  0.2028E+02  0.2159E+03
      0.325  0.1587E+02  0.2168E+03
      0.380  0.2853E+02  0.2184E+03
      0.434  0.2172E+02  0.2195E+03
      0.489  0.2757E+02  0.2210E+03
      0.543  0.2549E+02  0.2224E+03
      0.598  0.1888E+02  0.2235E+03
      0.653  0.1949E+02  0.2245E+03
      0.707  0.2206E+02  0.2257E+03
      0.762  0.1328E+02  0.2265E+03
      0.816  0.1334E+02  0.2272E+03
      0.871  0.7971E+01  0.2276E+03
      0.926  0.2065E+02  0.2288E+03
      0.980  0.2981E+02  0.2304E+03
      1.035  0.1717E+02  0.2313E+03
      1.090  0.2944E+02  0.2329E+03
      1.144  0.2442E+02  0.2343E+03
      1.199  0.1833E+02  0.2353E+03
      1.253  0.2789E+02  0.2368E+03
      1.308  0.3561E+02  0.2387E+03
      1.363  0.3491E+02  0.2406E+03
      1.417  0.3587E+02  0.2426E+03
      1.472  0.4894E+02  0.2453E+03
      1.526  0.9947E+02  0.2507E+03
      1.581  0.8678E+02  0.2554E+03
      1.636  0.9058E+02  0.2604E+03
      1.690  0.6670E+02  0.2640E+03
      1.745  0.6107E+02  0.2674E+03
      1.799  0.5594E+02  0.2704E+03
      1.854  0.3110E+02  0.2721E+03
      1.909  0.2277E+02  0.2734E+03
      1.963  0.2205E+02  0.2746E+03
      2.018  0.2879E+02  0.2761E+03
      2.073  0.6345E+02  0.2796E+03
      2.127  0.9251E+02  0.2847E+03
      2.182  0.9836E+02  0.2900E+03
      2.236  0.1334E+03  0.2973E+03
      2.291  0.1132E+03  0.3035E+03
      2.346  0.1190E+03  0.3100E+03
      2.400  0.1070E+03  0.3158E+03
      2.455  0.8139E+02  0.3203E+03
      2.509  0.4222E+02  0.3226E+03
      2.564  0.3305E+02  0.3244E+03
      2.619  0.3292E+02  0.3262E+03
      2.673  0.6251E+02  0.3296E+03
      2.728  0.8541E+02  0.3343E+03
      2.782  0.9332E+02  0.3394E+03
      2.837  0.8407E+02  0.3440E+03
      2.892  0.1098E+03  0.3500E+03
      2.946  0.7889E+02  0.3543E+03
      3.001  0.1036E+03  0.3599E+03
      3.056  0.9983E+02  0.3654E+03
      3.110  0.6791E+02  0.3691E+03
      3.165  0.7703E+02  0.3733E+03
      3.219  0.8053E+02  0.3777E+03
      3.274  0.9413E+02  0.3828E+03
      3.329  0.8774E+02  0.3876E+03
      3.383  0.9808E+02  0.3930E+03
      3.438  0.1119E+03  0.3991E+03
      3.492  0.7861E+02  0.4034E+03
      3.547  0.7884E+02  0.4077E+03
      3.602  0.8636E+02  0.4124E+03
      3.656  0.7374E+02  0.4164E+03
      3.711  0.7717E+02  0.4206E+03
      3.765  0.7745E+02  0.4249E+03
      3.820  0.8227E+02  0.4294E+03
      3.875  0.8173E+02  0.4338E+03
      3.929  0.7186E+02  0.4378E+03
      3.984  0.7335E+02  0.4418E+03
      4.039  0.6094E+02  0.4451E+03
      4.093  0.6813E+02  0.4488E+03
      4.148  0.6232E+02  0.4522E+03
      4.202  0.7553E+02  0.4563E+03
      4.257  0.7105E+02  0.4602E+03
      4.312  0.7500E+02  0.4643E+03
      4.366  0.7078E+02  0.4682E+03
      4.421  0.7829E+02  0.4725E+03
      4.475  0.6373E+02  0.4759E+03
      4.530  0.5911E+02  0.4792E+03
      4.585  0.5539E+02  0.4822E+03
      4.639  0.6553E+02  0.4858E+03
      4.694  0.5456E+02  0.4887E+03
      4.748  0.3663E+02  0.4907E+03
      4.803  0.1824E+02  0.4917E+03
      4.858  0.2488E+02  0.4931E+03
      4.912  0.4105E+02  0.4953E+03
      4.967  0.4832E+02  0.4980E+03
      5.021  0.3845E+02  0.5001E+03
      5.076  0.1207E+02  0.5007E+03
      5.131  0.4054E+02  0.5030E+03
      5.185  0.1263E+02  0.5036E+03
      5.240  0.1933E+01  0.5038E+03
      5.295  0.8636E+01  0.5042E+03
      5.349  0.2006E+02  0.5053E+03
      5.404  0.2344E+02  0.5066E+03
      5.458  0.2619E+02  0.5080E+03
      5.513  0.1781E+02  0.5090E+03
      5.568  0.1048E+02  0.5096E+03
      5.622  0.1373E+02  0.5103E+03
      5.677  0.1070E+02  0.5109E+03
      5.731  0.1545E+02  0.5117E+03
      5.786  0.0000E+00  0.5118E+03
      5.841  0.0000E+00  0.5118E+03
      5.895  0.1063E+00  0.5118E+03
      5.950  0.4472E+01  0.5120E+03
      6.004  0.0000E+00  0.5120E+03
      6.059  0.0000E+00  0.5120E+03
      6.114  0.1042E+00  0.5120E+03
      6.168  0.2342E+02  0.5133E+03
      6.223  0.1718E+02  0.5142E+03
      6.278  0.3155E+01  0.5144E+03
      6.332  0.2337E+02  0.5157E+03
      6.387  0.2614E+02  0.5171E+03
      6.441  0.2285E+02  0.5183E+03
      6.496  0.3212E+02  0.5201E+03
      6.551  0.1915E+02  0.5211E+03
      6.605  0.8615E+01  0.5216E+03
      6.660  0.2064E+02  0.5227E+03
      6.714  0.3268E+02  0.5245E+03
      6.769  0.3068E+02  0.5262E+03
      6.824  0.4133E+02  0.5285E+03
      6.878  0.3057E+02  0.5301E+03
      6.933  0.3513E+02  0.5320E+03
      6.987  0.2735E+02  0.5335E+03
      7.042  0.5275E+02  0.5364E+03
      7.097  0.3765E+02  0.5385E+03
      7.151  0.3005E+02  0.5401E+03
      7.206  0.3625E+02  0.5421E+03
      7.261  0.5622E+02  0.5452E+03
      7.315  0.6231E+02  0.5486E+03
      7.370  0.7316E+02  0.5526E+03
      7.424  0.8184E+02  0.5570E+03
      7.479  0.8551E+02  0.5617E+03
      7.534  0.8858E+02  0.5665E+03
      7.588  0.8399E+02  0.5711E+03
      7.643  0.9655E+02  0.5764E+03
      7.697  0.7145E+02  0.5803E+03
      7.752  0.8808E+02  0.5851E+03
      7.807  0.9144E+02  0.5901E+03
      7.861  0.1055E+03  0.5959E+03
      7.916  0.8818E+02  0.6007E+03
      7.970  0.8044E+02  0.6051E+03
      8.025  0.9366E+02  0.6102E+03
      8.080  0.7956E+02  0.6145E+03
      8.134  0.8781E+02  0.6193E+03
      8.189  0.8884E+02  0.6242E+03
      8.244  0.9859E+02  0.6296E+03
      8.298  0.7265E+02  0.6335E+03
      8.353  0.7560E+02  0.6377E+03
      8.407  0.7858E+02  0.6420E+03
      8.462  0.2349E+02  0.6432E+03
      8.517  0.4751E+01  0.6435E+03
      8.571  0.4589E+01  0.6438E+03
      8.626  0.4566E+01  0.6440E+03
      8.680  0.0000E+00  0.6440E+03
      8.735  0.0000E+00  0.6440E+03
      8.790  0.0000E+00  0.6440E+03
      8.844  0.0000E+00  0.6440E+03
      8.899  0.0000E+00  0.6440E+03
      8.953  0.0000E+00  0.6440E+03
      9.008  0.0000E+00  0.6440E+03
      9.063  0.0000E+00  0.6440E+03
      9.117  0.0000E+00  0.6440E+03
      9.172  0.0000E+00  0.6440E+03
      9.226  0.0000E+00  0.6440E+03
      9.281  0.0000E+00  0.6440E+03
      9.336  0.0000E+00  0.6440E+03
