 vasp.5.4.4.18Apr17-6-g9f103f2a35 (build Nov 08 2017 09:05:29) complex          
  
 executed on          Intel_17.33 date 2020.07.18  21:11:50
 running on   32 total cores
 distrk:  each k-point on   32 cores,    1 groups
 distr:  one band on NCORES_PER_BAND=  16 cores,    2 groups


--------------------------------------------------------------------------------------------------------


 INCAR:
 POTCAR:   PAW_PBE Si 05Jan2001                   

 ----------------------------------------------------------------------------- 
|                                                                             |
|           W    W    AA    RRRRR   N    N  II  N    N   GGGG   !!!           |
|           W    W   A  A   R    R  NN   N  II  NN   N  G    G  !!!           |
|           W    W  A    A  R    R  N N  N  II  N N  N  G       !!!           |
|           W WW W  AAAAAA  RRRRR   N  N N  II  N  N N  G  GGG   !            |
|           WW  WW  A    A  R   R   N   NN  II  N   NN  G    G                |
|           W    W  A    A  R    R  N    N  II  N    N   GGGG   !!!           |
|                                                                             |
|      For optimal performance we recommend to set                            |
|        NCORE= 4 - approx SQRT( number of cores)                             |
|      NCORE specifies how many cores store one orbital (NPAR=cpu/NCORE).     |
|      This setting can  greatly improve the performance of VASP for DFT.     |
|      The default,   NCORE=1            might be grossly inefficient         |
|      on modern multi-core architectures or massively parallel machines.     |
|      Do your own testing !!!!                                               |
|      Unfortunately you need to use the default for GW and RPA calculations. |
|      (for HF NCORE is supported but not extensively tested yet)             |
|                                                                             |
 ----------------------------------------------------------------------------- 

 POTCAR:   PAW_PBE Si 05Jan2001                   
   VRHFIN =Si: s2p2                                                             
   LEXCH  = PE                                                                  
   EATOM  =   103.0669 eV,    7.5752 Ry                                         
                                                                                
   TITEL  = PAW_PBE Si 05Jan2001                                                
   LULTRA =        F    use ultrasoft PP ?                                      
   IUNSCR =        1    unscreen: 0-lin 1-nonlin 2-no                           
   RPACOR =    1.500    partial core radius                                     
   POMASS =   28.085; ZVAL   =    4.000    mass and valenz                      
   RCORE  =    1.900    outmost cutoff radius                                   
   RWIGS  =    2.480; RWIGS  =    1.312    wigner-seitz radius (au A)           
   ENMAX  =  245.345; ENMIN  =  184.009 eV                                      
   ICORE  =        2    local potential                                         
   LCOR   =        T    correct aug charges                                     
   LPAW   =        T    paw PP                                                  
   EAUG   =  322.069                                                            
   DEXC   =    -.007                                                            
   RMAX   =    2.944    core radius for proj-oper                               
   RAUG   =    1.300    factor for augmentation sphere                          
   RDEP   =    1.993    radius for radial grids                                 
   QCUT   =   -4.246; QGAM   =    8.493    optimization parameters              
                                                                                
   Description                                                                  
     l     E      TYP  RCUT    TYP  RCUT                                        
     0   .000     23  1.900                                                     
     0   .000     23  1.900                                                     
     1   .000     23  1.900                                                     
     1   .000     23  1.900                                                     
     2   .000      7  1.900                                                     
  local pseudopotential read in
  partial core-charges read in
  atomic valenz-charges read in
  non local Contribution for L=           0  read in
    real space projection operators read in
  non local Contribution for L=           0  read in
    real space projection operators read in
  non local Contribution for L=           1  read in
    real space projection operators read in
  non local Contribution for L=           1  read in
    real space projection operators read in
    PAW grid and wavefunctions read in
 
   number of l-projection  operators is LMAX  =           4
   number of lm-projection operators is LMMAX =           8
 

 ----------------------------------------------------------------------------- 
|                                                                             |
|  ADVICE TO THIS USER RUNNING 'VASP/VAMP'   (HEAR YOUR MASTER'S VOICE ...):  |
|                                                                             |
|      You have a (more or less) 'large supercell' and for larger cells       |
|      it might be more efficient to use real space projection operators      |
|      So try LREAL= Auto  in the INCAR   file.                               |
|      Mind: If you want to do a very accurate calculations keep the          |
|      reciprocal projection scheme          (i.e. LREAL=.FALSE.)             |
|                                                                             |
 ----------------------------------------------------------------------------- 

 PAW_PBE Si 05Jan2001                   :
 energy of atom  1       EATOM= -103.0669
 kinetic energy error for atom=    0.0006 (will be added to EATOM!!)
 
 
 POSCAR: kk                                      
  positions in direct lattice
  No initial velocities read in
 exchange correlation table for  LEXCH =        8
   RHO(1)=    0.500       N(1)  =     2000
   RHO(2)=  100.500       N(2)  =     4000
 


--------------------------------------------------------------------------------------------------------


 ion  position               nearest neighbor table
   1  0.999  0.010  0.005-  68 2.35  65 2.40 113 2.51  77 2.52
   2  0.274  0.991  0.989- 114 2.26  66 2.34  78 2.38  65 2.68
   3  0.496  0.010  0.987- 115 2.25  66 2.29  79 2.45  67 2.56
   4  0.764  0.994  0.995- 116 2.21  68 2.25  80 2.26  67 2.54
   5  0.978  0.263  0.998-  72 2.12 117 2.19  69 2.57  65 2.60
   6  0.251  0.250  0.000-  69 2.26  70 2.31 118 2.31  66 2.41
   7  0.495  0.246  0.008-  67 2.21  70 2.39  71 2.43 119 2.56
   8  0.743  0.254  0.005-  71 2.34  72 2.38 120 2.40  68 2.49
   9  0.021  0.492  0.994-  73 2.33  69 2.35 121 2.36  76 2.62
  10  0.258  0.492  0.001-  70 2.31  74 2.34 122 2.44  73 2.45
  11  0.503  0.505  0.991- 123 2.21  71 2.28  75 2.29  74 2.47
  12  0.755  0.510  0.996-  76 2.22 124 2.41  72 2.44  75 2.55
  13  0.017  0.752  0.995-  77 2.21 125 2.35  73 2.40  80 2.42
  14  0.261  0.745  0.003-  78 2.31  74 2.33 126 2.37  77 2.51
  15  0.498  0.761  0.999-  78 2.24 127 2.30  79 2.31  75 2.47
  16  0.755  0.748  0.994- 128 2.21  76 2.22  79 2.32  80 2.52
  17  0.989  0.998  0.255-  84 2.22  65 2.25  93 2.31  81 2.48
  18  0.242  0.001  0.251-  82 2.37  66 2.38  94 2.40  81 2.42
  19  0.504  0.994  0.248-  83 2.31  67 2.37  95 2.39  82 2.48
  20  0.749  0.992  0.259-  96 2.25  84 2.43  83 2.49  68 2.53
  21  0.001  0.260  0.237-  69 2.22  81 2.36  88 2.38  85 2.39
  22  0.242  0.257  0.258-  85 2.22  86 2.27  70 2.40  82 2.47
  23  0.497  0.261  0.251-  87 2.30  86 2.30  71 2.42  83 2.44
  24  0.744  0.251  0.245-  84 2.30  72 2.30  87 2.50  88 2.53
  25  1.000  0.514  0.249-  89 2.28  73 2.34  92 2.38  85 2.52
  26  0.254  0.492  0.248-  89 2.15  74 2.29  86 2.30  90 2.47
  27  0.498  0.513  0.245-  91 2.25  90 2.34  75 2.34  87 2.51
  28  0.754  0.494  0.246-  88 2.31  92 2.33  76 2.48  91 2.53
  29  0.994  0.767  0.240-  77 2.24  96 2.33  93 2.45  89 2.56
  30  0.251  0.750  0.256-  93 2.26  94 2.31  90 2.35  78 2.36
  31  0.492  0.757  0.254-  94 2.21  95 2.29  91 2.32  79 2.55
  32  0.744  0.742  0.258-  95 2.31  92 2.38  96 2.54  80 2.55
  33  0.006  0.008  0.492-  81 2.27  97 2.30 109 2.55 100 2.57
  34  0.247  0.998  0.499-  97 2.22  82 2.36 110 2.46  98 2.50
  35  0.511  0.996  0.504-  99 2.13 111 2.35  98 2.36  83 2.53
  36  0.747  1.000  0.492-  99 2.23 112 2.31  84 2.34 100 2.34
  37  0.996  0.253  0.510- 101 2.27 104 2.35  97 2.58  85 2.59
  38  0.252  0.253  0.498-  86 2.37 102 2.37 101 2.45  98 2.58
  39  0.505  0.258  0.498-  87 2.17 102 2.26 103 2.27  99 2.55
  40  0.751  0.251  0.507- 104 2.25 100 2.35  88 2.41 103 2.52
  41  0.994  0.493  0.517- 101 2.22 108 2.27 105 2.32  89 2.86
  42  0.242  0.500  0.501- 105 2.25  90 2.38 102 2.47 106 2.54
  43  0.491  0.508  0.503- 106 2.26 107 2.29 103 2.45  91 2.48
  44  0.743  0.502  0.503- 107 2.23 108 2.34  92 2.43 104 2.57
  45  0.004  0.756  0.492- 109 2.26 105 2.37  93 2.37 112 2.50
  46  0.234  0.751  0.511- 109 2.27 106 2.34 110 2.41  94 2.53
  47  0.493  0.756  0.497-  95 2.27 110 2.31 107 2.51 111 2.58
  48  0.750  0.750  0.502- 112 2.25 111 2.27  96 2.31 108 2.41
  49  0.993  0.012  0.745-  97 2.26 113 2.29 116 2.32 125 2.48
  50  0.242  0.007  0.744- 113 2.21  98 2.23 114 2.43 126 2.47
  51  0.504  0.006  0.749- 115 2.17  99 2.48 114 2.51 127 2.61
  52  0.739  0.992  0.762- 128 2.19 115 2.26 116 2.49 100 2.62
  53  0.993  0.254  0.749- 120 2.32 101 2.36 117 2.40 113 2.52
  54  0.249  0.248  0.763- 118 2.24 114 2.28 117 2.54 102 2.59
  55  0.505  0.238  0.744- 103 2.16 115 2.22 118 2.42 119 2.52
  56  0.752  0.238  0.754- 104 2.24 116 2.25 119 2.35 120 2.46
  57  1.000  0.501  0.743- 124 2.32 117 2.39 105 2.42 121 2.49
  58  0.252  0.507  0.748- 122 2.26 106 2.32 121 2.42 118 2.54
  59  0.492  0.506  0.732- 107 2.20 122 2.26 119 2.43 123 2.65
  60  0.752  0.509  0.736- 108 2.25 123 2.35 120 2.46 124 2.48
  61  1.000  0.756  0.747- 109 2.24 121 2.33 128 2.35 125 2.45
  62  0.261  0.750  0.755- 126 2.22 110 2.33 122 2.36 125 2.40
  63  0.501  0.763  0.746- 111 2.23 127 2.27 126 2.38 123 2.60
  64  0.753  0.741  0.769- 124 2.16 127 2.33 128 2.41 112 2.69
  65  0.064  0.060  0.079-  17 2.25   1 2.40   5 2.60   2 2.68
  66  0.316  0.059  0.063-   3 2.29   2 2.34  18 2.38   6 2.41
  67  0.564  0.071  0.061-   7 2.21  19 2.37   4 2.54   3 2.56
  68  0.814  0.058  0.059-   4 2.25   1 2.35   8 2.49  20 2.53
  69  0.072  0.306  0.062-  21 2.22   6 2.26   9 2.35   5 2.57
  70  0.306  0.310  0.068-   6 2.31  10 2.31   7 2.39  22 2.40
  71  0.557  0.324  0.059-  11 2.28   8 2.34  23 2.42   7 2.43
  72  0.810  0.317  0.063-   5 2.12  24 2.30   8 2.38  12 2.44
  73  0.064  0.562  0.064-   9 2.33  25 2.34  13 2.40  10 2.45
  74  0.308  0.561  0.067-  26 2.29  14 2.33  10 2.34  11 2.47
  75  0.553  0.566  0.061-  11 2.29  27 2.34  15 2.47  12 2.55
  76  0.814  0.573  0.050-  16 2.22  12 2.22  28 2.48   9 2.62
  77  0.063  0.811  0.063-  13 2.21  29 2.24  14 2.51   1 2.52
  78  0.321  0.804  0.069-  15 2.24  14 2.31  30 2.36   2 2.38
  79  0.571  0.816  0.052-  15 2.31  16 2.32   3 2.45  31 2.55
  80  0.825  0.815  0.057-   4 2.26  13 2.42  16 2.52  32 2.55
  81  0.050  0.074  0.312-  33 2.27  21 2.36  18 2.42  17 2.48
  82  0.308  0.061  0.312-  34 2.36  18 2.37  22 2.47  19 2.48
  83  0.553  0.069  0.306-  19 2.31  23 2.44  20 2.49  35 2.53
  84  0.814  0.070  0.308-  17 2.22  24 2.30  36 2.34  20 2.43
  85  0.067  0.315  0.306-  22 2.22  21 2.39  25 2.52  37 2.59
  86  0.315  0.310  0.311-  22 2.27  26 2.30  23 2.30  38 2.37
  87  0.548  0.315  0.327-  39 2.17  23 2.30  24 2.50  27 2.51
  88  0.813  0.311  0.316-  28 2.31  21 2.38  40 2.41  24 2.53
  89  0.085  0.566  0.291-  26 2.15  25 2.28  29 2.56  41 2.86
  90  0.314  0.563  0.312-  27 2.34  30 2.35  42 2.38  26 2.47
  91  0.554  0.574  0.307-  27 2.25  31 2.32  43 2.48  28 2.53
  92  0.814  0.554  0.311-  28 2.33  25 2.38  32 2.38  44 2.43
  93  0.073  0.816  0.305-  30 2.26  17 2.31  45 2.37  29 2.45
  94  0.317  0.811  0.311-  31 2.21  30 2.31  18 2.40  46 2.53
  95  0.561  0.804  0.318-  47 2.27  31 2.29  32 2.31  19 2.39
  96  0.811  0.814  0.320-  20 2.25  48 2.31  29 2.33  32 2.54
  97  0.071  0.048  0.567-  34 2.22  49 2.26  33 2.30  37 2.58
  98  0.324  0.048  0.569-  50 2.23  35 2.36  34 2.50  38 2.58
  99  0.570  0.056  0.553-  35 2.13  36 2.23  51 2.48  39 2.55
 100  0.803  0.067  0.554-  36 2.34  40 2.35  33 2.57  52 2.62
 101  0.059  0.317  0.562-  41 2.22  37 2.27  53 2.36  38 2.45
 102  0.326  0.305  0.559-  39 2.26  38 2.37  42 2.47  54 2.59
 103  0.551  0.314  0.574-  55 2.16  39 2.27  43 2.45  40 2.52
 104  0.811  0.298  0.577-  56 2.24  40 2.25  37 2.35  44 2.57
 105  0.064  0.569  0.551-  42 2.25  41 2.32  45 2.37  57 2.42
 106  0.312  0.567  0.564-  43 2.26  58 2.32  46 2.34  42 2.54
 107  0.566  0.558  0.559-  59 2.20  44 2.23  43 2.29  47 2.51
 108  0.814  0.560  0.558-  60 2.25  41 2.27  44 2.34  48 2.41
 109  0.054  0.807  0.570-  61 2.24  45 2.26  46 2.27  33 2.55
 110  0.311  0.803  0.572-  47 2.31  62 2.33  46 2.41  34 2.46
 111  0.571  0.810  0.570-  63 2.23  48 2.27  35 2.35  47 2.58
 112  0.807  0.817  0.557-  48 2.25  36 2.31  45 2.50  64 2.69
 113  0.068  0.055  0.807-  50 2.21  49 2.29   1 2.51  53 2.52
 114  0.305  0.068  0.812-   2 2.26  54 2.28  50 2.43  51 2.51
 115  0.561  0.062  0.809-  51 2.17  55 2.22   3 2.25  52 2.26
 116  0.810  0.060  0.820-   4 2.21  56 2.25  49 2.32  52 2.49
 117  0.048  0.313  0.825-   5 2.19  57 2.39  53 2.40  54 2.54
 118  0.314  0.306  0.818-  54 2.24   6 2.31  55 2.42  58 2.54
 119  0.566  0.315  0.806-  56 2.35  59 2.43  55 2.52   7 2.56
 120  0.809  0.315  0.815-  53 2.32   8 2.40  60 2.46  56 2.46
 121  0.061  0.571  0.809-  61 2.33   9 2.36  58 2.42  57 2.49
 122  0.314  0.563  0.809-  58 2.26  59 2.26  62 2.36  10 2.44
 123  0.566  0.557  0.816-  11 2.21  60 2.35  63 2.60  59 2.65
 124  0.817  0.571  0.805-  64 2.16  57 2.32  12 2.41  60 2.48
 125  0.071  0.816  0.809-  13 2.35  62 2.40  61 2.45  49 2.48
 126  0.313  0.812  0.816-  62 2.22  14 2.37  63 2.38  50 2.47
 127  0.569  0.799  0.819-  63 2.27  15 2.30  64 2.33  51 2.61
 128  0.814  0.820  0.819-  52 2.19  16 2.21  61 2.35  64 2.41
 
  LATTYP: Found a face centered cubic cell.
 ALAT       =    21.8746673814
  
  Lattice vectors:
  
 A1 = (   0.0000000000,  10.9373336907,  10.9373336907)
 A2 = (  10.9373336907,   0.0000000000,  10.9373336907)
 A3 = (  10.9373336907,  10.9373336907,   0.0000000000)


Analysis of symmetry for initial positions (statically):
=====================================================================
 Subroutine PRICEL returns:
 Original cell was already a primitive cell.
 

 Routine SETGRP: Setting up the symmetry group for a 
 face centered cubic supercell.


 Subroutine GETGRP returns: Found  1 space group operations
 (whereof  1 operations were pure point group operations)
 out of a pool of 48 trial point group operations.


The static configuration has the point symmetry C_1 .


Analysis of symmetry for dynamics (positions and initial velocities):
=====================================================================
 Subroutine PRICEL returns:
 Original cell was already a primitive cell.
 

 Routine SETGRP: Setting up the symmetry group for a 
 face centered cubic supercell.


 Subroutine GETGRP returns: Found  1 space group operations
 (whereof  1 operations were pure point group operations)
 out of a pool of 48 trial point group operations.


The dynamic configuration has the point symmetry C_1 .


 Subroutine INISYM returns: Found  1 space group operations
 (whereof  1 operations are pure point group operations),
 and found     1 'primitive' translations

 
 
 KPOINTS: KPOINTS File, automatically generated by

Automatic generation of k-mesh.
Space group operators:
 irot       det(A)        alpha          n_x          n_y          n_z        tau_x        tau_y        tau_z
    1     1.000000     0.000001     1.000000     0.000000     0.000000     0.000000     0.000000     0.000000
 
 Subroutine IBZKPT returns following result:
 ===========================================
 
 Found      8 irreducible k-points:
 
 Following reciprocal coordinates:
            Coordinates               Weight
  0.000000  0.000000  0.000000      1.000000
  0.500000  0.000000  0.000000      1.000000
  0.000000  0.500000  0.000000      1.000000
  0.500000  0.500000  0.000000      1.000000
  0.000000  0.000000  0.500000      1.000000
  0.500000  0.000000  0.500000      1.000000
  0.000000  0.500000  0.500000      1.000000
  0.500000  0.500000  0.500000      1.000000
 
 Following cartesian coordinates:
            Coordinates               Weight
  0.000000  0.000000  0.000000      1.000000
 -0.022857  0.022857  0.022857      1.000000
  0.022857 -0.022857  0.022857      1.000000
  0.000000  0.000000  0.045715      1.000000
  0.022857  0.022857 -0.022857      1.000000
  0.000000  0.045715  0.000000      1.000000
  0.045715  0.000000  0.000000      1.000000
  0.022857  0.022857  0.022857      1.000000
 


--------------------------------------------------------------------------------------------------------




 Dimension of arrays:
   k-points           NKPTS =      8   k-points in BZ     NKDIM =      8   number of bands    NBANDS=    322
   number of dos      NEDOS =    301   number of ions     NIONS =    128
   non local maximal  LDIM  =      4   non local SUM 2l+1 LMDIM =      8
   total plane-waves  NPLWV = ******
   max r-space proj   IRMAX =      1   max aug-charges    IRDMAX= 176811
   dimension x,y,z NGX =   120 NGY =  120 NGZ =  120
   dimension x,y,z NGXF=   240 NGYF=  240 NGZF=  240
   support grid    NGXF=   480 NGYF=  480 NGZF=  480
   ions per type =             128
   NGX,Y,Z   is equivalent  to a cutoff of  12.90, 12.90, 12.90 a.u.
   NGXF,Y,Z  is equivalent  to a cutoff of  25.80, 25.80, 25.80 a.u.

 SYSTEM =  potpaw_PBE@./ARUN.APL1ZEROSTATE         
 POSCAR =  kk                                      

 Startparameter for this run:
   NWRITE =      2    write-flag & timer
   PREC   = accura    normal or accurate (medium, high low for compatibility)
   ISTART =      0    job   : 0-new  1-cont  2-samecut
   ICHARG =      2    charge: 1-file 2-atom 10-const
   ISPIN  =      1    spin polarized calculation?
   LNONCOLLINEAR =      F non collinear calculations
   LSORBIT =      F    spin-orbit coupling
   INIWAV =      1    electr: 0-lowe 1-rand  2-diag
   LASPH  =      F    aspherical Exc in radial PAW
   METAGGA=      F    non-selfconsistent MetaGGA calc.

 Electronic Relaxation 1
   ENCUT  =  500.0 eV  36.75 Ry    6.06 a.u.  28.20 28.20 28.20*2*pi/ulx,y,z
   ENINI  =  500.0     initial cutoff
   ENAUG  =  322.1 eV  augmentation charge cutoff
   NELM   =    120;   NELMIN=  4; NELMDL= -5     # of ELM steps 
   EDIFF  = 0.1E-07   stopping-criterion for ELM
   LREAL  =      F    real-space projection
   NLSPLINE    = F    spline interpolate recip. space projectors
   LCOMPAT=      F    compatible to vasp.4.4
   GGA_COMPAT  = T    GGA compatible to vasp.4.4-vasp.4.6
   LMAXPAW     = -100 max onsite density
   LMAXMIX     =    2 max onsite mixed and CHGCAR
   VOSKOWN=      0    Vosko Wilk Nusair interpolation
   ROPT   =    0.00000
 Ionic relaxation
   EDIFFG = 0.1E-06   stopping-criterion for IOM
   NSW    =      0    number of steps for IOM
   NBLOCK =      1;   KBLOCK =      1    inner block; outer block 
   IBRION =     -1    ionic relax: 0-MD 1-quasi-New 2-CG
   NFREE  =      0    steps in history (QN), initial steepest desc. (CG)
   ISIF   =      2    stress and relaxation
   IWAVPR =     10    prediction:  0-non 1-charg 2-wave 3-comb
   ISYM   =      2    0-nonsym 1-usesym 2-fastsym
   LCORR  =      T    Harris-Foulkes like correction to forces

   POTIM  = 0.5000    time-step for ionic-motion
   TEIN   =    0.0    initial temperature
   TEBEG  =    0.0;   TEEND  =   0.0 temperature during run
   SMASS  =  -3.00    Nose mass-parameter (am)
   estimated Nose-frequenzy (Omega)   =  0.10E-29 period in steps =****** mass=  -0.547E-26a.u.
   SCALEE = 1.0000    scale energy and forces
   NPACO  =    256;   APACO  = 16.0  distance and # of slots for P.C.
   PSTRESS=    0.0 pullay stress

  Mass of Ions in am
   POMASS =  28.09
  Ionic Valenz
   ZVAL   =   4.00
  Atomic Wigner-Seitz radii
   RWIGS  =  -1.00
  virtual crystal weights 
   VCA    =   1.00
   NELECT =     512.0000    total number of electrons
   NUPDOWN=      -1.0000    fix difference up-down

 DOS related values:
   EMIN   =  10.00;   EMAX   =-10.00  energy-range for DOS
   EFERMI =   0.00
   ISMEAR =     0;   SIGMA  =   0.01  broadening in eV -4-tet -1-fermi 0-gaus

 Electronic relaxation 2 (details)
   IALGO  =     38    algorithm
   LDIAG  =      T    sub-space diagonalisation (order eigenvalues)
   LSUBROT=      F    optimize rotation matrix (better conditioning)
   TURBO    =      0    0=normal 1=particle mesh
   IRESTART =      0    0=no restart 2=restart with 2 vectors
   NREBOOT  =      0    no. of reboots
   NMIN     =      0    reboot dimension
   EREF     =   0.00    reference energy to select bands
   IMIX   =      4    mixing-type and parameters
     AMIX     =   0.40;   BMIX     =  1.00
     AMIX_MAG =   1.60;   BMIX_MAG =  1.00
     AMIN     =   0.10
     WC   =   100.;   INIMIX=   1;  MIXPRE=   1;  MAXMIX= -45

 Intra band minimization:
   WEIMIN = 0.0000     energy-eigenvalue tresh-hold
   EBREAK =  0.78E-11  absolut break condition
   DEPER  =   0.30     relativ break condition  

   TIME   =   0.40     timestep for ELM

  volume/ion in A,a.u.               =      20.44       137.96
  Fermi-wavevector in a.u.,A,eV,Ry     =   0.950408  1.796010 12.289804  0.903275
  Thomas-Fermi vector in A             =   2.078782
 
 Write flags
   LWAVE        =      F    write WAVECAR
   LDOWNSAMPLE  =      F    k-point downsampling of WAVECAR
   LCHARG       =      F    write CHGCAR
   LVTOT        =      F    write LOCPOT, total local potential
   LVHAR        =      F    write LOCPOT, Hartree potential only
   LELF         =      F    write electronic localiz. function (ELF)
   LORBIT       =      0    0 simple, 1 ext, 2 COOP (PROOUT), +10 PAW based schemes


 Dipole corrections
   LMONO  =      F    monopole corrections only (constant potential shift)
   LDIPOL =      F    correct potential (dipole corrections)
   IDIPOL =      0    1-x, 2-y, 3-z, 4-all directions 
   EPSILON=  1.0000000 bulk dielectric constant

 Exchange correlation treatment:
   GGA     =    --    GGA type
   LEXCH   =     8    internal setting for exchange type
   VOSKOWN=      0    Vosko Wilk Nusair interpolation
   LHFCALC =     F    Hartree Fock is set to
   LHFONE  =     F    Hartree Fock one center treatment
   AEXX    =    0.0000 exact exchange contribution

 Linear response parameters
   LEPSILON=     F    determine dielectric tensor
   LRPA    =     F    only Hartree local field effects (RPA)
   LNABLA  =     F    use nabla operator in PAW spheres
   LVEL    =     F    velocity operator in full k-point grid
   LINTERFAST=   F  fast interpolation
   KINTER  =     0    interpolate to denser k-point grid
   CSHIFT  =0.1000    complex shift for real part using Kramers Kronig
   OMEGAMAX=  -1.0    maximum frequency
   DEG_THRESHOLD= 0.2000000E-02 threshold for treating states as degnerate
   RTIME   =   -0.100 relaxation time in fs
  (WPLASMAI=    0.000 imaginary part of plasma frequency in eV, 0.658/RTIME)
   DFIELD  = 0.0000000 0.0000000 0.0000000 field for delta impulse in time
 
 Orbital magnetization related:
   ORBITALMAG=     F  switch on orbital magnetization
   LCHIMAG   =     F  perturbation theory with respect to B field
   DQ        =  0.001000  dq finite difference perturbation B field
   LLRAUG    =     F  two centre corrections for induced B field



--------------------------------------------------------------------------------------------------------


 Static calculation
 charge density and potential will be updated during run
 non-spin polarized calculation
 Variant of blocked Davidson
 Davidson routine will perform the subspace rotation
 perform sub-space diagonalisation
    after iterative eigenvector-optimisation
 modified Broyden-mixing scheme, WC =      100.0
 initial mixing is a Kerker type mixing with AMIX =  0.4000 and BMIX =      1.0000
 Hartree-type preconditioning will be used
 using additional bands           66
 reciprocal scheme for non local part
 use partial core corrections
 calculate Harris-corrections to forces 
   (improved forces if not selfconsistent)
 use gradient corrections 
 use of overlap-Matrix (Vanderbilt PP)
 Gauss-broadening in eV      SIGMA  =   0.01


--------------------------------------------------------------------------------------------------------


  energy-cutoff  :      500.00
  volume of cell :     2616.76
      direct lattice vectors                 reciprocal lattice vectors
     0.000000000 10.937333691 10.937333691    -0.045714981  0.045714981  0.045714981
    10.937333691  0.000000000 10.937333691     0.045714981 -0.045714981  0.045714981
    10.937333691 10.937333691  0.000000000     0.045714981  0.045714981 -0.045714981

  length of vectors
    15.467725642 15.467725642 15.467725642     0.079180669  0.079180669  0.079180669


 
 k-points in units of 2pi/SCALE and weight: KPOINTS File, automatically generated by
   0.00000000  0.00000000  0.00000000       0.125
  -0.02285749  0.02285749  0.02285749       0.125
   0.02285749 -0.02285749  0.02285749       0.125
   0.00000000  0.00000000  0.04571498       0.125
   0.02285749  0.02285749 -0.02285749       0.125
   0.00000000  0.04571498  0.00000000       0.125
   0.04571498  0.00000000  0.00000000       0.125
   0.02285749  0.02285749  0.02285749       0.125
 
 k-points in reciprocal lattice and weights: KPOINTS File, automatically generated by
   0.00000000  0.00000000  0.00000000       0.125
   0.50000000  0.00000000  0.00000000       0.125
   0.00000000  0.50000000  0.00000000       0.125
   0.50000000  0.50000000  0.00000000       0.125
   0.00000000  0.00000000  0.50000000       0.125
   0.50000000  0.00000000  0.50000000       0.125
   0.00000000  0.50000000  0.50000000       0.125
   0.50000000  0.50000000  0.50000000       0.125
 
 position of ions in fractional coordinates (direct lattice) 
   0.99868827  0.00960346  0.00476396
   0.27447180  0.99122089  0.98863913
   0.49603433  0.00987411  0.98717418
   0.76421847  0.99366929  0.99504722
   0.97802754  0.26328423  0.99772317
   0.25056134  0.25042638  0.00047810
   0.49467903  0.24604294  0.00807501
   0.74270417  0.25442479  0.00482768
   0.02121983  0.49151966  0.99422025
   0.25797855  0.49239129  0.00131257
   0.50298805  0.50450559  0.99095547
   0.75457944  0.51030281  0.99575990
   0.01657065  0.75165669  0.99480873
   0.26148577  0.74522078  0.00341820
   0.49750780  0.76080966  0.99929487
   0.75514724  0.74847738  0.99361557
   0.98894212  0.99757299  0.25506412
   0.24162237  0.00081705  0.25146128
   0.50389623  0.99385862  0.24769184
   0.74895898  0.99214195  0.25865846
   0.00101934  0.26040335  0.23708074
   0.24179169  0.25676510  0.25779305
   0.49696542  0.26129717  0.25093802
   0.74443873  0.25100965  0.24486664
   0.99989716  0.51406283  0.24860953
   0.25404464  0.49202464  0.24810324
   0.49837796  0.51322570  0.24549370
   0.75386405  0.49378404  0.24602721
   0.99412797  0.76657708  0.23980025
   0.25137910  0.74974768  0.25557598
   0.49212550  0.75733057  0.25391054
   0.74372085  0.74187779  0.25758239
   0.00612982  0.00783843  0.49168541
   0.24685828  0.99773316  0.49940217
   0.51094041  0.99601951  0.50406105
   0.74660730  0.99973112  0.49238095
   0.99628233  0.25259126  0.51039018
   0.25232082  0.25296261  0.49805737
   0.50488790  0.25771325  0.49805828
   0.75055991  0.25106270  0.50665104
   0.99352305  0.49260483  0.51683671
   0.24183479  0.49998874  0.50051548
   0.49085829  0.50807188  0.50329648
   0.74258784  0.50203129  0.50269820
   0.00449021  0.75585241  0.49229668
   0.23372655  0.75147708  0.51074784
   0.49314683  0.75631051  0.49718605
   0.75019781  0.75017536  0.50206718
   0.99295869  0.01188866  0.74466408
   0.24225058  0.00739169  0.74366939
   0.50413909  0.00613590  0.74890963
   0.73927486  0.99222668  0.76170852
   0.99346114  0.25395167  0.74909910
   0.24939588  0.24817316  0.76315784
   0.50495860  0.23771263  0.74403916
   0.75168996  0.23776490  0.75449510
   0.99992223  0.50050392  0.74268866
   0.25229561  0.50711746  0.74783873
   0.49199898  0.50601550  0.73248423
   0.75155172  0.50853869  0.73638407
   0.99975370  0.75558356  0.74682368
   0.26053915  0.74956590  0.75533308
   0.50080339  0.76305702  0.74560258
   0.75333449  0.74098460  0.76897652
   0.06359188  0.06047884  0.07852949
   0.31555347  0.05936611  0.06302424
   0.56369739  0.07134811  0.06085552
   0.81385901  0.05794417  0.05867907
   0.07202154  0.30550791  0.06228002
   0.30585484  0.30989217  0.06834871
   0.55731825  0.32383921  0.05931922
   0.81016081  0.31709393  0.06283475
   0.06417643  0.56204851  0.06395692
   0.30780988  0.56141539  0.06724249
   0.55321452  0.56584041  0.06071038
   0.81403874  0.57274881  0.04994773
   0.06318172  0.81064327  0.06344504
   0.32079964  0.80372879  0.06883983
   0.57128004  0.81616727  0.05247609
   0.82508649  0.81500908  0.05681949
   0.05043574  0.07431675  0.31247434
   0.30755654  0.06125515  0.31240612
   0.55299693  0.06908280  0.30579494
   0.81396733  0.06950755  0.30801869
   0.06670562  0.31521632  0.30565966
   0.31526930  0.31006418  0.31050076
   0.54774795  0.31543346  0.32735113
   0.81303422  0.31120421  0.31595213
   0.08463841  0.56563391  0.29098172
   0.31369001  0.56349424  0.31207450
   0.55412234  0.57421665  0.30678399
   0.81368031  0.55382852  0.31074052
   0.07266273  0.81614561  0.30457806
   0.31711263  0.81132168  0.31146936
   0.56119325  0.80449005  0.31827751
   0.81103167  0.81378558  0.31955621
   0.07102100  0.04831774  0.56746090
   0.32434466  0.04841420  0.56872512
   0.57007751  0.05643080  0.55323735
   0.80291442  0.06661210  0.55409030
   0.05869793  0.31732376  0.56243059
   0.32649362  0.30537460  0.55875327
   0.55128225  0.31396303  0.57390936
   0.81079868  0.29838195  0.57686169
   0.06429408  0.56854445  0.55138298
   0.31195405  0.56743070  0.56377221
   0.56595050  0.55752706  0.55940316
   0.81447293  0.55981340  0.55829964
   0.05381066  0.80666743  0.56979642
   0.31071237  0.80341698  0.57179312
   0.57054731  0.80959597  0.56991318
   0.80683388  0.81670763  0.55693987
   0.06774108  0.05475168  0.80741394
   0.30549618  0.06824406  0.81198313
   0.56053953  0.06168710  0.80892249
   0.80982515  0.05987530  0.82037222
   0.04811676  0.31287343  0.82517892
   0.31401678  0.30629529  0.81759832
   0.56609634  0.31452901  0.80552034
   0.80943677  0.31454425  0.81460679
   0.06106196  0.57087337  0.80860054
   0.31379812  0.56343925  0.80863485
   0.56622794  0.55696544  0.81577591
   0.81654505  0.57145428  0.80515090
   0.07084523  0.81606535  0.80907736
   0.31312106  0.81204568  0.81587789
   0.56936034  0.79949996  0.81850565
   0.81424328  0.81976599  0.81902479
 
 position of ions in cartesian coordinates  (Angst):
   0.15714127 10.97509187 11.02802311
  21.65438970 13.81506564 13.84330328
  10.90504989 16.22234643  5.53328944
  21.75125610 19.24167591 19.22660500
  13.79205876 21.60944482 13.57664105
   2.74422601  2.74570209  5.47946986
   2.77937288  5.49878871  8.10152335
   2.83553075  8.17600522 10.90593213
  16.25003320 11.10620703  5.60800297
   5.39980378  2.83595350  8.20704534
  16.35635661 16.33975874 11.01929414
  16.47231044 19.14404543 13.83443917
  19.10167502 11.06179375  8.40235871
   8.18811434  2.89734314 11.01068549
  19.25085063 16.37103030 13.76263798
  19.05385195 19.12680246 16.44564424
  13.70051004 13.60611133 21.72717857
   2.75925236  5.39302044  2.65164088
  13.57925166  8.22036953 16.38144463
  13.68042149 11.02064819 19.04300183
   5.44114949  2.60418002  2.85926711
   5.62789414  5.46412498  5.45288191
   5.60248712  8.18006940  8.29337088
   5.42356441 10.82036296 10.88755108
   8.34160204 13.65533422 16.55868554
   8.09502564  5.49215896  8.16000869
   8.29836718  8.13597253 11.06424678
   8.09156257 10.93614437 13.64594353
  11.00708460 13.49588467 19.25741864
  10.99556026  5.54473681 10.94965762
  11.06028142  8.15964508 13.66571793
  10.93142953 10.95158773 16.24848809
   5.46345894  5.44477131  0.15277546
  16.37466861  8.16209948 13.61251180
  16.40688167 11.10140961 16.48212353
  16.31972762 13.55122797 19.10028606
   8.34498259 16.47898004 13.65934720
   8.21415617  8.20713666  5.52645344
   8.26612540 10.96955702  8.34082322
   8.28736803 13.75053570 10.95508076
  11.04059901 16.51930872 16.25427659
  10.94284849  8.11933268  8.11357150
  11.06167326 10.87340249 10.92563264
  10.98906166 13.62010896 13.61281480
  13.65142310  5.43352394  8.31612092
  13.80537518  8.14256484 10.77550084
  13.70991017 10.83160109 13.66573186
  13.69619451 13.69644004 16.41008201
   8.27466977 19.00496001 10.99035077
   8.21460569 10.78333573  2.73042077
   8.25818484 13.70501198  5.58104783
  19.18337464 16.41675609 18.93801011
  10.97070102 19.05896290 13.64337016
  11.06126462 11.07463784  5.44207864
  10.73774691 13.66070520  8.12284305
  10.85267874 16.47364865 10.82199794
  13.59721208 19.05951687 16.41066146
  13.72587467 10.93880303  8.30595412
  13.54588479 13.39258142 10.91561740
  13.61613560 16.27405025 13.78202929
  16.43232928 19.10289953 19.19870930
  16.45958237 11.11093359 11.04785602
  16.50071346 13.63235794 13.82326300
  16.51494866 16.65002342 16.34386652
   1.52038053  1.55442886  1.35700286
   1.33862411  4.14063070  4.10062058
   1.44595522  6.83094358  6.94570456
   1.27554733  9.54324017  9.53520236
   4.02261926  1.46890093  4.12916553
   4.13694673  4.09278911  6.73463059
   4.19073160  6.74436979  9.63751310
   4.15540665  9.54824365 12.32916114
   6.84683020  1.40143720  6.84923112
   6.87584101  4.10207287  9.50700680
   6.85279499  6.71470145 12.23947714
   6.81063977  9.44970834 15.16775818
   9.56019544  1.38495914  9.55731548
   9.54357422  4.26161692 12.29934272
   9.50064232  6.82222893 15.17497425
   9.53548002  9.64570002 17.93827260
   4.23046315  3.96926866  1.36445962
   4.08685799  6.78073856  4.03381650
   4.10016288  9.39289321  6.80389356
   4.12913053 12.27153546  9.66285956
   6.79072783  4.07268335  4.17720777
   6.78732577  6.84425587  6.83948087
   7.03034954  9.57125071  9.44090314
   6.85941825 12.34810047 12.29617089
   9.36909097  4.10828269  7.11224542
   9.57638747  6.84419521  9.59405689
   9.63579802  9.41601984 12.34102010
   9.45608011 12.29816584 14.95690046
  12.25772868  4.12600830  9.72119332
  12.28034020  6.87501100 12.34206259
  12.28008347  9.61906517 14.93693399
  12.39573725 12.36561688 17.77116841
   6.73497649  6.98328964  1.30524762
   6.74985863  9.76780220  4.07698808
   6.66814409 12.28606952  6.85233051
   6.78882926 14.84201336  9.51030167
   9.62216692  6.79348990  4.11267466
   9.45125490  9.68224068  6.91095363
   9.71095658 12.30659609  9.46347627
   9.57283184 15.17730452 12.13147866
  12.24902007  6.73386554  6.92156625
  12.37234362  9.57811029  9.61812442
  12.21623856 12.30836849 12.28784891
  12.22917550 15.01447176 15.03102824
  15.05484450  6.82059879  9.41133610
  15.04113174  9.65225697 12.18560448
  15.08815194 12.47359697 15.09508770
  15.02404105 14.91604857 17.75721526
   9.42979319  9.57186258  1.33974428
   9.62733856 12.22224416  4.08772172
   9.52214751 14.97826304  6.80550025
   9.62756081 17.83001256  9.51220399
  12.44725825  9.55152625  3.94827015
  12.29239949 12.37685202  6.78456019
  12.25035349 15.00182929  9.63169336
  12.34990172 17.76270633 12.29335551
  15.08776646  9.51178896  6.91168756
  15.00683229 12.27642393  9.59463780
  15.01413021 15.11543723 12.28474077
  15.05639020 17.73702969 15.18101183
  17.77472808  9.62400700  9.70043695
  17.80514325 12.34823820 12.30632404
  17.69666722 15.17955344 14.97168183
  17.92400160 17.86359788 17.87170469
 


--------------------------------------------------------------------------------------------------------


 k-point  1 :   0.0000 0.0000 0.0000  plane waves:   66299
 k-point  2 :   0.5000 0.0000 0.0000  plane waves:   66394
 k-point  3 :   0.0000 0.5000 0.0000  plane waves:   66394
 k-point  4 :   0.5000 0.5000 0.0000  plane waves:   66552
 k-point  5 :   0.0000 0.0000 0.5000  plane waves:   66394
 k-point  6 :   0.5000 0.0000 0.5000  plane waves:   66552
 k-point  7 :   0.0000 0.5000 0.5000  plane waves:   66552
 k-point  8 :   0.5000 0.5000 0.5000  plane waves:   66394

 maximum and minimum number of plane-waves per node :      4207     4110

 maximum number of plane-waves:     66552
 maximum index in each direction: 
   IXMAX=   28   IYMAX=   28   IZMAX=   28
   IXMIN=  -28   IYMIN=  -28   IZMIN=  -28


 parallel 3D FFT for wavefunctions:
    minimum data exchange during FFTs selected (reduces bandwidth)
 parallel 3D FFT for charge:
    minimum data exchange during FFTs selected (reduces bandwidth)


 total amount of memory used by VASP MPI-rank0   221701. kBytes
=======================================================================

   base      :      30000. kBytes
   nonl-proj :      10690. kBytes
   fftplans  :      66746. kBytes
   grid      :      26864. kBytes
   one-center:         24. kBytes
   wavefun   :      87377. kBytes
 
     INWAV:  cpu time    0.0000: real time    0.0002
 Broyden mixing: mesh for mixing (old mesh)
   NGX = 57   NGY = 57   NGZ = 57
  (NGX  =240   NGY  =240   NGZ  =240)
  gives a total of 185193 points

 initial charge density was supplied:
 charge density of overlapping atoms calculated
 number of electron     512.0000000 magnetization 
 keeping initial charge density in first step


--------------------------------------------------------------------------------------------------------


 Maximum index for augmentation-charges         5604 (set IRDMAX)


--------------------------------------------------------------------------------------------------------


 First call to EWALD:  gamma=   0.129
 Maximum number of real-space cells 3x 3x 3
 Maximum number of reciprocal cells 3x 3x 3

    FEWALD:  cpu time    0.0062: real time    0.0062


--------------------------------------- Iteration      1(   1)  ---------------------------------------


    POTLOK:  cpu time    0.4891: real time    0.4983
    SETDIJ:  cpu time    0.5153: real time    0.5153
     EDDAV:  cpu time   70.3864: real time   70.4047
       DOS:  cpu time    0.0029: real time    0.0029
    --------------------------------------------
      LOOP:  cpu time   71.3938: real time   71.4212

 eigenvalue-minimisations  :  5152
 total energy-change (2. order) : 0.1387821E+04  (-0.1908595E+05)
 number of electron     512.0000000 magnetization 
 augmentation part      512.0000000 magnetization 

 Free energy of the ion-electron system (eV)
  ---------------------------------------------------
  alpha Z        PSCENC =       210.77028614
  Ewald energy   TEWEN  =    -14460.05879337
  -Hartree energ DENC   =      -761.10874297
  -exchange      EXHF   =         0.00000000
  -V(xc)+E(xc)   XCENC  =     -1195.11967979
  PAW double counting   =      4221.13331941    -1969.18571412
  entropy T*S    EENTRO =        -0.00141894
  eigenvalues    EBANDS =      2148.91071114
  atomic energy  EATOM  =     13192.48085998
  Solvation  Ediel_sol  =         0.00000000
  ---------------------------------------------------
  free energy    TOTEN  =      1387.82082749 eV

  energy without entropy =     1387.82224643  energy(sigma->0) =     1387.82153696


--------------------------------------------------------------------------------------------------------




--------------------------------------- Iteration      1(   2)  ---------------------------------------


     EDDAV:  cpu time   80.0351: real time   80.0626
       DOS:  cpu time    0.0018: real time    0.0018
    --------------------------------------------
      LOOP:  cpu time   80.0369: real time   80.0644

 eigenvalue-minimisations  :  6104
 total energy-change (2. order) :-0.1922109E+04  (-0.1828004E+04)
 number of electron     512.0000000 magnetization 
 augmentation part      512.0000000 magnetization 

 Free energy of the ion-electron system (eV)
  ---------------------------------------------------
  alpha Z        PSCENC =       210.77028614
  Ewald energy   TEWEN  =    -14460.05879337
  -Hartree energ DENC   =      -761.10874297
  -exchange      EXHF   =         0.00000000
  -V(xc)+E(xc)   XCENC  =     -1195.11967979
  PAW double counting   =      4221.13331941    -1969.18571412
  entropy T*S    EENTRO =        -0.00000000
  eigenvalues    EBANDS =       226.80064557
  atomic energy  EATOM  =     13192.48085998
  Solvation  Ediel_sol  =         0.00000000
  ---------------------------------------------------
  free energy    TOTEN  =      -534.28781913 eV

  energy without entropy =     -534.28781913  energy(sigma->0) =     -534.28781913


--------------------------------------------------------------------------------------------------------




--------------------------------------- Iteration      1(   3)  ---------------------------------------


     EDDAV:  cpu time   82.3312: real time   82.3543
       DOS:  cpu time    0.0012: real time    0.0012
    --------------------------------------------
      LOOP:  cpu time   82.3324: real time   82.3555

 eigenvalue-minimisations  :  6304
 total energy-change (2. order) :-0.1503566E+03  (-0.1472877E+03)
 number of electron     512.0000000 magnetization 
 augmentation part      512.0000000 magnetization 

 Free energy of the ion-electron system (eV)
  ---------------------------------------------------
  alpha Z        PSCENC =       210.77028614
  Ewald energy   TEWEN  =    -14460.05879337
  -Hartree energ DENC   =      -761.10874297
  -exchange      EXHF   =         0.00000000
  -V(xc)+E(xc)   XCENC  =     -1195.11967979
  PAW double counting   =      4221.13331941    -1969.18571412
  entropy T*S    EENTRO =        -0.00000000
  eigenvalues    EBANDS =        76.44400100
  atomic energy  EATOM  =     13192.48085998
  Solvation  Ediel_sol  =         0.00000000
  ---------------------------------------------------
  free energy    TOTEN  =      -684.64446370 eV

  energy without entropy =     -684.64446370  energy(sigma->0) =     -684.64446370


--------------------------------------------------------------------------------------------------------




--------------------------------------- Iteration      1(   4)  ---------------------------------------


     EDDAV:  cpu time   80.8331: real time   80.8638
       DOS:  cpu time    0.0017: real time    0.0017
    --------------------------------------------
      LOOP:  cpu time   80.8348: real time   80.8655

 eigenvalue-minimisations  :  6168
 total energy-change (2. order) :-0.4293925E+01  (-0.4258195E+01)
 number of electron     512.0000000 magnetization 
 augmentation part      512.0000000 magnetization 

 Free energy of the ion-electron system (eV)
  ---------------------------------------------------
  alpha Z        PSCENC =       210.77028614
  Ewald energy   TEWEN  =    -14460.05879337
  -Hartree energ DENC   =      -761.10874297
  -exchange      EXHF   =         0.00000000
  -V(xc)+E(xc)   XCENC  =     -1195.11967979
  PAW double counting   =      4221.13331941    -1969.18571412
  entropy T*S    EENTRO =        -0.00000000
  eigenvalues    EBANDS =        72.15007567
  atomic energy  EATOM  =     13192.48085998
  Solvation  Ediel_sol  =         0.00000000
  ---------------------------------------------------
  free energy    TOTEN  =      -688.93838903 eV

  energy without entropy =     -688.93838903  energy(sigma->0) =     -688.93838903


--------------------------------------------------------------------------------------------------------




--------------------------------------- Iteration      1(   5)  ---------------------------------------


     EDDAV:  cpu time   82.9075: real time   82.9310
       DOS:  cpu time    0.0021: real time    0.0021
    CHARGE:  cpu time    3.2461: real time    3.2462
    MIXING:  cpu time    0.0434: real time    0.0435
    --------------------------------------------
      LOOP:  cpu time   86.1991: real time   86.2228

 eigenvalue-minimisations  :  6376
 total energy-change (2. order) :-0.1529809E+00  (-0.1525876E+00)
 number of electron     511.9999998 magnetization 
 augmentation part      -30.2100707 magnetization 

 Broyden mixing:
  rms(total) = 0.24084E+01    rms(broyden)= 0.24084E+01
  rms(prec ) = 0.29210E+01
  weight for this iteration     100.00

 Free energy of the ion-electron system (eV)
  ---------------------------------------------------
  alpha Z        PSCENC =       210.77028614
  Ewald energy   TEWEN  =    -14460.05879337
  -Hartree energ DENC   =      -761.10874297
  -exchange      EXHF   =         0.00000000
  -V(xc)+E(xc)   XCENC  =     -1195.11967979
  PAW double counting   =      4221.13331941    -1969.18571412
  entropy T*S    EENTRO =        -0.00000000
  eigenvalues    EBANDS =        71.99709479
  atomic energy  EATOM  =     13192.48085998
  Solvation  Ediel_sol  =         0.00000000
  ---------------------------------------------------
  free energy    TOTEN  =      -689.09136992 eV

  energy without entropy =     -689.09136992  energy(sigma->0) =     -689.09136992


--------------------------------------------------------------------------------------------------------




--------------------------------------- Iteration      1(   6)  ---------------------------------------


    POTLOK:  cpu time    0.4895: real time    0.4904
    SETDIJ:  cpu time    0.5092: real time    0.5092
     EDDAV:  cpu time   77.9065: real time   77.9314
       DOS:  cpu time    0.0011: real time    0.0011
    CHARGE:  cpu time    3.2333: real time    3.2341
    MIXING:  cpu time    0.0444: real time    0.0444
    --------------------------------------------
      LOOP:  cpu time   82.1840: real time   82.2105

 eigenvalue-minimisations  :  5904
 total energy-change (2. order) : 0.8712065E+01  (-0.6394800E+00)
 number of electron     511.9999998 magnetization 
 augmentation part      -29.8666502 magnetization 

 Broyden mixing:
  rms(total) = 0.14297E+01    rms(broyden)= 0.14297E+01
  rms(prec ) = 0.17224E+01
  weight for this iteration     100.00

 eigenvalues of (default mixing * dielectric matrix)
  average eigenvalue GAMMA=   2.4236
  2.4236

 Free energy of the ion-electron system (eV)
  ---------------------------------------------------
  alpha Z        PSCENC =       210.77028614
  Ewald energy   TEWEN  =    -14460.05879337
  -Hartree energ DENC   =      -857.32625666
  -exchange      EXHF   =         0.00000000
  -V(xc)+E(xc)   XCENC  =     -1180.43407327
  PAW double counting   =      4468.75804685    -2223.66651747
  entropy T*S    EENTRO =        -0.00000000
  eigenvalues    EBANDS =       169.09714330
  atomic energy  EATOM  =     13192.48085998
  Solvation  Ediel_sol  =         0.00000000
  ---------------------------------------------------
  free energy    TOTEN  =      -680.37930449 eV

  energy without entropy =     -680.37930449  energy(sigma->0) =     -680.37930449


--------------------------------------------------------------------------------------------------------




--------------------------------------- Iteration      1(   7)  ---------------------------------------


    POTLOK:  cpu time    0.4853: real time    0.4899
    SETDIJ:  cpu time    0.5079: real time    0.5084
     EDDAV:  cpu time   76.3064: real time   76.3255
       DOS:  cpu time    0.0011: real time    0.0011
    CHARGE:  cpu time    3.2286: real time    3.2303
    MIXING:  cpu time    0.0442: real time    0.0442
    --------------------------------------------
      LOOP:  cpu time   80.5734: real time   80.5994

 eigenvalue-minimisations  :  5744
 total energy-change (2. order) : 0.3542549E+01  (-0.1186099E+01)
 number of electron     511.9999998 magnetization 
 augmentation part      -29.4109150 magnetization 

 Broyden mixing:
  rms(total) = 0.16341E+00    rms(broyden)= 0.16341E+00
  rms(prec ) = 0.21514E+00
  weight for this iteration     100.00

 eigenvalues of (default mixing * dielectric matrix)
  average eigenvalue GAMMA=   2.0591
  2.0591  2.0591

 Free energy of the ion-electron system (eV)
  ---------------------------------------------------
  alpha Z        PSCENC =       210.77028614
  Ewald energy   TEWEN  =    -14460.05879337
  -Hartree energ DENC   =     -1007.47662079
  -exchange      EXHF   =         0.00000000
  -V(xc)+E(xc)   XCENC  =     -1156.65660654
  PAW double counting   =      4790.56011158    -2554.05292155
  entropy T*S    EENTRO =        -0.00000000
  eigenvalues    EBANDS =       307.59692894
  atomic energy  EATOM  =     13192.48085998
  Solvation  Ediel_sol  =         0.00000000
  ---------------------------------------------------
  free energy    TOTEN  =      -676.83675561 eV

  energy without entropy =     -676.83675561  energy(sigma->0) =     -676.83675561


--------------------------------------------------------------------------------------------------------




--------------------------------------- Iteration      1(   8)  ---------------------------------------


    POTLOK:  cpu time    0.4870: real time    0.4908
    SETDIJ:  cpu time    0.5124: real time    0.5124
     EDDAV:  cpu time   77.1101: real time   77.1374
       DOS:  cpu time    0.0010: real time    0.0010
    CHARGE:  cpu time    3.2222: real time    3.2269
    MIXING:  cpu time    0.0486: real time    0.0486
    --------------------------------------------
      LOOP:  cpu time   81.3813: real time   81.4170

 eigenvalue-minimisations  :  5824
 total energy-change (2. order) :-0.4651878E-01  (-0.1195226E+00)
 number of electron     511.9999998 magnetization 
 augmentation part      -29.4835845 magnetization 

 Broyden mixing:
  rms(total) = 0.66212E-01    rms(broyden)= 0.66212E-01
  rms(prec ) = 0.81823E-01
  weight for this iteration     100.00

 eigenvalues of (default mixing * dielectric matrix)
  average eigenvalue GAMMA=   1.9863
  2.6636  1.6476  1.6476

 Free energy of the ion-electron system (eV)
  ---------------------------------------------------
  alpha Z        PSCENC =       210.77028614
  Ewald energy   TEWEN  =    -14460.05879337
  -Hartree energ DENC   =     -1001.29416757
  -exchange      EXHF   =         0.00000000
  -V(xc)+E(xc)   XCENC  =     -1156.67036029
  PAW double counting   =      4745.74272568    -2507.83424546
  entropy T*S    EENTRO =        -0.00000000
  eigenvalues    EBANDS =       299.98042050
  atomic energy  EATOM  =     13192.48085998
  Solvation  Ediel_sol  =         0.00000000
  ---------------------------------------------------
  free energy    TOTEN  =      -676.88327439 eV

  energy without entropy =     -676.88327439  energy(sigma->0) =     -676.88327439


--------------------------------------------------------------------------------------------------------




--------------------------------------- Iteration      1(   9)  ---------------------------------------


    POTLOK:  cpu time    0.4857: real time    0.4888
    SETDIJ:  cpu time    0.5157: real time    0.5157
     EDDAV:  cpu time   79.5473: real time   79.5705
       DOS:  cpu time    0.0013: real time    0.0013
    CHARGE:  cpu time    3.2240: real time    3.2241
    MIXING:  cpu time    0.0463: real time    0.0463
    --------------------------------------------
      LOOP:  cpu time   83.8203: real time   83.8467

 eigenvalue-minimisations  :  6072
 total energy-change (2. order) :-0.2432060E-01  (-0.1156733E-01)
 number of electron     511.9999998 magnetization 
 augmentation part      -29.4889662 magnetization 

 Broyden mixing:
  rms(total) = 0.29347E-01    rms(broyden)= 0.29347E-01
  rms(prec ) = 0.34118E-01
  weight for this iteration     100.00

 eigenvalues of (default mixing * dielectric matrix)
  average eigenvalue GAMMA=   1.7769
  2.5811  1.8119  1.8119  0.9026

 Free energy of the ion-electron system (eV)
  ---------------------------------------------------
  alpha Z        PSCENC =       210.77028614
  Ewald energy   TEWEN  =    -14460.05879337
  -Hartree energ DENC   =     -1008.20646464
  -exchange      EXHF   =         0.00000000
  -V(xc)+E(xc)   XCENC  =     -1155.45050058
  PAW double counting   =      4748.73107158    -2510.89705538
  entropy T*S    EENTRO =        -0.00000000
  eigenvalues    EBANDS =       305.72300127
  atomic energy  EATOM  =     13192.48085998
  Solvation  Ediel_sol  =         0.00000000
  ---------------------------------------------------
  free energy    TOTEN  =      -676.90759500 eV

  energy without entropy =     -676.90759500  energy(sigma->0) =     -676.90759500


--------------------------------------------------------------------------------------------------------




--------------------------------------- Iteration      1(  10)  ---------------------------------------


    POTLOK:  cpu time    0.4894: real time    0.4904
    SETDIJ:  cpu time    0.5120: real time    0.5123
     EDDAV:  cpu time   80.1521: real time   80.1905
       DOS:  cpu time    0.0010: real time    0.0010
    CHARGE:  cpu time    3.2032: real time    3.2050
    MIXING:  cpu time    0.0498: real time    0.0498
    --------------------------------------------
      LOOP:  cpu time   84.4076: real time   84.4490

 eigenvalue-minimisations  :  6128
 total energy-change (2. order) :-0.2530296E-02  (-0.9249980E-03)
 number of electron     511.9999998 magnetization 
 augmentation part      -29.4987082 magnetization 

 Broyden mixing:
  rms(total) = 0.12040E-01    rms(broyden)= 0.12040E-01
  rms(prec ) = 0.14430E-01
  weight for this iteration     100.00

 eigenvalues of (default mixing * dielectric matrix)
  average eigenvalue GAMMA=   1.8522
  2.6905  2.6905  1.4906  1.4906  0.8989

 Free energy of the ion-electron system (eV)
  ---------------------------------------------------
  alpha Z        PSCENC =       210.77028614
  Ewald energy   TEWEN  =    -14460.05879337
  -Hartree energ DENC   =     -1007.10628089
  -exchange      EXHF   =         0.00000000
  -V(xc)+E(xc)   XCENC  =     -1155.61576294
  PAW double counting   =      4741.68086810    -2503.67078184
  entropy T*S    EENTRO =        -0.00000000
  eigenvalues    EBANDS =       304.60947953
  atomic energy  EATOM  =     13192.48085998
  Solvation  Ediel_sol  =         0.00000000
  ---------------------------------------------------
  free energy    TOTEN  =      -676.91012529 eV

  energy without entropy =     -676.91012529  energy(sigma->0) =     -676.91012529


--------------------------------------------------------------------------------------------------------




--------------------------------------- Iteration      1(  11)  ---------------------------------------


    POTLOK:  cpu time    0.4892: real time    0.4896
    SETDIJ:  cpu time    0.5089: real time    0.5089
     EDDAV:  cpu time   76.2708: real time   76.2924
       DOS:  cpu time    0.0016: real time    0.0016
    CHARGE:  cpu time    3.2155: real time    3.2157
    MIXING:  cpu time    0.0398: real time    0.0398
    --------------------------------------------
      LOOP:  cpu time   80.5259: real time   80.5481

 eigenvalue-minimisations  :  5728
 total energy-change (2. order) :-0.1659759E-02  (-0.2740963E-03)
 number of electron     511.9999998 magnetization 
 augmentation part      -29.5016375 magnetization 

 Broyden mixing:
  rms(total) = 0.42529E-02    rms(broyden)= 0.42529E-02
  rms(prec ) = 0.59276E-02
  weight for this iteration     100.00

 eigenvalues of (default mixing * dielectric matrix)
  average eigenvalue GAMMA=   1.7616
  2.8329  1.9988  1.9988  1.6340  1.2354  0.8695

 Free energy of the ion-electron system (eV)
  ---------------------------------------------------
  alpha Z        PSCENC =       210.77028614
  Ewald energy   TEWEN  =    -14460.05879337
  -Hartree energ DENC   =     -1006.94552562
  -exchange      EXHF   =         0.00000000
  -V(xc)+E(xc)   XCENC  =     -1155.63462712
  PAW double counting   =      4736.87209705    -2498.74965618
  entropy T*S    EENTRO =        -0.00000000
  eigenvalues    EBANDS =       304.35357406
  atomic energy  EATOM  =     13192.48085998
  Solvation  Ediel_sol  =         0.00000000
  ---------------------------------------------------
  free energy    TOTEN  =      -676.91178505 eV

  energy without entropy =     -676.91178505  energy(sigma->0) =     -676.91178505


--------------------------------------------------------------------------------------------------------




--------------------------------------- Iteration      1(  12)  ---------------------------------------


    POTLOK:  cpu time    0.4888: real time    0.4898
    SETDIJ:  cpu time    0.5080: real time    0.5080
     EDDAV:  cpu time   79.9963: real time   80.0099
       DOS:  cpu time    0.0019: real time    0.0019
    CHARGE:  cpu time    3.2209: real time    3.2211
    MIXING:  cpu time    0.0427: real time    0.0427
    --------------------------------------------
      LOOP:  cpu time   84.2587: real time   84.2734

 eigenvalue-minimisations  :  6112
 total energy-change (2. order) :-0.3585099E-04  (-0.4865462E-04)
 number of electron     511.9999998 magnetization 
 augmentation part      -29.4996709 magnetization 

 Broyden mixing:
  rms(total) = 0.18260E-02    rms(broyden)= 0.18260E-02
  rms(prec ) = 0.21861E-02
  weight for this iteration     100.00

 eigenvalues of (default mixing * dielectric matrix)
  average eigenvalue GAMMA=   1.8388
  3.1992  2.7003  1.7697  1.7697  0.8962  1.2683  1.2683

 Free energy of the ion-electron system (eV)
  ---------------------------------------------------
  alpha Z        PSCENC =       210.77028614
  Ewald energy   TEWEN  =    -14460.05879337
  -Hartree energ DENC   =     -1007.60453181
  -exchange      EXHF   =         0.00000000
  -V(xc)+E(xc)   XCENC  =     -1155.55890212
  PAW double counting   =      4738.31029838    -2500.23489831
  entropy T*S    EENTRO =        -0.00000000
  eigenvalues    EBANDS =       304.98386020
  atomic energy  EATOM  =     13192.48085998
  Solvation  Ediel_sol  =         0.00000000
  ---------------------------------------------------
  free energy    TOTEN  =      -676.91182090 eV

  energy without entropy =     -676.91182090  energy(sigma->0) =     -676.91182090


--------------------------------------------------------------------------------------------------------




--------------------------------------- Iteration      1(  13)  ---------------------------------------


    POTLOK:  cpu time    0.4906: real time    0.4910
    SETDIJ:  cpu time    0.5073: real time    0.5074
     EDDAV:  cpu time   76.9456: real time   76.9595
       DOS:  cpu time    0.0011: real time    0.0011
    CHARGE:  cpu time    3.1687: real time    3.1689
    MIXING:  cpu time    0.0493: real time    0.0493
    --------------------------------------------
      LOOP:  cpu time   81.1625: real time   81.1772

 eigenvalue-minimisations  :  5808
 total energy-change (2. order) :-0.3621433E-04  (-0.1323527E-04)
 number of electron     511.9999998 magnetization 
 augmentation part      -29.4994609 magnetization 

 Broyden mixing:
  rms(total) = 0.60608E-03    rms(broyden)= 0.60606E-03
  rms(prec ) = 0.78508E-03
  weight for this iteration     100.00

 eigenvalues of (default mixing * dielectric matrix)
  average eigenvalue GAMMA=   1.7691
  3.1567  2.5782  1.9197  1.9197  1.3590  1.3590  0.9300  0.9300

 Free energy of the ion-electron system (eV)
  ---------------------------------------------------
  alpha Z        PSCENC =       210.77028614
  Ewald energy   TEWEN  =    -14460.05879337
  -Hartree energ DENC   =     -1007.62810827
  -exchange      EXHF   =         0.00000000
  -V(xc)+E(xc)   XCENC  =     -1155.56801269
  PAW double counting   =      4737.75577770    -2499.67045820
  entropy T*S    EENTRO =        -0.00000000
  eigenvalues    EBANDS =       305.00659158
  atomic energy  EATOM  =     13192.48085998
  Solvation  Ediel_sol  =         0.00000000
  ---------------------------------------------------
  free energy    TOTEN  =      -676.91185712 eV

  energy without entropy =     -676.91185712  energy(sigma->0) =     -676.91185712


--------------------------------------------------------------------------------------------------------




--------------------------------------- Iteration      1(  14)  ---------------------------------------


    POTLOK:  cpu time    0.4887: real time    0.4895
    SETDIJ:  cpu time    0.5076: real time    0.5096
     EDDAV:  cpu time   79.9738: real time   79.9814
       DOS:  cpu time    0.0011: real time    0.0011
    CHARGE:  cpu time    3.1718: real time    3.1721
    MIXING:  cpu time    0.0411: real time    0.0411
    --------------------------------------------
      LOOP:  cpu time   84.1841: real time   84.1947

 eigenvalue-minimisations  :  6096
 total energy-change (2. order) :-0.1357937E-05  (-0.9259179E-06)
 number of electron     511.9999998 magnetization 
 augmentation part      -29.4994755 magnetization 

 Broyden mixing:
  rms(total) = 0.24150E-03    rms(broyden)= 0.24145E-03
  rms(prec ) = 0.32032E-03
  weight for this iteration     100.00

 eigenvalues of (default mixing * dielectric matrix)
  average eigenvalue GAMMA=   1.7718
  3.2249  2.6093  2.2678  1.6832  1.6832  1.2728  1.2728  0.9249  1.0076

 Free energy of the ion-electron system (eV)
  ---------------------------------------------------
  alpha Z        PSCENC =       210.77028614
  Ewald energy   TEWEN  =    -14460.05879337
  -Hartree energ DENC   =     -1007.65210338
  -exchange      EXHF   =         0.00000000
  -V(xc)+E(xc)   XCENC  =     -1155.56286358
  PAW double counting   =      4737.85855964    -2499.77460031
  entropy T*S    EENTRO =        -0.00000000
  eigenvalues    EBANDS =       305.02679639
  atomic energy  EATOM  =     13192.48085998
  Solvation  Ediel_sol  =         0.00000000
  ---------------------------------------------------
  free energy    TOTEN  =      -676.91185847 eV

  energy without entropy =     -676.91185847  energy(sigma->0) =     -676.91185847


--------------------------------------------------------------------------------------------------------




--------------------------------------- Iteration      1(  15)  ---------------------------------------


    POTLOK:  cpu time    0.4886: real time    0.4898
    SETDIJ:  cpu time    0.5092: real time    0.5093
     EDDAV:  cpu time   78.8083: real time   78.8215
       DOS:  cpu time    0.0015: real time    0.0015
    CHARGE:  cpu time    3.1755: real time    3.1788
    MIXING:  cpu time    0.0393: real time    0.0393
    --------------------------------------------
      LOOP:  cpu time   83.0225: real time   83.0400

 eigenvalue-minimisations  :  6000
 total energy-change (2. order) :-0.5249127E-05  (-0.2643595E-06)
 number of electron     511.9999998 magnetization 
 augmentation part      -29.4992775 magnetization 

 Broyden mixing:
  rms(total) = 0.72756E-04    rms(broyden)= 0.72612E-04
  rms(prec ) = 0.96641E-04
  weight for this iteration     100.00

 eigenvalues of (default mixing * dielectric matrix)
  average eigenvalue GAMMA=   1.7130
  3.2468  2.5992  2.1812  1.7052  1.7052  1.3998  1.3998  1.0375  0.9274  0.9274

 Free energy of the ion-electron system (eV)
  ---------------------------------------------------
  alpha Z        PSCENC =       210.77028614
  Ewald energy   TEWEN  =    -14460.05879337
  -Hartree energ DENC   =     -1007.68975587
  -exchange      EXHF   =         0.00000000
  -V(xc)+E(xc)   XCENC  =     -1155.56016166
  PAW double counting   =      4737.96938314    -2499.88881172
  entropy T*S    EENTRO =        -0.00000000
  eigenvalues    EBANDS =       305.06512962
  atomic energy  EATOM  =     13192.48085998
  Solvation  Ediel_sol  =         0.00000000
  ---------------------------------------------------
  free energy    TOTEN  =      -676.91186372 eV

  energy without entropy =     -676.91186372  energy(sigma->0) =     -676.91186372


--------------------------------------------------------------------------------------------------------




--------------------------------------- Iteration      1(  16)  ---------------------------------------


    POTLOK:  cpu time    0.4888: real time    0.4901
    SETDIJ:  cpu time    0.5130: real time    0.5130
     EDDAV:  cpu time   81.1187: real time   81.1314
       DOS:  cpu time    0.0017: real time    0.0017
    CHARGE:  cpu time    3.1304: real time    3.1305
    MIXING:  cpu time    0.0493: real time    0.0493
    --------------------------------------------
      LOOP:  cpu time   85.3018: real time   85.3160

 eigenvalue-minimisations  :  6224
 total energy-change (2. order) : 0.5119291E-06  (-0.1955930E-07)
 number of electron     511.9999998 magnetization 
 augmentation part      -29.4992853 magnetization 

 Broyden mixing:
  rms(total) = 0.40469E-04    rms(broyden)= 0.40210E-04
  rms(prec ) = 0.52742E-04
  weight for this iteration     100.00

 eigenvalues of (default mixing * dielectric matrix)
  average eigenvalue GAMMA=   1.7252
  3.3026  2.6478  2.0939  2.0939  1.5120  1.5120  1.4684  0.9078  1.2949  1.0717
  1.0717

 Free energy of the ion-electron system (eV)
  ---------------------------------------------------
  alpha Z        PSCENC =       210.77028614
  Ewald energy   TEWEN  =    -14460.05879337
  -Hartree energ DENC   =     -1007.68744446
  -exchange      EXHF   =         0.00000000
  -V(xc)+E(xc)   XCENC  =     -1155.56032805
  PAW double counting   =      4737.96118116    -2499.88021009
  entropy T*S    EENTRO =        -0.00000000
  eigenvalues    EBANDS =       305.06258548
  atomic energy  EATOM  =     13192.48085998
  Solvation  Ediel_sol  =         0.00000000
  ---------------------------------------------------
  free energy    TOTEN  =      -676.91186321 eV

  energy without entropy =     -676.91186321  energy(sigma->0) =     -676.91186321


--------------------------------------------------------------------------------------------------------




--------------------------------------- Iteration      1(  17)  ---------------------------------------


    POTLOK:  cpu time    0.4898: real time    0.4903
    SETDIJ:  cpu time    0.5051: real time    0.5051
     EDDAV:  cpu time   73.9683: real time   73.9801
       DOS:  cpu time    0.0011: real time    0.0011
    CHARGE:  cpu time    3.1018: real time    3.1032
    MIXING:  cpu time    0.0484: real time    0.0484
    --------------------------------------------
      LOOP:  cpu time   78.1146: real time   78.1284

 eigenvalue-minimisations  :  5512
 total energy-change (2. order) : 0.2687229E-06  (-0.5116801E-08)
 number of electron     511.9999998 magnetization 
 augmentation part      -29.4992944 magnetization 

 Broyden mixing:
  rms(total) = 0.15046E-04    rms(broyden)= 0.14334E-04
  rms(prec ) = 0.17200E-04
  weight for this iteration     100.00

 eigenvalues of (default mixing * dielectric matrix)
  average eigenvalue GAMMA=   1.6873
  3.2887  2.6306  2.1305  2.1305  1.6175  1.6175  1.4405  1.4405  0.9385  0.9385
  1.0370  1.0370

 Free energy of the ion-electron system (eV)
  ---------------------------------------------------
  alpha Z        PSCENC =       210.77028614
  Ewald energy   TEWEN  =    -14460.05879337
  -Hartree energ DENC   =     -1007.68562116
  -exchange      EXHF   =         0.00000000
  -V(xc)+E(xc)   XCENC  =     -1155.56046111
  PAW double counting   =      4737.95887214    -2499.87765984
  entropy T*S    EENTRO =        -0.00000000
  eigenvalues    EBANDS =       305.06065427
  atomic energy  EATOM  =     13192.48085998
  Solvation  Ediel_sol  =         0.00000000
  ---------------------------------------------------
  free energy    TOTEN  =      -676.91186294 eV

  energy without entropy =     -676.91186294  energy(sigma->0) =     -676.91186294


--------------------------------------------------------------------------------------------------------




--------------------------------------- Iteration      1(  18)  ---------------------------------------


    POTLOK:  cpu time    0.4881: real time    0.4890
    SETDIJ:  cpu time    0.5060: real time    0.5061
     EDDAV:  cpu time   52.2517: real time   52.2564
       DOS:  cpu time    0.0015: real time    0.0015
    CHARGE:  cpu time    3.1205: real time    3.1206
    MIXING:  cpu time    0.0403: real time    0.0403
    --------------------------------------------
      LOOP:  cpu time   56.4081: real time   56.4138

 eigenvalue-minimisations  :  3336
 total energy-change (2. order) :-0.1342742E-06  (-0.6977203E-09)
 number of electron     511.9999998 magnetization 
 augmentation part      -29.4992906 magnetization 

 Broyden mixing:
  rms(total) = 0.74901E-05    rms(broyden)= 0.59319E-05
  rms(prec ) = 0.75545E-05
  weight for this iteration     100.00
  WARNING: grid for Broyden might be to small

 eigenvalues of (default mixing * dielectric matrix)
  average eigenvalue GAMMA=   1.7203
  3.3096  2.7121  2.5652  2.0950  1.7863  1.7863  1.3549  1.3549  0.9180  0.9727
  1.1070  1.2009  1.2009

 Free energy of the ion-electron system (eV)
  ---------------------------------------------------
  alpha Z        PSCENC =       210.77028614
  Ewald energy   TEWEN  =    -14460.05879337
  -Hartree energ DENC   =     -1007.68629662
  -exchange      EXHF   =         0.00000000
  -V(xc)+E(xc)   XCENC  =     -1155.56035720
  PAW double counting   =      4737.96357619    -2499.88244632
  entropy T*S    EENTRO =        -0.00000000
  eigenvalues    EBANDS =       305.06130811
  atomic energy  EATOM  =     13192.48085998
  Solvation  Ediel_sol  =         0.00000000
  ---------------------------------------------------
  free energy    TOTEN  =      -676.91186308 eV

  energy without entropy =     -676.91186308  energy(sigma->0) =     -676.91186308


--------------------------------------------------------------------------------------------------------




--------------------------------------- Iteration      1(  19)  ---------------------------------------


    POTLOK:  cpu time    0.4894: real time    0.4927
    SETDIJ:  cpu time    0.5059: real time    0.5059
     EDDAV:  cpu time   51.6155: real time   51.6343
       DOS:  cpu time    0.0010: real time    0.0010
    --------------------------------------------
      LOOP:  cpu time   52.6117: real time   52.6338

 eigenvalue-minimisations  :  3272
 total energy-change (2. order) :-0.2753950E-08  (-0.1672823E-09)
 number of electron     511.9999998 magnetization 
 augmentation part      -29.4992906 magnetization 

 Free energy of the ion-electron system (eV)
  ---------------------------------------------------
  alpha Z        PSCENC =       210.77028614
  Ewald energy   TEWEN  =    -14460.05879337
  -Hartree energ DENC   =     -1007.68640858
  -exchange      EXHF   =         0.00000000
  -V(xc)+E(xc)   XCENC  =     -1155.56034057
  PAW double counting   =      4737.96441027    -2499.88327782
  entropy T*S    EENTRO =        -0.00000000
  eigenvalues    EBANDS =       305.06140087
  atomic energy  EATOM  =     13192.48085998
  Solvation  Ediel_sol  =         0.00000000
  ---------------------------------------------------
  free energy    TOTEN  =      -676.91186308 eV

  energy without entropy =     -676.91186308  energy(sigma->0) =     -676.91186308


--------------------------------------------------------------------------------------------------------




 average (electrostatic) potential at core
  the test charge radii are     0.9892
  (the norm of the test charge is              1.0000)
       1 -83.4013       2 -83.5752       3 -83.5107       4 -83.4396       5 -83.5024
       6 -83.5278       7 -83.5538       8 -83.5095       9 -83.4796      10 -83.4863
      11 -83.3972      12 -83.4572      13 -83.4423      14 -83.6271      15 -83.3836
      16 -83.5081      17 -83.4829      18 -83.5347      19 -83.5850      20 -83.4516
      21 -83.5773      22 -83.4882      23 -83.6293      24 -83.6498      25 -83.4376
      26 -83.4693      27 -83.5254      28 -83.5786      29 -83.6283      30 -83.5884
      31 -83.6265      32 -83.6212      33 -83.6161      34 -83.4833      35 -83.4705
      36 -83.4683      37 -83.5171      38 -83.5883      39 -83.5027      40 -83.6239
      41 -83.4974      42 -83.5033      43 -83.5722      44 -83.6525      45 -83.6236
      46 -83.5366      47 -83.6181      48 -83.4761      49 -83.5129      50 -83.5058
      51 -83.5283      52 -83.6014      53 -83.3011      54 -83.5585      55 -83.4526
      56 -83.4229      57 -83.4226      58 -83.4342      59 -83.5438      60 -83.4797
      61 -83.6345      62 -83.5247      63 -83.4965      64 -83.5292      65 -83.5026
      66 -83.4596      67 -83.5666      68 -83.4185      69 -83.5383      70 -83.5162
      71 -83.4898      72 -83.4614      73 -83.3511      74 -83.4707      75 -83.4763
      76 -83.4636      77 -83.3828      78 -83.5038      79 -83.6781      80 -83.5793
      81 -83.5195      82 -83.5538      83 -83.6155      84 -83.4871      85 -83.4713
      86 -83.4860      87 -83.6497      88 -83.6365      89 -83.4746      90 -83.5255
      91 -83.5814      92 -83.5714      93 -83.6372      94 -83.6244      95 -83.5523
      96 -83.5614      97 -83.4994      98 -83.5261      99 -83.4840     100 -83.6405
     101 -83.4399     102 -83.5914     103 -83.5782     104 -83.5104     105 -83.5212
     106 -83.3698     107 -83.4708     108 -83.5427     109 -83.5931     110 -83.4846
     111 -83.5914     112 -83.5733     113 -83.4086     114 -83.5668     115 -83.3935
     116 -83.5478     117 -83.4732     118 -83.5705     119 -83.5915     120 -83.4379
     121 -83.4440     122 -83.4853     123 -83.4879     124 -83.3682     125 -83.5549
     126 -83.5980     127 -83.4794     128 -83.5139
 
 
 
 E-fermi :   5.9635     XC(G=0):  -9.3317     alpha+bet :-11.7321


 k-point     1 :       0.0000    0.0000    0.0000
  band No.  band energies     occupation 
      1      -6.3027      2.00000
      2      -5.6794      2.00000
      3      -5.6081      2.00000
      4      -5.6026      2.00000
      5      -5.5753      2.00000
      6      -5.5603      2.00000
      7      -5.4939      2.00000
      8      -5.4580      2.00000
      9      -5.3984      2.00000
     10      -5.3481      2.00000
     11      -5.2748      2.00000
     12      -5.2586      2.00000
     13      -5.2393      2.00000
     14      -5.1156      2.00000
     15      -5.0868      2.00000
     16      -4.6113      2.00000
     17      -4.4905      2.00000
     18      -4.4661      2.00000
     19      -4.3936      2.00000
     20      -4.3626      2.00000
     21      -4.3400      2.00000
     22      -4.3357      2.00000
     23      -4.2786      2.00000
     24      -4.2337      2.00000
     25      -4.2127      2.00000
     26      -4.1927      2.00000
     27      -4.1432      2.00000
     28      -4.1102      2.00000
     29      -4.0354      2.00000
     30      -4.0223      2.00000
     31      -3.9880      2.00000
     32      -3.8647      2.00000
     33      -3.8325      2.00000
     34      -3.8201      2.00000
     35      -3.7835      2.00000
     36      -3.7716      2.00000
     37      -3.6974      2.00000
     38      -3.6797      2.00000
     39      -3.6369      2.00000
     40      -3.6348      2.00000
     41      -3.6247      2.00000
     42      -3.5875      2.00000
     43      -3.5799      2.00000
     44      -3.5433      2.00000
     45      -3.5235      2.00000
     46      -3.5033      2.00000
     47      -3.4731      2.00000
     48      -3.4687      2.00000
     49      -3.4455      2.00000
     50      -3.4210      2.00000
     51      -3.3701      2.00000
     52      -3.3477      2.00000
     53      -3.3240      2.00000
     54      -3.2651      2.00000
     55      -3.2600      2.00000
     56      -2.4200      2.00000
     57      -2.3343      2.00000
     58      -2.2883      2.00000
     59      -2.2520      2.00000
     60      -2.2314      2.00000
     61      -2.2093      2.00000
     62      -2.1969      2.00000
     63      -2.1236      2.00000
     64      -2.0851      2.00000
     65      -2.0616      2.00000
     66      -2.0194      2.00000
     67      -1.9686      2.00000
     68      -1.9525      2.00000
     69      -1.9340      2.00000
     70      -1.8880      2.00000
     71      -1.8356      2.00000
     72      -1.7716      2.00000
     73      -1.7448      2.00000
     74      -1.3849      2.00000
     75      -1.3583      2.00000
     76      -1.2619      2.00000
     77      -1.1946      2.00000
     78      -1.0565      2.00000
     79      -1.0016      2.00000
     80      -0.9472      2.00000
     81      -0.9270      2.00000
     82      -0.9001      2.00000
     83      -0.8909      2.00000
     84      -0.8754      2.00000
     85      -0.8330      2.00000
     86      -0.8253      2.00000
     87      -0.7935      2.00000
     88      -0.7846      2.00000
     89      -0.7791      2.00000
     90      -0.7135      2.00000
     91      -0.6831      2.00000
     92      -0.6643      2.00000
     93      -0.6472      2.00000
     94      -0.6136      2.00000
     95      -0.5829      2.00000
     96      -0.5686      2.00000
     97      -0.5354      2.00000
     98      -0.5107      2.00000
     99      -0.4898      2.00000
    100      -0.3906      2.00000
    101      -0.2986      2.00000
    102      -0.0900      2.00000
    103       0.0078      2.00000
    104       0.0676      2.00000
    105       0.1277      2.00000
    106       0.1378      2.00000
    107       0.1541      2.00000
    108       0.1815      2.00000
    109       0.2188      2.00000
    110       0.2543      2.00000
    111       0.3620      2.00000
    112       0.3679      2.00000
    113       0.3779      2.00000
    114       1.4367      2.00000
    115       1.4796      2.00000
    116       1.5185      2.00000
    117       1.5477      2.00000
    118       1.5747      2.00000
    119       1.5941      2.00000
    120       1.6229      2.00000
    121       1.6277      2.00000
    122       1.6460      2.00000
    123       1.6578      2.00000
    124       1.6845      2.00000
    125       1.6918      2.00000
    126       1.6975      2.00000
    127       1.7224      2.00000
    128       1.7432      2.00000
    129       1.7519      2.00000
    130       1.7641      2.00000
    131       1.7741      2.00000
    132       1.7857      2.00000
    133       1.8083      2.00000
    134       1.8345      2.00000
    135       1.8404      2.00000
    136       1.8577      2.00000
    137       1.8611      2.00000
    138       1.8716      2.00000
    139       1.8910      2.00000
    140       1.9118      2.00000
    141       1.9185      2.00000
    142       1.9199      2.00000
    143       1.9471      2.00000
    144       1.9493      2.00000
    145       1.9684      2.00000
    146       1.9732      2.00000
    147       1.9892      2.00000
    148       2.0021      2.00000
    149       2.0138      2.00000
    150       2.0181      2.00000
    151       2.0553      2.00000
    152       2.0619      2.00000
    153       2.0772      2.00000
    154       2.0963      2.00000
    155       2.1107      2.00000
    156       2.1222      2.00000
    157       2.1329      2.00000
    158       2.1536      2.00000
    159       2.1698      2.00000
    160       2.1763      2.00000
    161       2.1908      2.00000
    162       2.2063      2.00000
[...]
   -.862E+00 -.201E+02 -.107E+01   0.429E+00 0.185E+02 0.617E+00   -.107E+00 0.466E+01 0.257E+00   0.173E-05 0.452E-05 -.451E-05
   -.187E+01 -.168E-02 -.126E+02   0.253E+01 -.731E+00 0.115E+02   0.247E-01 0.892E+00 0.382E+01   0.195E-05 -.283E-05 0.176E-05
   -.752E+01 0.612E+01 0.684E+01   0.680E+01 -.566E+01 -.572E+01   0.162E+01 -.122E+01 -.109E+01   0.127E-05 -.479E-05 0.449E-05
   -.122E+02 -.119E+02 -.122E+01   0.113E+02 0.109E+02 0.137E+01   0.247E+01 0.105E+01 -.485E+00   0.800E-05 0.772E-05 -.270E-05
   -.931E+00 -.871E+01 0.131E+02   0.103E+01 0.807E+01 -.120E+02   -.693E+00 0.131E+01 -.296E+01   0.130E-05 0.339E-05 -.515E-05
   0.611E+00 0.308E+01 -.119E+01   -.260E+00 -.271E+01 0.950E+00   -.176E+01 -.594E+00 0.473E+00   0.296E-05 0.240E-05 -.246E-05
   -.184E+00 -.219E+01 -.645E+01   0.123E+00 0.200E+01 0.580E+01   0.889E-01 0.249E+00 0.134E+01   0.409E-06 0.453E-05 -.165E-05
   -.209E+01 0.242E+01 -.598E+00   0.116E+01 -.230E+01 0.361E+00   0.147E+01 0.159E+01 0.774E+00   -.230E-05 -.890E-07 -.722E-06
   -.252E+01 0.813E+01 -.161E+01   0.222E+01 -.767E+01 0.130E+01   0.164E+00 -.147E+01 -.144E+01   0.176E-06 -.123E-05 -.306E-06
   -.128E+02 0.277E+01 0.120E+02   0.122E+02 -.232E+01 -.108E+02   0.284E+01 -.121E+01 -.228E+01   0.537E-05 -.173E-05 -.756E-05
   0.156E+01 -.669E+01 0.768E+01   -.146E+01 0.672E+01 -.724E+01   0.568E+00 0.480E+00 -.665E+00   -.783E-06 0.677E-05 -.385E-05
   0.425E+01 0.327E+01 -.119E+02   -.346E+01 -.262E+01 0.108E+02   -.210E+01 -.182E+01 0.391E+01   0.200E-05 0.144E-05 0.408E-05
   -.395E+00 -.102E+01 0.524E+01   0.816E+00 0.215E+00 -.434E+01   -.107E+01 0.325E+00 -.145E+01   0.687E-05 0.992E-06 -.642E-07
   -.229E+02 0.247E+00 0.930E+01   0.211E+02 -.229E+00 -.909E+01   0.552E+01 -.127E+01 -.212E+01   0.599E-05 -.228E-05 -.246E-05
   0.113E+01 0.384E+00 0.705E+01   -.808E+00 0.586E+00 -.657E+01   -.382E+00 -.126E+01 -.118E+01   0.178E-05 0.438E-05 -.187E-05
   0.396E+01 -.138E+02 -.512E+01   -.410E+01 0.126E+02 0.479E+01   0.209E+00 0.323E+01 0.674E+00   -.166E-05 0.573E-05 0.178E-05
   0.222E+01 -.444E+01 0.588E+00   -.211E+01 0.351E+01 -.436E+00   0.765E+00 0.126E+01 0.150E+00   0.218E-06 -.553E-07 -.288E-05
   0.346E+01 0.161E+01 0.434E+01   -.290E+01 -.148E+01 -.410E+01   -.120E+00 -.935E+00 -.151E+01   0.220E-05 -.102E-06 -.311E-05
   -.110E+02 -.138E+01 0.136E+01   0.103E+02 0.869E+00 -.759E+00   0.284E+01 -.197E+00 -.188E+01   0.453E-05 0.322E-05 0.170E-05
   0.160E+00 -.455E-01 -.852E+01   -.180E+00 0.281E+00 0.809E+01   0.400E+00 -.872E+00 0.145E+01   -.149E-06 0.153E-05 -.366E-06
   0.124E+02 0.269E+01 0.862E+01   -.109E+02 -.301E+01 -.812E+01   -.272E+01 -.222E+00 -.171E+01   -.178E-05 -.158E-05 -.386E-05
   -.313E+01 0.834E+01 -.468E+01   0.282E+01 -.772E+01 0.469E+01   0.187E+01 -.244E+01 0.763E+00   -.171E-05 -.922E-06 -.222E-05
   0.480E+01 0.113E+02 -.673E+01   -.399E+01 -.103E+02 0.613E+01   -.112E+01 -.314E+01 0.145E+01   0.125E-06 -.178E-05 0.735E-06
   -.160E+02 0.269E+01 -.305E+01   0.137E+02 -.256E+01 0.244E+01   0.594E+01 0.690E+00 0.187E+01   -.115E-05 -.518E-05 -.292E-05
   0.848E+00 -.106E+02 -.171E+01   -.886E+00 0.938E+01 0.220E+01   0.445E+00 0.319E+01 -.320E+00   -.410E-05 0.327E-05 0.763E-05
   0.925E+01 -.794E+01 -.541E+01   -.787E+01 0.694E+01 0.460E+01   -.178E+01 0.267E+01 0.823E+00   -.432E-06 0.191E-05 0.717E-06
   -.964E+01 0.139E+01 0.114E+02   0.865E+01 -.184E+01 -.106E+02   0.297E+01 -.472E+00 -.193E+01   0.287E-05 -.239E-05 -.351E-05
   0.228E+01 0.494E+01 -.166E+02   -.217E+01 -.441E+01 0.149E+02   -.116E+01 -.136E+01 0.456E+01   0.353E-06 -.437E-05 0.960E-05
   0.666E+00 0.524E+01 -.123E+02   -.106E+01 -.445E+01 0.112E+02   0.871E+00 -.144E+01 0.310E+01   -.377E-05 -.543E-05 0.231E-05
   -.147E+01 0.349E+01 0.110E+01   0.999E+00 -.282E+01 -.131E+01   0.155E+01 -.627E+00 -.846E+00   0.948E-06 0.310E-05 0.489E-06
   0.761E+01 0.699E+01 0.831E+01   -.643E+01 -.636E+01 -.760E+01   -.126E+01 -.181E+01 -.188E+01   -.282E-05 -.211E-05 -.317E-06
   0.184E+01 0.255E+01 -.123E+02   -.158E+01 -.203E+01 0.112E+02   0.558E+00 -.244E+01 0.221E+01   -.247E-05 -.568E-06 0.364E-05
   0.832E+01 0.951E+01 -.468E+01   -.746E+01 -.829E+01 0.418E+01   -.498E+00 -.229E+01 0.884E+00   -.171E-05 -.466E-05 0.230E-06
   -.793E+01 0.103E+02 -.228E+01   0.703E+01 -.956E+01 0.222E+01   0.156E+01 -.193E+01 0.186E+01   0.240E-05 -.135E-05 0.140E-05
   0.212E+00 0.443E+01 -.291E+01   0.151E+00 -.444E+01 0.343E+01   0.577E-02 -.116E+01 -.771E-01   0.225E-06 -.172E-05 0.465E-05
   0.106E+02 0.105E+02 0.810E+01   -.946E+01 -.950E+01 -.718E+01   -.211E+01 -.314E+01 -.115E+01   -.371E-05 -.511E-05 -.451E-05
   -.393E+01 -.166E+02 -.418E+00   0.327E+01 0.151E+02 0.156E+00   0.125E+01 0.387E+01 0.571E+00   -.350E-05 0.414E-05 0.191E-05
   -.121E+02 -.315E+01 0.119E+01   0.116E+02 0.295E+01 -.402E+00   0.334E+01 -.582E+00 -.105E+01   -.967E-06 0.405E-05 0.329E-05
   0.758E+01 0.989E+01 0.463E+01   -.591E+01 -.959E+01 -.428E+01   -.314E+01 -.259E-01 0.541E-01   0.988E-06 -.547E-05 -.621E-05
   -.136E+01 -.479E+01 -.467E+01   0.115E+01 0.400E+01 0.402E+01   0.601E+00 0.165E+01 0.107E+01   -.921E-06 -.109E-05 -.289E-05
   0.701E+01 0.490E+01 0.236E+01   -.543E+01 -.432E+01 -.211E+01   -.326E+01 -.165E+01 -.563E+00   -.341E-05 0.189E-05 0.448E-05
   0.118E+02 -.246E+01 -.875E+01   -.110E+02 0.196E+01 0.757E+01   -.280E+01 -.430E+00 0.309E+01   -.259E-05 0.415E-06 0.271E-05
   -.711E+01 0.450E+01 -.908E+01   0.624E+01 -.464E+01 0.750E+01   0.154E+01 0.176E+00 0.322E+01   0.132E-05 -.805E-05 -.489E-06
   -.921E+01 -.237E+01 0.258E+01   0.842E+01 0.241E+01 -.198E+01   0.975E+00 -.306E+00 -.186E+01   0.320E-05 -.123E-05 0.587E-05
   -.497E+01 0.331E+01 0.356E+01   0.452E+01 -.252E+01 -.300E+01   0.496E+00 -.139E+01 -.756E+00   0.879E-07 -.137E-05 0.890E-06
   0.440E+01 0.136E+01 0.592E+01   -.456E+01 -.838E+00 -.590E+01   -.894E+00 -.206E+00 -.565E+00   -.192E-05 -.154E-05 -.592E-06
   -.898E+01 -.637E+01 0.405E+01   0.768E+01 0.578E+01 -.391E+01   0.256E+01 0.116E+01 -.398E+00   0.545E-06 0.189E-05 0.140E-05
   0.804E+01 0.107E+02 0.132E+01   -.762E+01 -.945E+01 -.962E+00   -.134E+01 -.391E+01 0.806E+00   -.482E-05 -.303E-05 0.399E-07
   0.117E+02 -.149E+01 0.106E+02   -.107E+02 0.165E+01 -.880E+01   -.270E+01 0.741E+00 -.377E+01   -.140E-05 0.560E-06 0.340E-05
   0.157E+01 0.411E+01 0.356E+00   -.644E+00 -.371E+01 -.131E+00   -.851E+00 -.105E+01 -.607E-01   -.109E-05 -.271E-05 0.181E-05
   -.818E+01 -.293E+01 -.490E+01   0.746E+01 0.230E+01 0.469E+01   0.189E+01 0.121E+01 0.170E+01   0.265E-06 -.296E-05 0.982E-06
   0.975E+00 0.528E+01 -.470E+01   -.886E+00 -.504E+01 0.402E+01   0.126E+01 -.969E+00 0.213E+01   -.187E-05 -.439E-05 -.315E-05
   0.892E+01 -.766E+00 -.883E+01   -.764E+01 0.765E+00 0.800E+01   -.340E+01 -.128E+00 0.198E+00   -.467E-05 0.342E-05 0.779E-05
 -----------------------------------------------------------------------------------------------
   -.210E+00 -.334E+00 0.195E+00   0.586E-13 0.169E-13 0.355E-13   0.210E+00 0.334E+00 -.195E+00   -.998E-06 -.140E-05 0.414E-06
 
 
 POSITION                                       TOTAL-FORCE (eV/Angst)
 -----------------------------------------------------------------------------------
      0.15714     10.97509     11.02802        -1.458448      0.167131     -0.179304
     21.65439     13.81507     13.84330         1.728387     -0.292831     -1.866556
     10.90505     16.22235      5.53329         0.779182      2.303271      0.022161
     21.75126     19.24168     19.22661         1.584240     -0.785758     -1.299710
     13.79206     21.60944     13.57664        -0.879848      4.627831      0.776135
      2.74423      2.74570      5.47947        -0.923640      0.803219     -0.316001
      2.77937      5.49879      8.10152         0.688018     -1.343060      1.798801
      2.83553      8.17601     10.90593        -0.834826      0.139386     -0.022480
     16.25003     11.10621      5.60800         1.027462     -1.405723     -0.648684
      5.39980      2.83595      8.20705         0.418595     -1.077847      0.105767
     16.35636     16.33976     11.01929         1.331140     -0.027163     -1.339197
     16.47231     19.14405     13.83444        -0.879423     -1.372577     -1.873809
     19.10168     11.06179      8.40236        -0.906536     -1.149646     -1.710217
      8.18811      2.89734     11.01069         0.393894     -1.061341     -0.827700
     19.25085     16.37103     13.76264        -1.379972      1.100926     -0.648364
     19.05385     19.12680     16.44564         2.094561      0.948480      0.801050
     13.70051     13.60611     21.72718         0.480733      1.626562      1.336158
      2.75925      5.39302      2.65164        -0.126472     -0.025638      0.053791
     13.57925      8.22037     16.38144         0.363695     -0.718504     -0.601840
     13.68042     11.02065     19.04300         0.586760     -1.838288      1.169516
      5.44115      2.60418      2.85927         1.247355      1.266617     -0.989805
      5.62789      5.46412      5.45288        -2.198373      0.528836     -0.045954
      5.60249      8.18007      8.29337        -1.262755     -0.196243     -0.457361
      5.42356     10.82036     10.88755         1.709409      0.553324      0.199082
      8.34160     13.65533     16.55869        -1.332766      0.221737     -1.179304
      8.09503      5.49216      8.16001        -0.151293      1.644295      1.719259
      8.29837      8.13597     11.06425        -1.149224     -0.031972     -1.471866
      8.09156     10.93614     13.64594         0.559794     -1.418687      0.291198
     11.00708     13.49588     19.25742        -0.289983      2.376359     -0.699738
     10.99556      5.54474     10.94966        -0.927519      0.086073      0.470181
     11.06028      8.15965     13.66572        -1.794170     -0.000073      1.350224
     10.93143     10.95159     16.24849        -0.420917      0.425049      1.662978
      5.46346      5.44477      0.15278         0.327882     -0.077511     -2.300585
     16.37467      8.16210     13.61251        -0.746597      2.021291      0.891374
     16.40688     11.10141     16.48212        -1.909865     -2.554388     -1.471238
     16.31973     13.55123     19.10029        -0.296520      0.584594      0.952017
      8.34498     16.47898     13.65935        -2.253481     -0.702790     -0.415159
      8.21416      8.20714      5.52645        -0.445875      0.632718     -0.832394
      8.26613     10.96956      8.34082        -0.569437      1.666463     -1.808987
      8.28737     13.75054     10.95508        -0.503000     -1.422120     -1.022159
     11.04060     16.51931     16.25428        -0.968847     -1.474981      2.244331
     10.94285      8.11933      8.11357        -0.834214      1.812339      1.241903
     11.06167     10.87340     10.92563        -1.730582     -0.014420      0.216040
     10.98906     13.62011     13.61281        -1.890583      1.194007      0.243828
     13.65142      5.43352      8.31612        -0.283254     -1.113854     -1.307975
     13.80538      8.14256     10.77550        -1.031262      0.693337      1.412392
     13.70991     10.83160     13.66573         0.229608      2.002711     -0.287785
     13.69619     13.69644     16.41008        -1.098559      0.462344     -0.458557
      8.27467     19.00496     10.99035        -0.772230      1.311983     -1.091205
      8.21461     10.78334      2.73042        -0.236294      2.317365      0.031241
      8.25818     13.70501      5.58105        -2.333397     -1.505424     -2.216592
     19.18337     16.41676     18.93801         0.103694     -0.899397      2.831934
     10.97070     19.05896     13.64337        -0.562484      1.133499     -0.185897
     11.06126     11.07464      5.44208        -0.445116     -2.267444     -0.419697
     10.73775     13.66071      8.12284         3.074738      0.889505     -0.026902
     10.85268     16.47365     10.82200         2.012266      0.092198      0.519250
     13.59721     19.05952     16.41066         0.475803      0.670322      0.847162
     13.72587     10.93880      8.30595        -0.722390     -0.452319     -1.497198
     13.54588     13.39258     10.91562         1.034213      3.190773     -0.144544
     13.61614     16.27405     13.78203         0.949712      1.538238     -0.990212
     16.43233     19.10290     19.19871         1.106305      1.182590     -0.228956
     16.45958     11.11093     11.04786        -0.765862     -1.210100     -1.264170
     16.50071     13.63236     13.82326        -0.408516      1.142962     -2.228293
     16.51495     16.65002     16.34387         0.574220     -2.269988      2.318355
      1.52038      1.55443      1.35700        -1.369793     -1.583333      1.700146
      1.33862      4.14063      4.10062         0.521044     -0.382352     -0.037845
      1.44596      6.83094      6.94570        -2.300645      0.832675     -1.105127
      1.27555      9.54324      9.53520         1.809129      1.002961      0.691930
      4.02262      1.46890      4.12917        -0.530927     -2.552855     -0.261891
      4.13695      4.09279      6.73463         0.095040      0.910494      0.248587
      4.19073      6.74437      9.63751        -0.332194      0.589084     -0.892822
      4.15541      9.54824     12.32916         1.792544     -2.151281     -1.154184
      6.84683      1.40144      6.84923        -0.237256      0.143659      0.832801
      6.87584      4.10207      9.50701        -1.213456      0.285004      1.031192
      6.85279      6.71470     12.23948         0.204315      0.839701      1.867831
      6.81064      9.44971     15.16776        -0.540892      3.047484     -0.195940
      9.56020      1.38496      9.55732         0.683147      0.159441      2.734192
      9.54357      4.26162     12.29934         0.906187     -0.751712      0.026263
      9.50064      6.82223     15.17497         1.500073     -0.010285     -0.328237
      9.53548      9.64570     17.93827        -0.588970      0.671134     -1.864805
      4.23046      3.96927      1.36446        -1.409061     -0.218018      0.235054
      4.08686      6.78074      4.03382         0.027932      0.059096      0.689071
      4.10016      9.39289      6.80389         0.539447      1.710516      0.537874
      4.12913     12.27154      9.66286        -0.132176     -1.010082     -1.751275
      6.79073      4.07268      4.17721         2.240240     -0.749270     -1.014988
      6.78733      6.84426      6.83948         0.671705      0.509617     -0.229082
      7.03035      9.57125      9.44090        -1.303138     -1.172536      2.809531
      6.85942     12.34810     12.29617        -0.645696     -0.482839     -0.552383
      9.36909      4.10828      7.11225         3.668802     -1.248029     -1.909471
      9.57639      6.84420      9.59406        -0.058598     -0.293310     -0.696042
      9.63580      9.41602     12.34102         0.072896      2.022067      0.336908
      9.45608     12.29817     14.95690         0.868640      0.332495      0.302320
     12.25773      4.12601      9.72119         0.437087     -0.806554     -1.272000
     12.28034      6.87501     12.34206         2.112851     -0.703824     -1.277920
     12.28008      9.61907     14.93693         0.380297     -0.637026      1.013574
     12.39574     12.36562     17.77117        -1.181005     -0.545069     -1.209567
      6.73498      6.98329      1.30525         1.552948     -1.825281      0.775759
      6.74986      9.76780      4.07699        -0.313849     -2.218369      0.848004
      6.66814     12.28607      6.85233         3.650983      0.818852      1.253813
      6.78883     14.84201      9.51030         0.406617      1.973076      0.170662
      9.62217      6.79349      4.11267        -0.400137      1.668837      0.008476
      9.45125      9.68224      6.91095         1.966467     -0.922233     -1.183959
      9.71096     12.30660      9.46348        -1.052336     -0.828041      2.854004
      9.57283     15.17730     12.13148         0.476469     -0.648547      1.995079
     12.24902      6.73387      6.92157         1.081857      0.045015     -1.053066
     12.37234      9.57811      9.61812        -0.083341     -1.179372     -1.174533
     12.21624     12.30837     12.28785         0.811335     -1.912281      1.159875
     12.22918     15.01447     15.03103         0.355619     -1.070356      0.376695
     15.05484      6.82060      9.41134         0.668866     -1.150588      1.803432
     15.04113      9.65226     12.18560         0.367880     -1.163878      0.447705
     15.08815     12.47360     15.09509        -0.935027     -2.117515     -0.225438
     15.02404     14.91605     17.75722         0.590258      2.354183      0.309599
      9.42979      9.57186      1.33974         2.812926     -0.783707     -0.262108
      9.62734     12.22224      4.08772        -1.471019      0.274481      0.407870
      9.52215     14.97826      6.80550         0.393787      0.867379      0.424857
      9.62756     17.83001      9.51220        -1.684776     -1.067129     -0.319133
     12.44726      9.55153      3.94827        -2.054025     -0.936191      1.911962
     12.29240     12.37685      6.78456         0.672822      0.032498      1.644672
     12.25035     15.00183      9.63169         0.192242     -0.267163     -1.259114
     12.34990     17.76271     12.29336         0.037339     -0.595381     -0.194324
     15.08777      9.51179      6.91169        -1.054415      0.310952     -0.544156
     15.00683     12.27642      9.59464         1.265469      0.563085     -0.258655
     15.01413     15.11544     12.28474        -0.918480     -2.672539      1.166979
     15.05639     17.73703     15.18101        -1.650297      0.903457     -1.992832
     17.77473      9.62401      9.70044         0.076298     -0.649924      0.164187
     17.80514     12.34824     12.30632         1.172149      0.585203      1.491997
     17.69667     15.17955     14.97168         1.345698     -0.724600      1.442621
     17.92400     17.86360     17.87170        -2.125031     -0.129222     -0.624358
 -----------------------------------------------------------------------------------
    total drift:                               -0.000009      0.000009      0.000000


--------------------------------------------------------------------------------------------------------



  FREE ENERGIE OF THE ION-ELECTRON SYSTEM (eV)
  ---------------------------------------------------
  free  energy   TOTEN  =      -676.91186308 eV

  energy  without entropy=     -676.91186308  energy(sigma->0) =     -676.91186308
 


--------------------------------------------------------------------------------------------------------


    POTLOK:  cpu time    0.9921: real time    0.9921


--------------------------------------------------------------------------------------------------------


     LOOP+:  cpu time 1616.5700: real time 1617.0101
    4ORBIT:  cpu time    0.0000: real time    0.0000

 total amount of memory used by VASP MPI-rank0   221701. kBytes
=======================================================================

   base      :      30000. kBytes
   nonl-proj :      10690. kBytes
   fftplans  :      66746. kBytes
   grid      :      26864. kBytes
   one-center:         24. kBytes
   wavefun   :      87377. kBytes
 
  
  
 General timing and accounting informations for this job:
 ========================================================
  
                  Total CPU time used (sec):     1640.590
                            User time (sec):     1639.242
                          System time (sec):        1.348
                         Elapsed time (sec):     1642.089
  
                   Maximum memory used (kb):      337296.
                   Average memory used (kb):           0.
  
                          Minor page faults:       154545
                          Major page faults:            0
                 Voluntary context switches:         1309
