<?xml version="1.0" encoding="ISO-8859-1"?>
<modeling>
 <generator>
  <i name="program" type="string">vasp </i>
  <i name="version" type="string">5.4.4.18Apr17-6-g9f103f2a35  </i>
  <i name="subversion" type="string">(build Nov 08 2017 09:05:29) complex            parallel </i>
  <i name="platform" type="string">Intel_17.33 </i>
  <i name="date" type="string">2020 07 18 </i>
  <i name="time" type="string">21:11:50 </i>
 </generator>
 <incar>
  <i type="string" name="SYSTEM">potpaw_PBE@./ARUN.APL1ZEROSTATE</i>
  <i type="string" name="PREC">accurate</i>
  <i type="string" name="ALGO">Normal</i>
  <i type="int" name="NSIM">     4</i>
  <i type="logical" name="ADDGRID"> T  </i>
  <i type="int" name="NELM">   120</i>
  <i type="int" name="NELMIN">     4</i>
  <i name="EDIFF">      0.00000001</i>
  <i type="int" name="NSW">     0</i>
  <i type="int" name="ISYM">     2</i>
  <i name="ENMAX">    500.00000000</i>
  <i type="logical" name="LREAL"> F  </i>
  <i type="logical" name="LPLANE"> T  </i>
  <i type="int" name="ISMEAR">     0</i>
  <i name="SIGMA">      0.01000000</i>
  <i type="logical" name="LWAVE"> F  </i>
  <i type="logical" name="LCHARG"> F  </i>
  <i type="logical" name="LELF"> F  </i>
  <i type="logical" name="LAECHG"> F  </i>
  <v type="int" name="KPOINT_BSE">    -1     0     0     0</v>
  <i type="int" name="NELM">   120</i>
 </incar>
 <structure name="primitive_cell" >
  <crystal>
   <varray name="basis" >
    <v>       0.00000000      10.93733369      10.93733369 </v>
    <v>      10.93733369       0.00000000      10.93733369 </v>
    <v>      10.93733369      10.93733369       0.00000000 </v>
   </varray>
   <i name="volume">   2616.76295363 </i>
   <varray name="rec_basis" >
    <v>      -0.04571498       0.04571498       0.04571498 </v>
    <v>       0.04571498      -0.04571498       0.04571498 </v>
    <v>       0.04571498       0.04571498      -0.04571498 </v>
   </varray>
  </crystal>
  <varray name="positions" >
   <v>      -0.00131173       0.00960346       0.00476396 </v>
   <v>      -0.18614099       0.05794417       0.05867907 </v>
   <v>       0.06359188       0.06047884       0.07852949 </v>
   <v>       0.06774108       0.05475168      -0.19258606 </v>
   <v>       0.06318172      -0.18935673       0.06344504 </v>
   <v>      -0.00587203      -0.23342292       0.23980025 </v>
   <v>      -0.01105788      -0.00242701       0.25506412 </v>
   <v>      -0.02197246       0.26328423      -0.00227683 </v>
   <v>      -0.23578153      -0.00633071      -0.00495278 </v>
   <v>      -0.00653886       0.25395167      -0.25090090 </v>
   <v>      -0.25729583       0.25442479       0.00482768 </v>
   <v>      -0.25104102      -0.00785805       0.25865846 </v>
   <v>       0.24225058       0.00739169      -0.25633061 </v>
   <v>       0.01657065      -0.24834331      -0.00519127 </v>
   <v>       0.27447180      -0.00877911      -0.01136087 </v>
   <v>      -0.00704131       0.01188866      -0.25533592 </v>
   <v>       0.26148577      -0.25477922       0.00341820 </v>
   <v>       0.04811676       0.31287343      -0.17482108 </v>
   <v>      -0.18603267       0.06950755       0.30801869 </v>
   <v>       0.30549618       0.06824406      -0.18801687 </v>
   <v>      -0.18983919       0.31709393       0.06283475 </v>
   <v>       0.07266273      -0.18385439       0.30457806 </v>
   <v>      -0.19056323       0.31454425      -0.18539321 </v>
   <v>      -0.17491351      -0.18499092       0.05681949 </v>
   <v>      -0.19017485       0.05987530      -0.17962778 </v>
   <v>      -0.18896833      -0.18621442       0.31955621 </v>
   <v>       0.31312106      -0.18795432      -0.18412211 </v>
   <v>       0.07084523      -0.18393465      -0.19092264 </v>
   <v>       0.32079964      -0.19627121       0.06883983 </v>
   <v>      -0.25556127       0.25100965       0.24486664 </v>
   <v>       0.24939588       0.24817316      -0.23684216 </v>
   <v>      -0.24831004       0.23776490      -0.24550490 </v>
   <v>       0.25137910      -0.25025232       0.25557598 </v>
   <v>       0.26053915      -0.25043410      -0.24466692 </v>
   <v>      -0.25627915      -0.25812221       0.25758239 </v>
   <v>       0.07202154       0.30550791       0.06228002 </v>
   <v>       0.05043574       0.07431675       0.31247434 </v>
   <v>       0.31555347       0.05936611       0.06302424 </v>
   <v>       0.08463841      -0.43436609       0.29098172 </v>
   <v>      -0.43630261       0.07134811       0.06085552 </v>
   <v>       0.05869793       0.31732376      -0.43756941 </v>
   <v>      -0.44700307       0.06908280       0.30579494 </v>
   <v>      -0.44268175       0.32383921       0.05931922 </v>
   <v>       0.32434466       0.04841420      -0.43127488 </v>
   <v>       0.07102100       0.04831774      -0.43253910 </v>
   <v>       0.30780988      -0.43858461       0.06724249 </v>
   <v>       0.06417643      -0.43795149       0.06395692 </v>
   <v>       0.24162237       0.00081705       0.25146128 </v>
   <v>      -0.25339270      -0.00026888       0.49238095 </v>
   <v>       0.00101934       0.26040335       0.23708074 </v>
   <v>       0.00449021      -0.24414759       0.49229668 </v>
   <v>       0.25056134       0.25042638       0.00047810 </v>
   <v>      -0.00007777      -0.49949608      -0.25731134 </v>
   <v>      -0.00010284      -0.48593717       0.24860953 </v>
   <v>      -0.00371767       0.25259126      -0.48960982 </v>
   <v>       0.49750780      -0.23919034      -0.00070513 </v>
   <v>      -0.24542056      -0.48969719      -0.00424010 </v>
   <v>       0.49696542       0.26129717       0.25093802 </v>
   <v>      -0.49610377      -0.00614138       0.24769184 </v>
   <v>      -0.24980219      -0.24982464      -0.49793282 </v>
   <v>       0.49467903       0.24604294       0.00807501 </v>
   <v>      -0.49919661      -0.23694298      -0.25439742 </v>
   <v>       0.25232082       0.25296261       0.49805737 </v>
   <v>      -0.49586091       0.00613590      -0.25109037 </v>
   <v>      -0.24844828      -0.49146131      -0.26361593 </v>
   <v>       0.24685828      -0.00226684       0.49940217 </v>
   <v>      -0.00024630      -0.24441644      -0.25317632 </v>
   <v>       0.25404464       0.49202464       0.24810324 </v>
   <v>      -0.24485276      -0.25152262      -0.00638443 </v>
   <v>      -0.26072514      -0.00777332      -0.23829148 </v>
   <v>       0.31401678       0.30629529      -0.18240168 </v>
   <v>       0.25797855       0.49239129       0.00131257 </v>
   <v>      -0.18696578       0.31120421       0.31595213 </v>
   <v>      -0.19316612      -0.18329237      -0.44306013 </v>
   <v>      -0.18920132       0.29838195      -0.42313831 </v>
   <v>       0.31711263      -0.18867832       0.31146936 </v>
   <v>      -0.18575672      -0.18023401      -0.18097521 </v>
   <v>      -0.18345495      -0.42854572      -0.19484910 </v>
   <v>       0.31369001      -0.43650576       0.31207450 </v>
   <v>       0.32649362       0.30537460      -0.44124673 </v>
   <v>      -0.43390366       0.31452901      -0.19447966 </v>
   <v>      -0.45225205       0.31543346       0.32735113 </v>
   <v>       0.31071237      -0.19658302      -0.42820688 </v>
   <v>      -0.43063966      -0.20050004      -0.18149435 </v>
   <v>      -0.43880675      -0.19550995       0.31827751 </v>
   <v>       0.31379812      -0.43656075      -0.19136515 </v>
   <v>      -0.18631969      -0.44617148       0.31074052 </v>
   <v>      -0.00647695       0.49260483      -0.48316329 </v>
   <v>       0.02121983       0.49151966      -0.00577975 </v>
   <v>       0.49603433       0.00987411      -0.01282582 </v>
   <v>       0.00612982       0.00783843       0.49168541 </v>
   <v>      -0.48905959      -0.00398049      -0.49593895 </v>
   <v>      -0.49701195      -0.49549441      -0.00904453 </v>
   <v>      -0.19708558       0.06661210      -0.44590970 </v>
   <v>      -0.42992249       0.05643080      -0.44676265 </v>
   <v>       0.06429408      -0.43145555      -0.44861702 </v>
   <v>      -0.43377206      -0.44303456      -0.18422409 </v>
   <v>      -0.43946047       0.06168710      -0.19107751 </v>
   <v>      -0.18596126      -0.42725119       0.04994773 </v>
   <v>      -0.44678548      -0.43415959       0.06071038 </v>
   <v>       0.05381066      -0.19333257      -0.43020358 </v>
   <v>       0.06106196      -0.42912663      -0.19139946 </v>
   <v>      -0.18552707      -0.44018660      -0.44170036 </v>
   <v>      -0.42945269      -0.19040403      -0.43008682 </v>
   <v>      -0.42871996      -0.18383273       0.05247609 </v>
   <v>      -0.24613595       0.49378404       0.24602721 </v>
   <v>      -0.49504140       0.23771263      -0.25596084 </v>
   <v>       0.24183479       0.49998874      -0.49948452 </v>
   <v>       0.49212550      -0.24266943       0.25391054 </v>
   <v>      -0.49511210       0.25771325       0.49805828 </v>
   <v>       0.23372655      -0.24852292      -0.48925216 </v>
   <v>       0.49837796      -0.48677430       0.24549370 </v>
   <v>      -0.24944009       0.25106270      -0.49334896 </v>
   <v>       0.25229561      -0.49288254      -0.25216127 </v>
   <v>      -0.25741216      -0.49796871      -0.49730180 </v>
   <v>       0.49314683      -0.24368949       0.49718605 </v>
   <v>       0.30585484       0.30989217       0.06834871 </v>
   <v>       0.30755654       0.06125515       0.31240612 </v>
   <v>       0.06670562       0.31521632       0.30565966 </v>
   <v>       0.49199898      -0.49398450      -0.26751577 </v>
   <v>       0.31526930       0.31006418       0.31050076 </v>
   <v>      -0.24666551      -0.25901540      -0.23102348 </v>
   <v>       0.24179169       0.25676510       0.25779305 </v>
   <v>      -0.44871775       0.31396303      -0.42609064 </v>
   <v>      -0.44587766      -0.42578335       0.30678399 </v>
   <v>       0.31195405      -0.43256930      -0.43622779 </v>
   <v>      -0.43404950      -0.44247294      -0.44059684 </v>
   <v>       0.49085829      -0.49192812      -0.49670352 </v>
  </varray>
 </structure>
 <varray name="primitive_index" >
  <v type="int" >        1 </v>
  <v type="int" >       68 </v>
  <v type="int" >       65 </v>
  <v type="int" >      113 </v>
  <v type="int" >       77 </v>
  <v type="int" >       29 </v>
  <v type="int" >       17 </v>
  <v type="int" >        5 </v>
  <v type="int" >        4 </v>
  <v type="int" >       53 </v>
  <v type="int" >        8 </v>
  <v type="int" >       20 </v>
  <v type="int" >       50 </v>
  <v type="int" >       13 </v>
  <v type="int" >        2 </v>
  <v type="int" >       49 </v>
  <v type="int" >       14 </v>
  <v type="int" >      117 </v>
  <v type="int" >       84 </v>
  <v type="int" >      114 </v>
  <v type="int" >       72 </v>
  <v type="int" >       93 </v>
  <v type="int" >      120 </v>
  <v type="int" >       80 </v>
  <v type="int" >      116 </v>
  <v type="int" >       96 </v>
  <v type="int" >      126 </v>
  <v type="int" >      125 </v>
  <v type="int" >       78 </v>
  <v type="int" >       24 </v>
  <v type="int" >       54 </v>
  <v type="int" >       56 </v>
  <v type="int" >       30 </v>
  <v type="int" >       62 </v>
  <v type="int" >       32 </v>
  <v type="int" >       69 </v>
  <v type="int" >       81 </v>
  <v type="int" >       66 </v>
  <v type="int" >       89 </v>
  <v type="int" >       67 </v>
  <v type="int" >      101 </v>
  <v type="int" >       83 </v>
  <v type="int" >       71 </v>
  <v type="int" >       98 </v>
  <v type="int" >       97 </v>
  <v type="int" >       74 </v>
  <v type="int" >       73 </v>
  <v type="int" >       18 </v>
  <v type="int" >       36 </v>
  <v type="int" >       21 </v>
  <v type="int" >       45 </v>
  <v type="int" >        6 </v>
  <v type="int" >       57 </v>
  <v type="int" >       25 </v>
  <v type="int" >       37 </v>
  <v type="int" >       15 </v>
  <v type="int" >       12 </v>
  <v type="int" >       23 </v>
  <v type="int" >       19 </v>
  <v type="int" >       48 </v>
  <v type="int" >        7 </v>
  <v type="int" >       63 </v>
  <v type="int" >       38 </v>
  <v type="int" >       51 </v>
  <v type="int" >       60 </v>
  <v type="int" >       34 </v>
  <v type="int" >       61 </v>
  <v type="int" >       26 </v>
  <v type="int" >       16 </v>
  <v type="int" >       52 </v>
  <v type="int" >      118 </v>
  <v type="int" >       10 </v>
  <v type="int" >       88 </v>
  <v type="int" >      112 </v>
  <v type="int" >      104 </v>
  <v type="int" >       94 </v>
  <v type="int" >      128 </v>
  <v type="int" >      124 </v>
  <v type="int" >       90 </v>
  <v type="int" >      102 </v>
  <v type="int" >      119 </v>
  <v type="int" >       87 </v>
  <v type="int" >      110 </v>
  <v type="int" >      127 </v>
  <v type="int" >       95 </v>
  <v type="int" >      122 </v>
  <v type="int" >       92 </v>
  <v type="int" >       41 </v>
  <v type="int" >        9 </v>
  <v type="int" >        3 </v>
  <v type="int" >       33 </v>
  <v type="int" >       35 </v>
  <v type="int" >       11 </v>
  <v type="int" >      100 </v>
  <v type="int" >       99 </v>
  <v type="int" >      105 </v>
  <v type="int" >      123 </v>
  <v type="int" >      115 </v>
  <v type="int" >       76 </v>
  <v type="int" >       75 </v>
  <v type="int" >      109 </v>
  <v type="int" >      121 </v>
  <v type="int" >      108 </v>
  <v type="int" >      111 </v>
  <v type="int" >       79 </v>
  <v type="int" >       28 </v>
  <v type="int" >       55 </v>
  <v type="int" >       42 </v>
  <v type="int" >       31 </v>
  <v type="int" >       39 </v>
  <v type="int" >       46 </v>
  <v type="int" >       27 </v>
  <v type="int" >       40 </v>
  <v type="int" >       58 </v>
  <v type="int" >       44 </v>
  <v type="int" >       47 </v>
  <v type="int" >       70 </v>
  <v type="int" >       82 </v>
  <v type="int" >       85 </v>
  <v type="int" >       59 </v>
  <v type="int" >       86 </v>
  <v type="int" >       64 </v>
  <v type="int" >       22 </v>
  <v type="int" >      103 </v>
  <v type="int" >       91 </v>
  <v type="int" >      106 </v>
  <v type="int" >      107 </v>
  <v type="int" >       43 </v>
 </varray>
 <kpoints>
  <generation param="Gamma">
   <v type="int" name="divisions">       2        2        2 </v>
   <v name="usershift">      0.00000000       0.00000000       0.00000000 </v>
   <v name="genvec1">      0.50000000       0.00000000       0.00000000 </v>
   <v name="genvec2">      0.00000000       0.50000000       0.00000000 </v>
   <v name="genvec3">      0.00000000       0.00000000       0.50000000 </v>
   <v name="shift">      0.00000000       0.00000000       0.00000000 </v>
  </generation>
  <varray name="kpointlist" >
   <v>       0.00000000       0.00000000       0.00000000 </v>
   <v>       0.50000000       0.00000000       0.00000000 </v>
   <v>       0.00000000       0.50000000       0.00000000 </v>
   <v>       0.50000000       0.50000000       0.00000000 </v>
   <v>       0.00000000       0.00000000       0.50000000 </v>
   <v>       0.50000000       0.00000000       0.50000000 </v>
   <v>       0.00000000       0.50000000       0.50000000 </v>
   <v>       0.50000000       0.50000000       0.50000000 </v>
  </varray>
  <varray name="weights" >
   <v>       0.12500000 </v>
   <v>       0.12500000 </v>
   <v>       0.12500000 </v>
   <v>       0.12500000 </v>
   <v>       0.12500000 </v>
   <v>       0.12500000 </v>
   <v>       0.12500000 </v>
   <v>       0.12500000 </v>
  </varray>
 </kpoints>
 <parameters>
  <separator name="general" >
   <i type="string" name="SYSTEM">potpaw_PBE@./ARUN.APL1ZEROSTATE</i>
   <i type="logical" name="LCOMPAT"> F  </i>
  </separator>
  <separator name="electronic" >
   <i type="string" name="PREC">accura</i>
   <i name="ENMAX">    500.00000000</i>
   <i name="ENAUG">    322.06900000</i>
   <i name="EDIFF">      0.00000001</i>
   <i type="int" name="IALGO">    38</i>
   <i type="int" name="IWAVPR">    10</i>
   <i type="int" name="NBANDS">   322</i>
   <i name="NELECT">    512.00000000</i>
   <i type="int" name="TURBO">     0</i>
   <i type="int" name="IRESTART">     0</i>
   <i type="int" name="NREBOOT">     0</i>
   <i type="int" name="NMIN">     0</i>
   <i name="EREF">      0.00000000</i>
   <separator name="electronic smearing" >
    <i type="int" name="ISMEAR">     0</i>
    <i name="SIGMA">      0.01000000</i>
    <i name="KSPACING">      0.50000000</i>
    <i type="logical" name="KGAMMA"> T  </i>
   </separator>
   <separator name="electronic projectors" >
    <i type="logical" name="LREAL"> F  </i>
    <v name="ROPT">      0.00000000</v>
    <i type="int" name="LMAXPAW">  -100</i>
    <i type="int" name="LMAXMIX">     2</i>
    <i type="logical" name="NLSPLINE"> F  </i>
   </separator>
   <separator name="electronic startup" >
    <i type="int" name="ISTART">     0</i>
    <i type="int" name="ICHARG">     2</i>
    <i type="int" name="INIWAV">     1</i>
   </separator>
   <separator name="electronic spin" >
    <i type="int" name="ISPIN">     1</i>
    <i type="logical" name="LNONCOLLINEAR"> F  </i>
    <v name="MAGMOM">      1.00000000      1.00000000      1.00000000      1.00000000      1.00000000      1.00000000      1.00000000      1.00000000      1.00000000      1.00000000      1.00000000      1.00000000      1.00000000      1.00000000      1.00000000      1.00000000      1.00000000      1.00000000      1.00000000      1.00000000
      1.00000000      1.00000000      1.00000000      1.00000000      1.00000000      1.00000000      1.00000000      1.00000000      1.00000000      1.00000000      1.00000000      1.00000000      1.00000000      1.00000000      1.00000000      1.00000000      1.00000000      1.00000000      1.00000000      1.00000000
      1.00000000      1.00000000      1.00000000      1.00000000      1.00000000      1.00000000      1.00000000      1.00000000      1.00000000      1.00000000      1.00000000      1.00000000      1.00000000      1.00000000      1.00000000      1.00000000      1.00000000      1.00000000      1.00000000      1.00000000
      1.00000000      1.00000000      1.00000000      1.00000000      1.00000000      1.00000000      1.00000000      1.00000000      1.00000000      1.00000000      1.00000000      1.00000000      1.00000000      1.00000000      1.00000000      1.00000000      1.00000000      1.00000000      1.00000000      1.00000000
      1.00000000      1.00000000      1.00000000      1.00000000      1.00000000      1.00000000      1.00000000      1.00000000      1.00000000      1.00000000      1.00000000      1.00000000      1.00000000      1.00000000      1.00000000      1.00000000      1.00000000      1.00000000      1.00000000      1.00000000
      1.00000000      1.00000000      1.00000000      1.00000000      1.00000000      1.00000000      1.00000000      1.00000000      1.00000000      1.00000000      1.00000000      1.00000000      1.00000000      1.00000000      1.00000000      1.00000000      1.00000000      1.00000000      1.00000000      1.00000000
      1.00000000      1.00000000      1.00000000      1.00000000      1.00000000      1.00000000      1.00000000      1.00000000</v>
    <i name="NUPDOWN">     -1.00000000</i>
    <i type="logical" name="LSORBIT"> F  </i>
    <v name="SAXIS">      0.00000000      0.00000000      1.00000000</v>
    <i type="logical" name="LSPIRAL"> F  </i>
    <v name="QSPIRAL">      0.00000000      0.00000000      0.00000000</v>
    <i type="logical" name="LZEROZ"> F  </i>
   </separator>
   <separator name="electronic exchange-correlation" >
    <i type="logical" name="LASPH"> F  </i>
    <i type="logical" name="LMETAGGA"> F  </i>
   </separator>
   <separator name="electronic convergence" >
    <i type="int" name="NELM">   120</i>
    <i type="int" name="NELMDL">    -5</i>
    <i type="int" name="NELMIN">     4</i>
    <i name="ENINI">    500.00000000</i>
    <separator name="electronic convergence detail" >
     <i type="logical" name="LDIAG"> T  </i>
     <i type="logical" name="LSUBROT"> F  </i>
     <i name="WEIMIN">      0.00000000</i>
     <i name="EBREAK">      0.00000000</i>
     <i name="DEPER">      0.30000000</i>
     <i type="int" name="NRMM">     4</i>
     <i name="TIME">      0.40000000</i>
    </separator>
   </separator>
   <separator name="electronic mixer" >
    <i name="AMIX">      0.40000000</i>
    <i name="BMIX">      1.00000000</i>
    <i name="AMIN">      0.10000000</i>
    <i name="AMIX_MAG">      1.60000000</i>
    <i name="BMIX_MAG">      1.00000000</i>
    <separator name="electronic mixer details" >
     <i type="int" name="IMIX">     4</i>
     <i type="logical" name="MIXFIRST"> F  </i>
     <i type="int" name="MAXMIX">   -45</i>
     <i name="WC">    100.00000000</i>
     <i type="int" name="INIMIX">     1</i>
     <i type="int" name="MIXPRE">     1</i>
     <i type="int" name="MREMOVE">     5</i>
    </separator>
   </separator>
   <separator name="electronic dipolcorrection" >
    <i type="logical" name="LDIPOL"> F  </i>
    <i type="logical" name="LMONO"> F  </i>
    <i type="int" name="IDIPOL">     0</i>
    <i name="EPSILON">      1.00000000</i>
    <v name="DIPOL">   -100.00000000   -100.00000000   -100.00000000</v>
    <i name="EFIELD">      0.00000000</i>
   </separator>
  </separator>
  <separator name="grids" >
   <i type="int" name="NGX">   120</i>
   <i type="int" name="NGY">   120</i>
   <i type="int" name="NGZ">   120</i>
   <i type="int" name="NGXF">   240</i>
   <i type="int" name="NGYF">   240</i>
   <i type="int" name="NGZF">   240</i>
   <i type="logical" name="ADDGRID"> T  </i>
  </separator>
  <separator name="ionic" >
   <i type="int" name="NSW">     0</i>
   <i type="int" name="IBRION">    -1</i>
   <i type="int" name="MDALGO">     0</i>
   <i type="int" name="ISIF">     2</i>
   <i name="PSTRESS">      0.00000000</i>
   <i name="EDIFFG">      0.00000010</i>
   <i type="int" name="NFREE">     0</i>
   <i name="POTIM">      0.50000000</i>
   <i name="SMASS">     -3.00000000</i>
   <i name="SCALEE">      1.00000000</i>
  </separator>
  <separator name="ionic md" >
   <i name="TEBEG">      0.00010000</i>
   <i name="TEEND">      0.00010000</i>
   <i type="int" name="NBLOCK">     1</i>
   <i type="int" name="KBLOCK">     1</i>
   <i type="int" name="NPACO">   256</i>
   <i name="APACO">     16.00000000</i>
  </separator>
  <separator name="symmetry" >
   <i type="int" name="ISYM">     2</i>
   <i name="SYMPREC">      0.00001000</i>
  </separator>
  <separator name="dos" >
   <i type="int" name="LORBIT">     0</i>
   <v name="RWIGS">     -1.00000000</v>
   <i type="int" name="NEDOS">   301</i>
   <i name="EMIN">     10.00000000</i>
   <i name="EMAX">    -10.00000000</i>
   <i name="EFERMI">      0.00000000</i>
  </separator>
  <separator name="writing" >
   <i type="int" name="NWRITE">     2</i>
   <i type="logical" name="LWAVE"> F  </i>
   <i type="logical" name="LDOWNSAMPLE"> F  </i>
   <i type="logical" name="LCHARG"> F  </i>
   <i type="logical" name="LPARD"> F  </i>
   <i type="logical" name="LVTOT"> F  </i>
   <i type="logical" name="LVHAR"> F  </i>
   <i type="logical" name="LELF"> F  </i>
   <i type="logical" name="LOPTICS"> F  </i>
   <v name="STM">      0.00000000      0.00000000      0.00000000      0.00000000      0.00000000      0.00000000      0.00000000</v>
  </separator>
  <separator name="performance" >
   <i type="int" name="NPAR">     2</i>
   <i type="int" name="NSIM">     4</i>
   <i type="int" name="NBLK">    -1</i>
   <i type="logical" name="LPLANE"> T  </i>
   <i type="logical" name="LSCALAPACK"> T  </i>
   <i type="logical" name="LSCAAWARE"> F  </i>
   <i type="logical" name="LSCALU"> F  </i>
   <i type="logical" name="LASYNC"> F  </i>
   <i type="logical" name="LORBITALREAL"> F  </i>
  </separator>
  <separator name="miscellaneous" >
   <i type="int" name="IDIOT">     3</i>
   <i type="int" name="ISPECIAL">     0</i>
   <i type="logical" name="LMUSIC"> F  </i>
   <v name="POMASS">     28.08500000</v>
   <v name="DARWINR">      0.00000000</v>
   <v name="DARWINV">      1.00000000</v>
   <i type="logical" name="LCORR"> T  </i>
  </separator>
  <i type="logical" name="GGA_COMPAT"> T  </i>
  <i type="logical" name="LBERRY"> F  </i>
  <i type="int" name="ICORELEVEL">     0</i>
  <i type="logical" name="LDAU"> F  </i>
  <i type="int" name="I_CONSTRAINED_M">     0</i>
  <separator name="electronic exchange-correlation" >
   <i type="string" name="GGA">--</i>
   <i type="int" name="VOSKOWN">     0</i>
   <i type="logical" name="LHFCALC"> F  </i>
   <i type="string" name="PRECFOCK"></i>
   <i type="logical" name="LSYMGRAD"> F  </i>
   <i type="logical" name="LHFONE"> F  </i>
   <i type="logical" name="LRHFCALC"> F  </i>
   <i type="logical" name="LTHOMAS"> F  </i>
   <i type="logical" name="LMODELHF"> F  </i>
   <i name="ENCUT4O">     -1.00000000</i>
   <i type="int" name="EXXOEP">     0</i>
   <i type="int" name="FOURORBIT">     0</i>
   <i name="AEXX">      0.00000000</i>
   <i name="HFALPHA">      0.00000000</i>
   <i name="MCALPHA">      0.00000000</i>
   <i name="ALDAX">      1.00000000</i>
   <i name="AGGAX">      1.00000000</i>
   <i name="ALDAC">      1.00000000</i>
   <i name="AGGAC">      1.00000000</i>
   <i type="int" name="NKREDX">     1</i>
   <i type="int" name="NKREDY">     1</i>
   <i type="int" name="NKREDZ">     1</i>
   <i type="logical" name="SHIFTRED"> F  </i>
   <i type="logical" name="ODDONLY"> F  </i>
   <i type="logical" name="EVENONLY"> F  </i>
   <i type="int" name="LMAXFOCK">     0</i>
   <i type="int" name="NMAXFOCKAE">     0</i>
   <i type="logical" name="LFOCKAEDFT"> F  </i>
   <i name="HFSCREEN">      0.00000000</i>
   <i name="HFSCREENC">      0.00000000</i>
   <i type="int" name="NBANDSGWLOW">     0</i>
  </separator>
  <separator name="vdW DFT" >
   <i type="logical" name="LUSE_VDW"> F  </i>
   <i name="Zab_VDW">     -0.84910000</i>
   <i name="PARAM1">      0.12340000</i>
   <i name="PARAM2">      1.00000000</i>
   <i name="PARAM3">      0.00000000</i>
  </separator>
  <separator name="model GW" >
   <i type="int" name="MODEL_GW">     0</i>
   <i name="MODEL_EPS0">     12.26607635</i>
   <i name="MODEL_ALPHA">      1.00000000</i>
  </separator>
  <separator name="linear response parameters" >
   <i type="logical" name="LEPSILON"> F  </i>
   <i type="logical" name="LRPA"> F  </i>
   <i type="logical" name="LNABLA"> F  </i>
   <i type="logical" name="LVEL"> F  </i>
   <i type="int" name="KINTER">     0</i>
   <i name="CSHIFT">      0.10000000</i>
   <i name="OMEGAMAX">     -1.00000000</i>
   <i name="DEG_THRESHOLD">      0.00200000</i>
   <i name="RTIME">     -0.10000000</i>
   <i name="WPLASMAI">      0.00000000</i>
   <v name="DFIELD">      0.00000000      0.00000000      0.00000000</v>
   <v name="WPLASMA">      0.00000000      0.00000000      0.00000000      0.00000000      0.00000000      0.00000000      0.00000000      0.00000000      0.00000000</v>
  </separator>
  <separator name="orbital magnetization" >
   <i type="logical" name="NUCIND"> F  </i>
   <v name="MAGPOS">      0.00000000      0.00000000      0.00000000</v>
   <i type="logical" name="LNICSALL"> T  </i>
   <i type="logical" name="ORBITALMAG"> F  </i>
   <i type="logical" name="LMAGBLOCH"> F  </i>
   <i type="logical" name="LCHIMAG"> F  </i>
   <i type="logical" name="LGAUGE"> T  </i>
   <i type="int" name="MAGATOM">     0</i>
   <v name="MAGDIPOL">      0.00000000      0.00000000      0.00000000</v>
   <v name="AVECCONST">      0.00000000      0.00000000      0.00000000</v>
  </separator>
  <separator name="response functions" >
   <i type="logical" name="LADDER"> F  </i>
   <i type="logical" name="LRPAFORCE"> F  </i>
   <i type="logical" name="LFXC"> F  </i>
   <i type="logical" name="LHARTREE"> T  </i>
   <i type="int" name="IBSE">     0</i>
   <v type="int" name="KPOINT">    -1     0     0     0</v>
   <i type="logical" name="LTCTE"> F  </i>
   <i type="logical" name="LTETE"> F  </i>
   <i type="logical" name="LTRIPLET"> F  </i>
   <i type="logical" name="LFXCEPS"> F  </i>
   <i type="logical" name="LFXHEG"> F  </i>
   <i type="int" name="NATURALO">     2</i>
   <i type="logical" name="L2ORDER"> F  </i>
   <i type="logical" name="LMP2LT"> F  </i>
   <i type="logical" name="LUSEW"> F  </i>
   <i name="ENCUTGW">     -2.00000000</i>
   <i name="ENCUTGWSOFT">     -2.00000000</i>
   <i name="ENCUTLF">     -1.00000000</i>
   <i type="int" name="LMAXMP2">    -1</i>
   <i name="SCISSOR">      0.00000000</i>
   <i type="int" name="NOMEGA">     0</i>
   <i type="int" name="NOMEGAR">     0</i>
   <i type="int" name="NBANDSGW">    -1</i>
   <i type="int" name="NBANDSO">    -1</i>
   <i type="int" name="NBANDSV">    -1</i>
   <i type="int" name="NELM">   120</i>
   <i type="int" name="NELMHF">     1</i>
   <i type="int" name="DIM">     3</i>
   <i type="int" name="ANTIRES">     0</i>
   <i name="OMEGAMAX">    -30.00000000</i>
   <i name="OMEGAMIN">    -30.00000000</i>
   <i name="OMEGATL">   -200.00000000</i>
   <i type="int" name="OMEGAGRID">   140</i>
   <i name="CSHIFT">     -0.10000000</i>
   <i type="logical" name="SELFENERGY"> F  </i>
   <i type="logical" name="LSPECTRAL"> F  </i>
   <i type="logical" name="LSPECTRALGW"> F  </i>
   <i type="logical" name="LSINGLES"> F  </i>
   <i type="logical" name="LFERMIGW"> F  </i>
   <i type="logical" name="ODDONLYGW"> F  </i>
   <i type="logical" name="EVENONLYGW"> F  </i>
   <i type="int" name="NKREDLFX">     1</i>
   <i type="int" name="NKREDLFY">     1</i>
   <i type="int" name="NKREDLFZ">     1</i>
   <i type="int" name="MAXMEM">  2800</i>
   <i type="int" name="TELESCOPE">     0</i>
   <i type="int" name="TAUPAR">     1</i>
   <i type="int" name="OMEGAPAR">    -1</i>
   <i name="LAMBDA">      1.00000000</i>
  </separator>
  <separator name="External order field" >
   <i name="OFIELD_KAPPA">      0.00000000</i>
   <v name="OFIELD_K">      0.00000000      0.00000000      0.00000000</v>
   <i name="OFIELD_Q6_NEAR">      0.00000000</i>
   <i name="OFIELD_Q6_FAR">      0.00000000</i>
   <i name="OFIELD_A">      0.00000000</i>
  </separator>
 </parameters>
 <atominfo>
  <atoms>     128 </atoms>
  <types>       1 </types>
  <array name="atoms" >
   <dimension dim="1">ion</dimension>
   <field type="string">element</field>
   <field type="int">atomtype</field>
   <set>
    <rc><c>Si</c><c>   1</c></rc>
    <rc><c>Si</c><c>   1</c></rc>
    <rc><c>Si</c><c>   1</c></rc>
    <rc><c>Si</c><c>   1</c></rc>
    <rc><c>Si</c><c>   1</c></rc>
    <rc><c>Si</c><c>   1</c></rc>
    <rc><c>Si</c><c>   1</c></rc>
    <rc><c>Si</c><c>   1</c></rc>
    <rc><c>Si</c><c>   1</c></rc>
    <rc><c>Si</c><c>   1</c></rc>
    <rc><c>Si</c><c>   1</c></rc>
    <rc><c>Si</c><c>   1</c></rc>
    <rc><c>Si</c><c>   1</c></rc>
    <rc><c>Si</c><c>   1</c></rc>
    <rc><c>Si</c><c>   1</c></rc>
    <rc><c>Si</c><c>   1</c></rc>
    <rc><c>Si</c><c>   1</c></rc>
    <rc><c>Si</c><c>   1</c></rc>
    <rc><c>Si</c><c>   1</c></rc>
    <rc><c>Si</c><c>   1</c></rc>
    <rc><c>Si</c><c>   1</c></rc>
    <rc><c>Si</c><c>   1</c></rc>
    <rc><c>Si</c><c>   1</c></rc>
    <rc><c>Si</c><c>   1</c></rc>
    <rc><c>Si</c><c>   1</c></rc>
    <rc><c>Si</c><c>   1</c></rc>
    <rc><c>Si</c><c>   1</c></rc>
    <rc><c>Si</c><c>   1</c></rc>
    <rc><c>Si</c><c>   1</c></rc>
    <rc><c>Si</c><c>   1</c></rc>
    <rc><c>Si</c><c>   1</c></rc>
    <rc><c>Si</c><c>   1</c></rc>
    <rc><c>Si</c><c>   1</c></rc>
    <rc><c>Si</c><c>   1</c></rc>
    <rc><c>Si</c><c>   1</c></rc>
    <rc><c>Si</c><c>   1</c></rc>
    <rc><c>Si</c><c>   1</c></rc>
    <rc><c>Si</c><c>   1</c></rc>
    <rc><c>Si</c><c>   1</c></rc>
    <rc><c>Si</c><c>   1</c></rc>
    <rc><c>Si</c><c>   1</c></rc>
    <rc><c>Si</c><c>   1</c></rc>
    <rc><c>Si</c><c>   1</c></rc>
    <rc><c>Si</c><c>   1</c></rc>
    <rc><c>Si</c><c>   1</c></rc>
    <rc><c>Si</c><c>   1</c></rc>
    <rc><c>Si</c><c>   1</c></rc>
    <rc><c>Si</c><c>   1</c></rc>
    <rc><c>Si</c><c>   1</c></rc>
    <rc><c>Si</c><c>   1</c></rc>
    <rc><c>Si</c><c>   1</c></rc>
    <rc><c>Si</c><c>   1</c></rc>
    <rc><c>Si</c><c>   1</c></rc>
    <rc><c>Si</c><c>   1</c></rc>
    <rc><c>Si</c><c>   1</c></rc>
    <rc><c>Si</c><c>   1</c></rc>
    <rc><c>Si</c><c>   1</c></rc>
    <rc><c>Si</c><c>   1</c></rc>
    <rc><c>Si</c><c>   1</c></rc>
    <rc><c>Si</c><c>   1</c></rc>
    <rc><c>Si</c><c>   1</c></rc>
    <rc><c>Si</c><c>   1</c></rc>
    <rc><c>Si</c><c>   1</c></rc>
    <rc><c>Si</c><c>   1</c></rc>
    <rc><c>Si</c><c>   1</c></rc>
    <rc><c>Si</c><c>   1</c></rc>
    <rc><c>Si</c><c>   1</c></rc>
    <rc><c>Si</c><c>   1</c></rc>
    <rc><c>Si</c><c>   1</c></rc>
    <rc><c>Si</c><c>   1</c></rc>
    <rc><c>Si</c><c>   1</c></rc>
    <rc><c>Si</c><c>   1</c></rc>
    <rc><c>Si</c><c>   1</c></rc>
    <rc><c>Si</c><c>   1</c></rc>
    <rc><c>Si</c><c>   1</c></rc>
    <rc><c>Si</c><c>   1</c></rc>
    <rc><c>Si</c><c>   1</c></rc>
    <rc><c>Si</c><c>   1</c></rc>
    <rc><c>Si</c><c>   1</c></rc>
    <rc><c>Si</c><c>   1</c></rc>
    <rc><c>Si</c><c>   1</c></rc>
    <rc><c>Si</c><c>   1</c></rc>
    <rc><c>Si</c><c>   1</c></rc>
    <rc><c>Si</c><c>   1</c></rc>
    <rc><c>Si</c><c>   1</c></rc>
    <rc><c>Si</c><c>   1</c></rc>
    <rc><c>Si</c><c>   1</c></rc>
    <rc><c>Si</c><c>   1</c></rc>
    <rc><c>Si</c><c>   1</c></rc>
    <rc><c>Si</c><c>   1</c></rc>
    <rc><c>Si</c><c>   1</c></rc>
    <rc><c>Si</c><c>   1</c></rc>
    <rc><c>Si</c><c>   1</c></rc>
    <rc><c>Si</c><c>   1</c></rc>
    <rc><c>Si</c><c>   1</c></rc>
    <rc><c>Si</c><c>   1</c></rc>
    <rc><c>Si</c><c>   1</c></rc>
    <rc><c>Si</c><c>   1</c></rc>
    <rc><c>Si</c><c>   1</c></rc>
    <rc><c>Si</c><c>   1</c></rc>
    <rc><c>Si</c><c>   1</c></rc>
    <rc><c>Si</c><c>   1</c></rc>
    <rc><c>Si</c><c>   1</c></rc>
    <rc><c>Si</c><c>   1</c></rc>
    <rc><c>Si</c><c>   1</c></rc>
    <rc><c>Si</c><c>   1</c></rc>
    <rc><c>Si</c><c>   1</c></rc>
    <rc><c>Si</c><c>   1</c></rc>
    <rc><c>Si</c><c>   1</c></rc>
    <rc><c>Si</c><c>   1</c></rc>
    <rc><c>Si</c><c>   1</c></rc>
    <rc><c>Si</c><c>   1</c></rc>
    <rc><c>Si</c><c>   1</c></rc>
    <rc><c>Si</c><c>   1</c></rc>
    <rc><c>Si</c><c>   1</c></rc>
    <rc><c>Si</c><c>   1</c></rc>
    <rc><c>Si</c><c>   1</c></rc>
    <rc><c>Si</c><c>   1</c></rc>
    <rc><c>Si</c><c>   1</c></rc>
    <rc><c>Si</c><c>   1</c></rc>
    <rc><c>Si</c><c>   1</c></rc>
    <rc><c>Si</c><c>   1</c></rc>
    <rc><c>Si</c><c>   1</c></rc>
    <rc><c>Si</c><c>   1</c></rc>
    <rc><c>Si</c><c>   1</c></rc>
    <rc><c>Si</c><c>   1</c></rc>
    <rc><c>Si</c><c>   1</c></rc>
    <rc><c>Si</c><c>   1</c></rc>
   </set>
  </array>
  <array name="atomtypes" >
   <dimension dim="1">type</dimension>
   <field type="int">atomspertype</field>
   <field type="string">element</field>
   <field>mass</field>
   <field>valence</field>
   <field type="string">pseudopotential</field>
   <set>
    <rc><c> 128</c><c>Si</c><c>     28.08500000</c><c>      4.00000000</c><c> PAW_PBE Si 05Jan2001                   </c></rc>
   </set>
  </array>
 </atominfo>
 <structure name="initialpos" >
  <crystal>
   <varray name="basis" >
    <v>       0.00000000      10.93733369      10.93733369 </v>
    <v>      10.93733369       0.00000000      10.93733369 </v>
    <v>      10.93733369      10.93733369       0.00000000 </v>
   </varray>
   <i name="volume">   2616.76295363 </i>
   <varray name="rec_basis" >
    <v>      -0.04571498       0.04571498       0.04571498 </v>
    <v>       0.04571498      -0.04571498       0.04571498 </v>
    <v>       0.04571498       0.04571498      -0.04571498 </v>
   </varray>
  </crystal>
  <varray name="positions" >
   <v>       0.99868827       0.00960346       0.00476396 </v>
   <v>       0.27447180       0.99122089       0.98863913 </v>
   <v>       0.49603433       0.00987411       0.98717418 </v>
   <v>       0.76421847       0.99366929       0.99504722 </v>
   <v>       0.97802754       0.26328423       0.99772317 </v>
   <v>       0.25056134       0.25042638       0.00047810 </v>
   <v>       0.49467903       0.24604294       0.00807501 </v>
   <v>       0.74270417       0.25442479       0.00482768 </v>
   <v>       0.02121983       0.49151966       0.99422025 </v>
   <v>       0.25797855       0.49239129       0.00131257 </v>
   <v>       0.50298805       0.50450559       0.99095547 </v>
   <v>       0.75457944       0.51030281       0.99575990 </v>
   <v>       0.01657065       0.75165669       0.99480873 </v>
   <v>       0.26148577       0.74522078       0.00341820 </v>
   <v>       0.49750780       0.76080966       0.99929487 </v>
   <v>       0.75514724       0.74847738       0.99361557 </v>
   <v>       0.98894212       0.99757299       0.25506412 </v>
   <v>       0.24162237       0.00081705       0.25146128 </v>
   <v>       0.50389623       0.99385862       0.24769184 </v>
   <v>       0.74895898       0.99214195       0.25865846 </v>
   <v>       0.00101934       0.26040335       0.23708074 </v>
   <v>       0.24179169       0.25676510       0.25779305 </v>
   <v>       0.49696542       0.26129717       0.25093802 </v>
   <v>       0.74443873       0.25100965       0.24486664 </v>
   <v>       0.99989716       0.51406283       0.24860953 </v>
   <v>       0.25404464       0.49202464       0.24810324 </v>
   <v>       0.49837796       0.51322570       0.24549370 </v>
   <v>       0.75386405       0.49378404       0.24602721 </v>
   <v>       0.99412797       0.76657708       0.23980025 </v>
   <v>       0.25137910       0.74974768       0.25557598 </v>
   <v>       0.49212550       0.75733057       0.25391054 </v>
   <v>       0.74372085       0.74187779       0.25758239 </v>
   <v>       0.00612982       0.00783843       0.49168541 </v>
   <v>       0.24685828       0.99773316       0.49940217 </v>
   <v>       0.51094041       0.99601951       0.50406105 </v>
   <v>       0.74660730       0.99973112       0.49238095 </v>
   <v>       0.99628233       0.25259126       0.51039018 </v>
   <v>       0.25232082       0.25296261       0.49805737 </v>
   <v>       0.50488790       0.25771325       0.49805828 </v>
   <v>       0.75055991       0.25106270       0.50665104 </v>
   <v>       0.99352305       0.49260483       0.51683671 </v>
   <v>       0.24183479       0.49998874       0.50051548 </v>
   <v>       0.49085829       0.50807188       0.50329648 </v>
   <v>       0.74258784       0.50203129       0.50269820 </v>
   <v>       0.00449021       0.75585241       0.49229668 </v>
   <v>       0.23372655       0.75147708       0.51074784 </v>
   <v>       0.49314683       0.75631051       0.49718605 </v>
   <v>       0.75019781       0.75017536       0.50206718 </v>
   <v>       0.99295869       0.01188866       0.74466408 </v>
   <v>       0.24225058       0.00739169       0.74366939 </v>
   <v>       0.50413909       0.00613590       0.74890963 </v>
   <v>       0.73927486       0.99222668       0.76170852 </v>
   <v>       0.99346114       0.25395167       0.74909910 </v>
   <v>       0.24939588       0.24817316       0.76315784 </v>
   <v>       0.50495860       0.23771263       0.74403916 </v>
   <v>       0.75168996       0.23776490       0.75449510 </v>
   <v>       0.99992223       0.50050392       0.74268866 </v>
   <v>       0.25229561       0.50711746       0.74783873 </v>
   <v>       0.49199898       0.50601550       0.73248423 </v>
   <v>       0.75155172       0.50853869       0.73638407 </v>
   <v>       0.99975370       0.75558356       0.74682368 </v>
   <v>       0.26053915       0.74956590       0.75533308 </v>
   <v>       0.50080339       0.76305702       0.74560258 </v>
   <v>       0.75333449       0.74098460       0.76897652 </v>
   <v>       0.06359188       0.06047884       0.07852949 </v>
   <v>       0.31555347       0.05936611       0.06302424 </v>
   <v>       0.56369739       0.07134811       0.06085552 </v>
   <v>       0.81385901       0.05794417       0.05867907 </v>
   <v>       0.07202154       0.30550791       0.06228002 </v>
   <v>       0.30585484       0.30989217       0.06834871 </v>
   <v>       0.55731825       0.32383921       0.05931922 </v>
   <v>       0.81016081       0.31709393       0.06283475 </v>
   <v>       0.06417643       0.56204851       0.06395692 </v>
   <v>       0.30780988       0.56141539       0.06724249 </v>
   <v>       0.55321452       0.56584041       0.06071038 </v>
   <v>       0.81403874       0.57274881       0.04994773 </v>
   <v>       0.06318172       0.81064327       0.06344504 </v>
   <v>       0.32079964       0.80372879       0.06883983 </v>
   <v>       0.57128004       0.81616727       0.05247609 </v>
   <v>       0.82508649       0.81500908       0.05681949 </v>
   <v>       0.05043574       0.07431675       0.31247434 </v>
   <v>       0.30755654       0.06125515       0.31240612 </v>
   <v>       0.55299693       0.06908280       0.30579494 </v>
   <v>       0.81396733       0.06950755       0.30801869 </v>
   <v>       0.06670562       0.31521632       0.30565966 </v>
   <v>       0.31526930       0.31006418       0.31050076 </v>
   <v>       0.54774795       0.31543346       0.32735113 </v>
   <v>       0.81303422       0.31120421       0.31595213 </v>
   <v>       0.08463841       0.56563391       0.29098172 </v>
   <v>       0.31369001       0.56349424       0.31207450 </v>
   <v>       0.55412234       0.57421665       0.30678399 </v>
   <v>       0.81368031       0.55382852       0.31074052 </v>
   <v>       0.07266273       0.81614561       0.30457806 </v>
   <v>       0.31711263       0.81132168       0.31146936 </v>
   <v>       0.56119325       0.80449005       0.31827751 </v>
   <v>       0.81103167       0.81378558       0.31955621 </v>
   <v>       0.07102100       0.04831774       0.56746090 </v>
   <v>       0.32434466       0.04841420       0.56872512 </v>
   <v>       0.57007751       0.05643080       0.55323735 </v>
   <v>       0.80291442       0.06661210       0.55409030 </v>
   <v>       0.05869793       0.31732376       0.56243059 </v>
   <v>       0.32649362       0.30537460       0.55875327 </v>
   <v>       0.55128225       0.31396303       0.57390936 </v>
   <v>       0.81079868       0.29838195       0.57686169 </v>
   <v>       0.06429408       0.56854445       0.55138298 </v>
   <v>       0.31195405       0.56743070       0.56377221 </v>
   <v>       0.56595050       0.55752706       0.55940316 </v>
   <v>       0.81447293       0.55981340       0.55829964 </v>
   <v>       0.05381066       0.80666743       0.56979642 </v>
   <v>       0.31071237       0.80341698       0.57179312 </v>
   <v>       0.57054731       0.80959597       0.56991318 </v>
   <v>       0.80683388       0.81670763       0.55693987 </v>
   <v>       0.06774108       0.05475168       0.80741394 </v>
   <v>       0.30549618       0.06824406       0.81198313 </v>
   <v>       0.56053953       0.06168710       0.80892249 </v>
   <v>       0.80982515       0.05987530       0.82037222 </v>
   <v>       0.04811676       0.31287343       0.82517892 </v>
   <v>       0.31401678       0.30629529       0.81759832 </v>
   <v>       0.56609634       0.31452901       0.80552034 </v>
   <v>       0.80943677       0.31454425       0.81460679 </v>
   <v>       0.06106196       0.57087337       0.80860054 </v>
   <v>       0.31379812       0.56343925       0.80863485 </v>
   <v>       0.56622794       0.55696544       0.81577591 </v>
   <v>       0.81654505       0.57145428       0.80515090 </v>
   <v>       0.07084523       0.81606535       0.80907736 </v>
   <v>       0.31312106       0.81204568       0.81587789 </v>
   <v>       0.56936034       0.79949996       0.81850565 </v>
   <v>       0.81424328       0.81976599       0.81902479 </v>
  </varray>
 </structure>
 <calculation>
  <scstep>
   <time name="dav">   70.39   70.40</time>
   <time name="total">   71.39   71.42</time>
   <energy>
    <i name="alphaZ">    210.77028614 </i>
    <i name="ewald"> -14460.05879337 </i>
    <i name="hartreedc">   -761.10874297 </i>
    <i name="XCdc">  -1195.11967979 </i>
    <i name="pawpsdc">   4221.13331941 </i>
    <i name="pawaedc">  -1969.18571412 </i>
    <i name="eentropy">     -0.00141894 </i>
    <i name="bandstr">   2148.91071114 </i>
    <i name="atom">  13192.48085998 </i>
    <i name="e_fr_energy">   1387.82082749 </i>
    <i name="e_wo_entrp">   1387.82224643 </i>
    <i name="e_0_energy">   1387.82153696 </i>
   </energy>
  </scstep>
  <scstep>
   <time name="dav">   80.04   80.06</time>
   <time name="total">   80.04   80.06</time>
   <energy>
    <i name="e_fr_energy">   -534.28781913 </i>
    <i name="e_wo_entrp">   -534.28781913 </i>
    <i name="e_0_energy">   -534.28781913 </i>
   </energy>
  </scstep>
  <scstep>
   <time name="dav">   82.33   82.35</time>
   <time name="total">   82.33   82.36</time>
   <energy>
    <i name="e_fr_energy">   -684.64446370 </i>
    <i name="e_wo_entrp">   -684.64446370 </i>
    <i name="e_0_energy">   -684.64446370 </i>
   </energy>
  </scstep>
  <scstep>
   <time name="dav">   80.83   80.86</time>
   <time name="total">   80.83   80.87</time>
   <energy>
    <i name="e_fr_energy">   -688.93838903 </i>
    <i name="e_wo_entrp">   -688.93838903 </i>
    <i name="e_0_energy">   -688.93838903 </i>
   </energy>
  </scstep>
  <scstep>
   <time name="dav">   82.91   82.93</time>
   <time name="total">   86.20   86.22</time>
   <energy>
    <i name="e_fr_energy">   -689.09136992 </i>
    <i name="e_wo_entrp">   -689.09136992 </i>
    <i name="e_0_energy">   -689.09136992 </i>
   </energy>
  </scstep>
  <scstep>
   <time name="dav">   77.91   77.93</time>
   <time name="total">   82.18   82.21</time>
   <energy>
    <i name="e_fr_energy">   -680.37930449 </i>
    <i name="e_wo_entrp">   -680.37930449 </i>
    <i name="e_0_energy">   -680.37930449 </i>
   </energy>
  </scstep>
  <scstep>
   <time name="dav">   76.31   76.33</time>
   <time name="total">   80.57   80.60</time>
   <energy>
    <i name="e_fr_energy">   -676.83675561 </i>
    <i name="e_wo_entrp">   -676.83675561 </i>
    <i name="e_0_energy">   -676.83675561 </i>
   </energy>
  </scstep>
  <scstep>
   <time name="dav">   77.11   77.14</time>
   <time name="total">   81.38   81.42</time>
   <energy>
    <i name="e_fr_energy">   -676.88327439 </i>
    <i name="e_wo_entrp">   -676.88327439 </i>
    <i name="e_0_energy">   -676.88327439 </i>
   </energy>
  </scstep>
  <scstep>
   <time name="dav">   79.55   79.57</time>
   <time name="total">   83.82   83.85</time>
   <energy>
    <i name="e_fr_energy">   -676.90759500 </i>
    <i name="e_wo_entrp">   -676.90759500 </i>
    <i name="e_0_energy">   -676.90759500 </i>
   </energy>
  </scstep>
  <scstep>
   <time name="dav">   80.15   80.19</time>
   <time name="total">   84.41   84.45</time>
   <energy>
    <i name="e_fr_energy">   -676.91012529 </i>
    <i name="e_wo_entrp">   -676.91012529 </i>
    <i name="e_0_energy">   -676.91012529 </i>
   </energy>
  </scstep>
  <scstep>
   <time name="dav">   76.27   76.29</time>
   <time name="total">   80.53   80.55</time>
   <energy>
    <i name="e_fr_energy">   -676.91178505 </i>
    <i name="e_wo_entrp">   -676.91178505 </i>
    <i name="e_0_energy">   -676.91178505 </i>
   </energy>
  </scstep>
  <scstep>
   <time name="dav">   80.00   80.01</time>
   <time name="total">   84.26   84.27</time>
   <energy>
    <i name="e_fr_energy">   -676.91182090 </i>
    <i name="e_wo_entrp">   -676.91182090 </i>
    <i name="e_0_energy">   -676.91182090 </i>
   </energy>
  </scstep>
  <scstep>
   <time name="dav">   76.95   76.96</time>
   <time name="total">   81.16   81.18</time>
   <energy>
    <i name="e_fr_energy">   -676.91185712 </i>
    <i name="e_wo_entrp">   -676.91185712 </i>
    <i name="e_0_energy">   -676.91185712 </i>
   </energy>
  </scstep>
  <scstep>
   <time name="dav">   79.97   79.98</time>
   <time name="total">   84.18   84.19</time>
   <energy>
    <i name="e_fr_energy">   -676.91185847 </i>
    <i name="e_wo_entrp">   -676.91185847 </i>
    <i name="e_0_energy">   -676.91185847 </i>
   </energy>
  </scstep>
  <scstep>
   <time name="dav">   78.81   78.82</time>
   <time name="total">   83.02   83.04</time>
   <energy>
    <i name="e_fr_energy">   -676.91186372 </i>
    <i name="e_wo_entrp">   -676.91186372 </i>
    <i name="e_0_energy">   -676.91186372 </i>
   </energy>
  </scstep>
  <scstep>
   <time name="dav">   81.12   81.13</time>
   <time name="total">   85.30   85.32</time>
   <energy>
    <i name="e_fr_energy">   -676.91186321 </i>
    <i name="e_wo_entrp">   -676.91186321 </i>
    <i name="e_0_energy">   -676.91186321 </i>
   </energy>
  </scstep>
  <scstep>
   <time name="dav">   73.97   73.98</time>
   <time name="total">   78.11   78.13</time>
   <energy>
    <i name="e_fr_energy">   -676.91186294 </i>
    <i name="e_wo_entrp">   -676.91186294 </i>
    <i name="e_0_energy">   -676.91186294 </i>
   </energy>
  </scstep>
  <scstep>
   <time name="dav">   52.25   52.26</time>
   <time name="total">   56.41   56.41</time>
   <energy>
    <i name="e_fr_energy">   -676.91186308 </i>
    <i name="e_wo_entrp">   -676.91186308 </i>
    <i name="e_0_energy">   -676.91186308 </i>
   </energy>
  </scstep>
  <scstep>
   <time name="dav">   51.62   51.63</time>
   <time name="total">   52.61   52.63</time>
   <energy>
    <i name="alphaZ">    210.77028614 </i>
    <i name="ewald"> -14460.05879337 </i>
    <i name="hartreedc">  -1007.68640858 </i>
    <i name="XCdc">  -1155.56034057 </i>
    <i name="pawpsdc">   4737.96441027 </i>
    <i name="pawaedc">  -2499.88327782 </i>
    <i name="eentropy">     -0.00000000 </i>
    <i name="bandstr">    305.06140087 </i>
    <i name="atom">  13192.48085998 </i>
    <i name="e_fr_energy">   -676.91186308 </i>
    <i name="e_wo_entrp">   -676.91186308 </i>
    <i name="e_0_energy">   -676.91186308 </i>
   </energy>
  </scstep>
  <structure>
   <crystal>
    <varray name="basis" >
     <v>       0.00000000      10.93733369      10.93733369 </v>
     <v>      10.93733369       0.00000000      10.93733369 </v>
     <v>      10.93733369      10.93733369       0.00000000 </v>
    </varray>
    <i name="volume">   2616.76295363 </i>
    <varray name="rec_basis" >
     <v>      -0.04571498       0.04571498       0.04571498 </v>
     <v>       0.04571498      -0.04571498       0.04571498 </v>
     <v>       0.04571498       0.04571498      -0.04571498 </v>
    </varray>
   </crystal>
   <varray name="positions" >
    <v>       0.99868827       0.00960346       0.00476396 </v>
    <v>       0.27447180       0.99122089       0.98863913 </v>
    <v>       0.49603433       0.00987411       0.98717418 </v>
    <v>       0.76421847       0.99366929       0.99504722 </v>
    <v>       0.97802754       0.26328423       0.99772317 </v>
    <v>       0.25056134       0.25042638       0.00047810 </v>
    <v>       0.49467903       0.24604294       0.00807501 </v>
    <v>       0.74270417       0.25442479       0.00482768 </v>
    <v>       0.02121983       0.49151966       0.99422025 </v>
    <v>       0.25797855       0.49239129       0.00131257 </v>
    <v>       0.50298805       0.50450559       0.99095547 </v>
    <v>       0.75457944       0.51030281       0.99575990 </v>
    <v>       0.01657065       0.75165669       0.99480873 </v>
    <v>       0.26148577       0.74522078       0.00341820 </v>
    <v>       0.49750780       0.76080966       0.99929487 </v>
    <v>       0.75514724       0.74847738       0.99361557 </v>
    <v>       0.98894212       0.99757299       0.25506412 </v>
    <v>       0.24162237       0.00081705       0.25146128 </v>
    <v>       0.50389623       0.99385862       0.24769184 </v>
    <v>       0.74895898       0.99214195       0.25865846 </v>
    <v>       0.00101934       0.26040335       0.23708074 </v>
    <v>       0.24179169       0.25676510       0.25779305 </v>
    <v>       0.49696542       0.26129717       0.25093802 </v>
    <v>       0.74443873       0.25100965       0.24486664 </v>
    <v>       0.99989716       0.51406283       0.24860953 </v>
    <v>       0.25404464       0.49202464       0.24810324 </v>
    <v>       0.49837796       0.51322570       0.24549370 </v>
    <v>       0.75386405       0.49378404       0.24602721 </v>
    <v>       0.99412797       0.76657708       0.23980025 </v>
    <v>       0.25137910       0.74974768       0.25557598 </v>
    <v>       0.49212550       0.75733057       0.25391054 </v>
    <v>       0.74372085       0.74187779       0.25758239 </v>
    <v>       0.00612982       0.00783843       0.49168541 </v>
    <v>       0.24685828       0.99773316       0.49940217 </v>
    <v>       0.51094041       0.99601951       0.50406105 </v>
    <v>       0.74660730       0.99973112       0.49238095 </v>
    <v>       0.99628233       0.25259126       0.51039018 </v>
    <v>       0.25232082       0.25296261       0.49805737 </v>
    <v>       0.50488790       0.25771325       0.49805828 </v>
    <v>       0.75055991       0.25106270       0.50665104 </v>
    <v>       0.99352305       0.49260483       0.51683671 </v>
    <v>       0.24183479       0.49998874       0.50051548 </v>
    <v>       0.49085829       0.50807188       0.50329648 </v>
    <v>       0.74258784       0.50203129       0.50269820 </v>
    <v>       0.00449021       0.75585241       0.49229668 </v>
    <v>       0.23372655       0.75147708       0.51074784 </v>
    <v>       0.49314683       0.75631051       0.49718605 </v>
    <v>       0.75019781       0.75017536       0.50206718 </v>
    <v>       0.99295869       0.01188866       0.74466408 </v>
    <v>       0.24225058       0.00739169       0.74366939 </v>
    <v>       0.50413909       0.00613590       0.74890963 </v>
    <v>       0.73927486       0.99222668       0.76170852 </v>
    <v>       0.99346114       0.25395167       0.74909910 </v>
    <v>       0.24939588       0.24817316       0.76315784 </v>
    <v>       0.50495860       0.23771263       0.74403916 </v>
    <v>       0.75168996       0.23776490       0.75449510 </v>
    <v>       0.99992223       0.50050392       0.74268866 </v>
    <v>       0.25229561       0.50711746       0.74783873 </v>
    <v>       0.49199898       0.50601550       0.73248423 </v>
    <v>       0.75155172       0.50853869       0.73638407 </v>
    <v>       0.99975370       0.75558356       0.74682368 </v>
    <v>       0.26053915       0.74956590       0.75533308 </v>
    <v>       0.50080339       0.76305702       0.74560258 </v>
    <v>       0.75333449       0.74098460       0.76897652 </v>
    <v>       0.06359188       0.06047884       0.07852949 </v>
    <v>       0.31555347       0.05936611       0.06302424 </v>
    <v>       0.56369739       0.07134811       0.06085552 </v>
    <v>       0.81385901       0.05794417       0.05867907 </v>
    <v>       0.07202154       0.30550791       0.06228002 </v>
    <v>       0.30585484       0.30989217       0.06834871 </v>
    <v>       0.55731825       0.32383921       0.05931922 </v>
    <v>       0.81016081       0.31709393       0.06283475 </v>
    <v>       0.06417643       0.56204851       0.06395692 </v>
    <v>       0.30780988       0.56141539       0.06724249 </v>
    <v>       0.55321452       0.56584041       0.06071038 </v>
    <v>       0.81403874       0.57274881       0.04994773 </v>
    <v>       0.06318172       0.81064327       0.06344504 </v>
    <v>       0.32079964       0.80372879       0.06883983 </v>
    <v>       0.57128004       0.81616727       0.05247609 </v>
    <v>       0.82508649       0.81500908       0.05681949 </v>
    <v>       0.05043574       0.07431675       0.31247434 </v>
    <v>       0.30755654       0.06125515       0.31240612 </v>
    <v>       0.55299693       0.06908280       0.30579494 </v>
    <v>       0.81396733       0.06950755       0.30801869 </v>
    <v>       0.06670562       0.31521632       0.30565966 </v>
    <v>       0.31526930       0.31006418       0.31050076 </v>
    <v>       0.54774795       0.31543346       0.32735113 </v>
    <v>       0.81303422       0.31120421       0.31595213 </v>
    <v>       0.08463841       0.56563391       0.29098172 </v>
    <v>       0.31369001       0.56349424       0.31207450 </v>
    <v>       0.55412234       0.57421665       0.30678399 </v>
    <v>       0.81368031       0.55382852       0.31074052 </v>
    <v>       0.07266273       0.81614561       0.30457806 </v>
    <v>       0.31711263       0.81132168       0.31146936 </v>
    <v>       0.56119325       0.80449005       0.31827751 </v>
    <v>       0.81103167       0.81378558       0.31955621 </v>
    <v>       0.07102100       0.04831774       0.56746090 </v>
    <v>       0.32434466       0.04841420       0.56872512 </v>
    <v>       0.57007751       0.05643080       0.55323735 </v>
    <v>       0.80291442       0.06661210       0.55409030 </v>
    <v>       0.05869793       0.31732376       0.56243059 </v>
    <v>       0.32649362       0.30537460       0.55875327 </v>
    <v>       0.55128225       0.31396303       0.57390936 </v>
    <v>       0.81079868       0.29838195       0.57686169 </v>
    <v>       0.06429408       0.56854445       0.55138298 </v>
    <v>       0.31195405       0.56743070       0.56377221 </v>
    <v>       0.56595050       0.55752706       0.55940316 </v>
    <v>       0.81447293       0.55981340       0.55829964 </v>
    <v>       0.05381066       0.80666743       0.56979642 </v>
    <v>       0.31071237       0.80341698       0.57179312 </v>
    <v>       0.57054731       0.80959597       0.56991318 </v>
    <v>       0.80683388       0.81670763       0.55693987 </v>
    <v>       0.06774108       0.05475168       0.80741394 </v>
    <v>       0.30549618       0.06824406       0.81198313 </v>
    <v>       0.56053953       0.06168710       0.80892249 </v>
    <v>       0.80982515       0.05987530       0.82037222 </v>
    <v>       0.04811676       0.31287343       0.82517892 </v>
    <v>       0.31401678       0.30629529       0.81759832 </v>
    <v>       0.56609634       0.31452901       0.80552034 </v>
    <v>       0.80943677       0.31454425       0.81460679 </v>
    <v>       0.06106196       0.57087337       0.80860054 </v>
    <v>       0.31379812       0.56343925       0.80863485 </v>
    <v>       0.56622794       0.55696544       0.81577591 </v>
    <v>       0.81654505       0.57145428       0.80515090 </v>
    <v>       0.07084523       0.81606535       0.80907736 </v>
    <v>       0.31312106       0.81204568       0.81587789 </v>
    <v>       0.56936034       0.79949996       0.81850565 </v>
    <v>       0.81424328       0.81976599       0.81902479 </v>
   </varray>
  </structure>
  <varray name="forces" >
   <v>      -1.45844817       0.16713066      -0.17930424 </v>
   <v>       1.72838696      -0.29283072      -1.86655639 </v>
   <v>       0.77918221       2.30327111       0.02216060 </v>
   <v>       1.58424015      -0.78575772      -1.29971013 </v>
   <v>      -0.87984807       4.62783093       0.77613507 </v>
   <v>      -0.92364002       0.80321879      -0.31600051 </v>
   <v>       0.68801803      -1.34305966       1.79880128 </v>
   <v>      -0.83482624       0.13938563      -0.02248005 </v>
   <v>       1.02746160      -1.40572350      -0.64868385 </v>
   <v>       0.41859466      -1.07784701       0.10576680 </v>
   <v>       1.33113998      -0.02716324      -1.33919658 </v>
   <v>      -0.87942307      -1.37257712      -1.87380944 </v>
   <v>      -0.90653622      -1.14964630      -1.71021723 </v>
   <v>       0.39389368      -1.06134091      -0.82769991 </v>
   <v>      -1.37997153       1.10092600      -0.64836430 </v>
   <v>       2.09456070       0.94848025       0.80105019 </v>
   <v>       0.48073324       1.62656233       1.33615844 </v>
   <v>      -0.12647238      -0.02563803       0.05379118 </v>
   <v>       0.36369541      -0.71850417      -0.60183992 </v>
   <v>       0.58676016      -1.83828836       1.16951643 </v>
   <v>       1.24735459       1.26661676      -0.98980489 </v>
   <v>      -2.19837253       0.52883608      -0.04595426 </v>
   <v>      -1.26275544      -0.19624295      -0.45736065 </v>
   <v>       1.70940882       0.55332412       0.19908233 </v>
   <v>      -1.33276613       0.22173714      -1.17930406 </v>
   <v>      -0.15129278       1.64429458       1.71925865 </v>
   <v>      -1.14922449      -0.03197245      -1.47186589 </v>
   <v>       0.55979426      -1.41868747       0.29119832 </v>
   <v>      -0.28998306       2.37635876      -0.69973850 </v>
   <v>      -0.92751926       0.08607276       0.47018137 </v>
   <v>      -1.79416964      -0.00007349       1.35022389 </v>
   <v>      -0.42091713       0.42504898       1.66297773 </v>
   <v>       0.32788185      -0.07751061      -2.30058547 </v>
   <v>      -0.74659738       2.02129055       0.89137375 </v>
   <v>      -1.90986480      -2.55438806      -1.47123763 </v>
   <v>      -0.29651979       0.58459444       0.95201706 </v>
   <v>      -2.25348126      -0.70278968      -0.41515881 </v>
   <v>      -0.44587476       0.63271790      -0.83239384 </v>
   <v>      -0.56943666       1.66646271      -1.80898667 </v>
   <v>      -0.50299976      -1.42211974      -1.02215929 </v>
   <v>      -0.96884720      -1.47498098       2.24433089 </v>
   <v>      -0.83421426       1.81233858       1.24190255 </v>
   <v>      -1.73058159      -0.01442018       0.21603999 </v>
   <v>      -1.89058307       1.19400674       0.24382799 </v>
   <v>      -0.28325362      -1.11385435      -1.30797509 </v>
   <v>      -1.03126237       0.69333655       1.41239173 </v>
   <v>       0.22960836       2.00271075      -0.28778491 </v>
   <v>      -1.09855866       0.46234429      -0.45855675 </v>
   <v>      -0.77223021       1.31198331      -1.09120486 </v>
   <v>      -0.23629391       2.31736500       0.03124074 </v>
   <v>      -2.33339720      -1.50542358      -2.21659153 </v>
   <v>       0.10369364      -0.89939729       2.83193362 </v>
   <v>      -0.56248399       1.13349931      -0.18589746 </v>
   <v>      -0.44511636      -2.26744351      -0.41969713 </v>
   <v>       3.07473787       0.88950532      -0.02690178 </v>
   <v>       2.01226641       0.09219835       0.51924986 </v>
   <v>       0.47580250       0.67032232       0.84716161 </v>
   <v>      -0.72238965      -0.45231898      -1.49719794 </v>
   <v>       1.03421315       3.19077271      -0.14454355 </v>
   <v>       0.94971157       1.53823830      -0.99021224 </v>
   <v>       1.10630456       1.18258956      -0.22895564 </v>
   <v>      -0.76586213      -1.21010003      -1.26417015 </v>
   <v>      -0.40851576       1.14296158      -2.22829302 </v>
   <v>       0.57422007      -2.26998752       2.31835464 </v>
   <v>      -1.36979267      -1.58333293       1.70014607 </v>
   <v>       0.52104413      -0.38235204      -0.03784498 </v>
   <v>      -2.30064456       0.83267464      -1.10512656 </v>
   <v>       1.80912859       1.00296081       0.69193006 </v>
   <v>      -0.53092675      -2.55285532      -0.26189071 </v>
   <v>       0.09504009       0.91049354       0.24858719 </v>
   <v>      -0.33219376       0.58908427      -0.89282221 </v>
   <v>       1.79254398      -2.15128077      -1.15418418 </v>
   <v>      -0.23725610       0.14365907       0.83280091 </v>
   <v>      -1.21345588       0.28500357       1.03119208 </v>
   <v>       0.20431531       0.83970140       1.86783120 </v>
   <v>      -0.54089193       3.04748438      -0.19594037 </v>
   <v>       0.68314700       0.15944139       2.73419155 </v>
   <v>       0.90618733      -0.75171182       0.02626317 </v>
   <v>       1.50007288      -0.01028522      -0.32823699 </v>
   <v>      -0.58896994       0.67113376      -1.86480503 </v>
   <v>      -1.40906128      -0.21801765       0.23505396 </v>
   <v>       0.02793207       0.05909566       0.68907137 </v>
   <v>       0.53944685       1.71051625       0.53787398 </v>
   <v>      -0.13217620      -1.01008168      -1.75127501 </v>
   <v>       2.24024038      -0.74927005      -1.01498787 </v>
   <v>       0.67170518       0.50961736      -0.22908191 </v>
   <v>      -1.30313788      -1.17253581       2.80953090 </v>
   <v>      -0.64569559      -0.48283913      -0.55238299 </v>
   <v>       3.66880152      -1.24802901      -1.90947079 </v>
   <v>      -0.05859848      -0.29330985      -0.69604151 </v>
   <v>       0.07289581       2.02206732       0.33690846 </v>
   <v>       0.86863957       0.33249537       0.30232022 </v>
   <v>       0.43708724      -0.80655415      -1.27199975 </v>
   <v>       2.11285140      -0.70382374      -1.27791956 </v>
   <v>       0.38029661      -0.63702612       1.01357413 </v>
   <v>      -1.18100470      -0.54506875      -1.20956713 </v>
   <v>       1.55294803      -1.82528138       0.77575892 </v>
   <v>      -0.31384882      -2.21836876       0.84800409 </v>
   <v>       3.65098305       0.81885214       1.25381323 </v>
   <v>       0.40661689       1.97307557       0.17066163 </v>
   <v>      -0.40013731       1.66883723       0.00847550 </v>
   <v>       1.96646730      -0.92223265      -1.18395945 </v>
   <v>      -1.05233564      -0.82804096       2.85400420 </v>
   <v>       0.47646865      -0.64854723       1.99507913 </v>
   <v>       1.08185736       0.04501510      -1.05306647 </v>
   <v>      -0.08334076      -1.17937216      -1.17453336 </v>
   <v>       0.81133466      -1.91228098       1.15987507 </v>
   <v>       0.35561901      -1.07035582       0.37669459 </v>
   <v>       0.66886551      -1.15058792       1.80343210 </v>
   <v>       0.36787975      -1.16387812       0.44770505 </v>
   <v>      -0.93502665      -2.11751498      -0.22543792 </v>
   <v>       0.59025842       2.35418267       0.30959857 </v>
   <v>       2.81292567      -0.78370689      -0.26210760 </v>
   <v>      -1.47101948       0.27448069       0.40786981 </v>
   <v>       0.39378707       0.86737870       0.42485705 </v>
   <v>      -1.68477583      -1.06712915      -0.31913256 </v>
   <v>      -2.05402462      -0.93619067       1.91196222 </v>
   <v>       0.67282183       0.03249825       1.64467236 </v>
   <v>       0.19224185      -0.26716302      -1.25911362 </v>
   <v>       0.03733948      -0.59538116      -0.19432411 </v>
   <v>      -1.05441457       0.31095197      -0.54415645 </v>
   <v>       1.26546925       0.56308540      -0.25865544 </v>
   <v>      -0.91847973      -2.67253878       1.16697902 </v>
   <v>      -1.65029749       0.90345663      -1.99283185 </v>
   <v>       0.07629761      -0.64992428       0.16418736 </v>
   <v>       1.17214869       0.58520269       1.49199662 </v>
   <v>       1.34569802      -0.72460030       1.44262079 </v>
   <v>      -2.12503131      -0.12922216      -0.62435840 </v>
  </varray>
  <varray name="stress" >
   <v>      17.30939167       5.06318976      -7.66763063 </v>
   <v>       5.06318977      15.26484439       5.16877137 </v>
   <v>      -7.66763063       5.16877137      15.71901499 </v>
  </varray>
  <energy>
   <i name="e_fr_energy">   -676.91186308 </i>
   <i name="e_wo_entrp">   -676.91186308 </i>
   <i name="e_0_energy">     -0.00000000 </i>
  </energy>
  <time name="totalsc"> 1616.57 1617.01</time>
  <eigenvalues>
   <array>
    <dimension dim="1">band</dimension>
    <dimension dim="2">kpoint</dimension>
    <dimension dim="3">spin</dimension>
    <field>eigene</field>
    <field>occ</field>
    <set>
     <set comment="spin 1">
      <set comment="kpoint 1">
       <r>   -6.3027    1.0000 </r>
       <r>   -5.6794    1.0000 </r>
       <r>   -5.6081    1.0000 </r>
       <r>   -5.6026    1.0000 </r>
       <r>   -5.5753    1.0000 </r>
       <r>   -5.5603    1.0000 </r>
       <r>   -5.4939    1.0000 </r>
       <r>   -5.4580    1.0000 </r>
       <r>   -5.3984    1.0000 </r>
       <r>   -5.3481    1.0000 </r>
       <r>   -5.2748    1.0000 </r>
       <r>   -5.2586    1.0000 </r>
       <r>   -5.2393    1.0000 </r>
       <r>   -5.1156    1.0000 </r>
       <r>   -5.0868    1.0000 </r>
       <r>   -4.6113    1.0000 </r>
       <r>   -4.4905    1.0000 </r>
       <r>   -4.4661    1.0000 </r>
       <r>   -4.3936    1.0000 </r>
       <r>   -4.3626    1.0000 </r>
       <r>   -4.3400    1.0000 </r>
       <r>   -4.3357    1.0000 </r>
       <r>   -4.2786    1.0000 </r>
       <r>   -4.2337    1.0000 </r>
       <r>   -4.2127    1.0000 </r>
       <r>   -4.1927    1.0000 </r>
       <r>   -4.1432    1.0000 </r>
       <r>   -4.1102    1.0000 </r>
       <r>   -4.0354    1.0000 </r>
       <r>   -4.0223    1.0000 </r>
       <r>   -3.9880    1.0000 </r>
       <r>   -3.8647    1.0000 </r>
       <r>   -3.8325    1.0000 </r>
       <r>   -3.8201    1.0000 </r>
       <r>   -3.7835    1.0000 </r>
       <r>   -3.7716    1.0000 </r>
       <r>   -3.6974    1.0000 </r>
       <r>   -3.6797    1.0000 </r>
       <r>   -3.6369    1.0000 </r>
       <r>   -3.6348    1.0000 </r>
       <r>   -3.6247    1.0000 </r>
       <r>   -3.5875    1.0000 </r>
       <r>   -3.5799    1.0000 </r>
       <r>   -3.5433    1.0000 </r>
       <r>   -3.5235    1.0000 </r>
       <r>   -3.5033    1.0000 </r>
       <r>   -3.4731    1.0000 </r>
       <r>   -3.4687    1.0000 </r>
       <r>   -3.4455    1.0000 </r>
       <r>   -3.4210    1.0000 </r>
       <r>   -3.3701    1.0000 </r>
       <r>   -3.3477    1.0000 </r>
       <r>   -3.3240    1.0000 </r>
       <r>   -3.2651    1.0000 </r>
       <r>   -3.2600    1.0000 </r>
       <r>   -2.4200    1.0000 </r>
       <r>   -2.3343    1.0000 </r>
       <r>   -2.2883    1.0000 </r>
       <r>   -2.2520    1.0000 </r>
       <r>   -2.2314    1.0000 </r>
       <r>   -2.2093    1.0000 </r>
       <r>   -2.1969    1.0000 </r>
       <r>   -2.1236    1.0000 </r>
       <r>   -2.0851    1.0000 </r>
       <r>   -2.0616    1.0000 </r>
       <r>   -2.0194    1.0000 </r>
       <r>   -1.9686    1.0000 </r>
       <r>   -1.9525    1.0000 </r>
       <r>   -1.9340    1.0000 </r>
       <r>   -1.8880    1.0000 </r>
       <r>   -1.8356    1.0000 </r>
       <r>   -1.7716    1.0000 </r>
       <r>   -1.7448    1.0000 </r>
       <r>   -1.3849    1.0000 </r>
       <r>   -1.3583    1.0000 </r>
       <r>   -1.2619    1.0000 </r>
       <r>   -1.1946    1.0000 </r>
       <r>   -1.0565    1.0000 </r>
       <r>   -1.0016    1.0000 </r>
       <r>   -0.9472    1.0000 </r>
       <r>   -0.9270    1.0000 </r>
       <r>   -0.9001    1.0000 </r>
       <r>   -0.8909    1.0000 </r>
       <r>   -0.8754    1.0000 </r>
       <r>   -0.8330    1.0000 </r>
       <r>   -0.8253    1.0000 </r>
       <r>   -0.7935    1.0000 </r>
       <r>   -0.7846    1.0000 </r>
       <r>   -0.7791    1.0000 </r>
       <r>   -0.7135    1.0000 </r>
       <r>   -0.6831    1.0000 </r>
       <r>   -0.6643    1.0000 </r>
       <r>   -0.6472    1.0000 </r>
       <r>   -0.6136    1.0000 </r>
       <r>   -0.5829    1.0000 </r>
       <r>   -0.5686    1.0000 </r>
       <r>   -0.5354    1.0000 </r>
       <r>   -0.5107    1.0000 </r>
       <r>   -0.4898    1.0000 </r>
       <r>   -0.3906    1.0000 </r>
       <r>   -0.2986    1.0000 </r>
       <r>   -0.0900    1.0000 </r>
       <r>    0.0078    1.0000 </r>
       <r>    0.0676    1.0000 </r>
       <r>    0.1277    1.0000 </r>
       <r>    0.1378    1.0000 </r>
       <r>    0.1541    1.0000 </r>
       <r>    0.1815    1.0000 </r>
       <r>    0.2188    1.0000 </r>
       <r>    0.2543    1.0000 </r>
       <r>    0.3620    1.0000 </r>
       <r>    0.3679    1.0000 </r>
       <r>    0.3779    1.0000 </r>
       <r>    1.4367    1.0000 </r>
       <r>    1.4796    1.0000 </r>
       <r>    1.5185    1.0000 </r>
       <r>    1.5477    1.0000 </r>
       <r>    1.5747    1.0000 </r>
       <r>    1.5941    1.0000 </r>
       <r>    1.6229    1.0000 </r>
       <r>    1.6277    1.0000 </r>
       <r>    1.6460    1.0000 </r>
       <r>    1.6578    1.0000 </r>
       <r>    1.6845    1.0000 </r>
       <r>    1.6918    1.0000 </r>
       <r>    1.6975    1.0000 </r>
       <r>    1.7224    1.0000 </r>
       <r>    1.7432    1.0000 </r>
       <r>    1.7519    1.0000 </r>
       <r>    1.7641    1.0000 </r>
       <r>    1.7741    1.0000 </r>
       <r>    1.7857    1.0000 </r>
       <r>    1.8083    1.0000 </r>
       <r>    1.8345    1.0000 </r>
       <r>    1.8404    1.0000 </r>
       <r>    1.8577    1.0000 </r>
       <r>    1.8611    1.0000 </r>
       <r>    1.8716    1.0000 </r>
       <r>    1.8910    1.0000 </r>
       <r>    1.9118    1.0000 </r>
       <r>    1.9185    1.0000 </r>
       <r>    1.9199    1.0000 </r>
       <r>    1.9471    1.0000 </r>
       <r>    1.9493    1.0000 </r>
       <r>    1.9684    1.0000 </r>
       <r>    1.9732    1.0000 </r>
       <r>    1.9892    1.0000 </r>
       <r>    2.0021    1.0000 </r>
       <r>    2.0138    1.0000 </r>
       <r>    2.0181    1.0000 </r>
       <r>    2.0553    1.0000 </r>
       <r>    2.0619    1.0000 </r>
       <r>    2.0772    1.0000 </r>
       <r>    2.0963    1.0000 </r>
       <r>    2.1107    1.0000 </r>
       <r>    2.1222    1.0000 </r>
       <r>    2.1329    1.0000 </r>
       <r>    2.1536    1.0000 </r>
       <r>    2.1698    1.0000 </r>
       <r>    2.1763    1.0000 </r>
       <r>    2.1908    1.0000 </r>
       <r>    2.2063    1.0000 </r>
       <r>    2.2334    1.0000 </r>
       <r>    2.2379    1.0000 </r>
       <r>    2.2640    1.0000 </r>
       <r>    2.2731    1.0000 </r>
       <r>    2.2982    1.0000 </r>
       <r>    2.3234    1.0000 </r>
       <r>    2.3436    1.0000 </r>
       <r>    2.3588    1.0000 </r>
       <r>    2.3626    1.0000 </r>
       <r>    2.3871    1.0000 </r>
       <r>    2.4187    1.0000 </r>
       <r>    2.4875    1.0000 </r>
       <r>    2.5428    1.0000 </r>
       <r>    2.7625    1.0000 </r>
       <r>    2.7925    1.0000 </r>
       <r>    2.8228    1.0000 </r>
       <r>    2.8434    1.0000 </r>
       <r>    2.8525    1.0000 </r>
       <r>    2.8912    1.0000 </r>
       <r>    3.2025    1.0000 </r>
       <r>    3.2333    1.0000 </r>
       <r>    3.2567    1.0000 </r>
       <r>    3.2793    1.0000 </r>
       <r>    3.2940    1.0000 </r>
       <r>    3.3100    1.0000 </r>
       <r>    3.3448    1.0000 </r>
       <r>    3.3615    1.0000 </r>
       <r>    3.3707    1.0000 </r>
       <r>    3.3944    1.0000 </r>
       <r>    3.4038    1.0000 </r>
       <r>    3.4159    1.0000 </r>
       <r>    3.4345    1.0000 </r>
       <r>    3.4580    1.0000 </r>
       <r>    3.4664    1.0000 </r>
       <r>    3.4762    1.0000 </r>
       <r>    3.5023    1.0000 </r>
       <r>    3.5113    1.0000 </r>
       <r>    3.5431    1.0000 </r>
       <r>    3.5481    1.0000 </r>
       <r>    3.5718    1.0000 </r>
       <r>    3.5894    1.0000 </r>
       <r>    3.6084    1.0000 </r>
       <r>    3.6170    1.0000 </r>
       <r>    3.6546    1.0000 </r>
       <r>    3.6746    1.0000 </r>
       <r>    3.7105    1.0000 </r>
       <r>    3.7239    1.0000 </r>
       <r>    3.7815    1.0000 </r>
       <r>    3.8014    1.0000 </r>
       <r>    3.8209    1.0000 </r>
       <r>    3.8343    1.0000 </r>
       <r>    3.8647    1.0000 </r>
       <r>    3.9099    1.0000 </r>
       <r>    3.9148    1.0000 </r>
       <r>    3.9412    1.0000 </r>
       <r>    4.0928    1.0000 </r>
       <r>    4.1704    1.0000 </r>
       <r>    4.1994    1.0000 </r>
       <r>    4.2220    1.0000 </r>
       <r>    4.2359    1.0000 </r>
       <r>    4.2687    1.0000 </r>
       <r>    4.3255    1.0000 </r>
       <r>    4.3437    1.0000 </r>
       <r>    4.3584    1.0000 </r>
       <r>    4.3893    1.0000 </r>
       <r>    4.4051    1.0000 </r>
       <r>    4.4242    1.0000 </r>
       <r>    4.4398    1.0000 </r>
       <r>    4.4762    1.0000 </r>
       <r>    4.5230    1.0000 </r>
       <r>    4.5456    1.0000 </r>
       <r>    4.5637    1.0000 </r>
       <r>    4.6304    1.0000 </r>
       <r>    4.6465    1.0000 </r>
       <r>    4.6722    1.0000 </r>
       <r>    4.7124    1.0000 </r>
       <r>    4.7330    1.0000 </r>
       <r>    4.7766    1.0000 </r>
       <r>    4.8366    1.0000 </r>
       <r>    4.8438    1.0000 </r>
       <r>    4.9000    1.0000 </r>
       <r>    4.9460    1.0000 </r>
       <r>    4.9631    1.0000 </r>
       <r>    4.9664    1.0000 </r>
       <r>    5.0120    1.0000 </r>
       <r>    5.0371    1.0000 </r>
       <r>    5.1192    1.0000 </r>
       <r>    5.1443    1.0000 </r>
       <r>    5.1835    1.0000 </r>
       <r>    5.2864    1.0000 </r>
       <r>    5.3400    1.0000 </r>
       <r>    5.6581    1.0000 </r>
       <r>    5.6823    1.0000 </r>
       <r>    5.9093    1.0000 </r>
       <r>    6.1370    0.0000 </r>
       <r>    6.1650    0.0000 </r>
       <r>    6.2142    0.0000 </r>
       <r>    6.2937    0.0000 </r>
       <r>    6.3373    0.0000 </r>
       <r>    6.3474    0.0000 </r>
       <r>    6.4163    0.0000 </r>
       <r>    6.5281    0.0000 </r>
       <r>    6.6106    0.0000 </r>
       <r>    6.6330    0.0000 </r>
       <r>    6.6874    0.0000 </r>
       <r>    6.7581    0.0000 </r>
       <r>    6.7668    0.0000 </r>
       <r>    6.8077    0.0000 </r>
       <r>    6.8323    0.0000 </r>
       <r>    6.8557    0.0000 </r>
       <r>    6.8657    0.0000 </r>
       <r>    6.9011    0.0000 </r>
       <r>    6.9209    0.0000 </r>
       <r>    6.9316    0.0000 </r>
       <r>    6.9678    0.0000 </r>
       <r>    6.9749    0.0000 </r>
       <r>    6.9953    0.0000 </r>
       <r>    7.0066    0.0000 </r>
       <r>    7.0352    0.0000 </r>
       <r>    7.0424    0.0000 </r>
       <r>    7.0549    0.0000 </r>
       <r>    7.0999    0.0000 </r>
       <r>    7.1181    0.0000 </r>
       <r>    7.1253    0.0000 </r>
       <r>    7.1314    0.0000 </r>
       <r>    7.1579    0.0000 </r>
       <r>    7.1664    0.0000 </r>
       <r>    7.1859    0.0000 </r>
       <r>    7.2340    0.0000 </r>
       <r>    7.2398    0.0000 </r>
       <r>    7.2638    0.0000 </r>
       <r>    7.3062    0.0000 </r>
       <r>    7.3447    0.0000 </r>
       <r>    7.3744    0.0000 </r>
       <r>    7.4683    0.0000 </r>
       <r>    7.4781    0.0000 </r>
       <r>    7.5082    0.0000 </r>
       <r>    7.5147    0.0000 </r>
       <r>    7.5417    0.0000 </r>
       <r>    7.5514    0.0000 </r>
       <r>    7.5610    0.0000 </r>
       <r>    7.6267    0.0000 </r>
       <r>    7.7462    0.0000 </r>
       <r>    7.8145    0.0000 </r>
       <r>    7.8322    0.0000 </r>
       <r>    7.8823    0.0000 </r>
       <r>    7.9281    0.0000 </r>
       <r>    7.9732    0.0000 </r>
       <r>    7.9828    0.0000 </r>
       <r>    7.9898    0.0000 </r>
       <r>    8.0465    0.0000 </r>
       <r>    8.0739    0.0000 </r>
       <r>    8.1156    0.0000 </r>
       <r>    8.1389    0.0000 </r>
       <r>    8.1498    0.0000 </r>
       <r>    8.1985    0.0000 </r>
       <r>    8.2338    0.0000 </r>
       <r>    8.4850    0.0000 </r>
       <r>    8.5447    0.0000 </r>
       <r>    8.5910    0.0000 </r>
      </set>
      <set comment="kpoint 2">
       <r>   -6.1422    1.0000 </r>
       <r>   -6.0742    1.0000 </r>
       <r>   -5.7093    1.0000 </r>
       <r>   -5.6376    1.0000 </r>
       <r>   -5.6238    1.0000 </r>
       <r>   -5.5875    1.0000 </r>
       <r>   -5.5233    1.0000 </r>
       <r>   -5.4723    1.0000 </r>
       <r>   -5.2156    1.0000 </r>
       <r>   -5.1599    1.0000 </r>
       <r>   -5.1397    1.0000 </r>
       <r>   -5.0941    1.0000 </r>
       <r>   -4.9942    1.0000 </r>
       <r>   -4.9857    1.0000 </r>
       <r>   -4.7220    1.0000 </r>
       <r>   -4.7156    1.0000 </r>
       <r>   -4.6495    1.0000 </r>
       <r>   -4.6382    1.0000 </r>
       <r>   -4.5592    1.0000 </r>
       <r>   -4.5012    1.0000 </r>
       <r>   -4.4911    1.0000 </r>
       <r>   -4.4358    1.0000 </r>
       <r>   -4.3302    1.0000 </r>
[...]
       <r>    -3.1155    45.5194   101.2578 </r>
       <r>    -3.0609    51.1748   104.0525 </r>
       <r>    -3.0063    40.3966   106.2586 </r>
       <r>    -2.9516    33.9624   108.1133 </r>
       <r>    -2.8970    39.8475   110.2895 </r>
       <r>    -2.8424    30.8231   111.9728 </r>
       <r>    -2.7878    30.4642   113.6365 </r>
       <r>    -2.7332    28.7591   115.2071 </r>
       <r>    -2.6786    32.8002   116.9983 </r>
       <r>    -2.6240    34.7940   118.8984 </r>
       <r>    -2.5694    36.9666   120.9172 </r>
       <r>    -2.5148    19.3528   121.9741 </r>
       <r>    -2.4602    13.8996   122.7331 </r>
       <r>    -2.4055     4.7936   122.9949 </r>
       <r>    -2.3509     0.1368   123.0024 </r>
       <r>    -2.2963     5.1335   123.2827 </r>
       <r>    -2.2417    13.3184   124.0100 </r>
       <r>    -2.1871    33.2005   125.8231 </r>
       <r>    -2.1325    20.8448   126.9615 </r>
       <r>    -2.0779    31.7042   128.6929 </r>
       <r>    -2.0233    20.3605   129.8048 </r>
       <r>    -1.9687    15.0609   130.6273 </r>
       <r>    -1.9140    26.4726   132.0730 </r>
       <r>    -1.8594     7.8206   132.5001 </r>
       <r>    -1.8048     4.5761   132.7500 </r>
       <r>    -1.7502     9.5041   133.2690 </r>
       <r>    -1.6956     7.4393   133.6753 </r>
       <r>    -1.6410    11.5217   134.3045 </r>
       <r>    -1.5864    20.6230   135.4307 </r>
       <r>    -1.5318    44.4524   137.8583 </r>
       <r>    -1.4772    37.8992   139.9280 </r>
       <r>    -1.4226    43.8096   142.3205 </r>
       <r>    -1.3679    35.8568   144.2786 </r>
       <r>    -1.3133    50.4086   147.0315 </r>
       <r>    -1.2587    50.9443   149.8136 </r>
       <r>    -1.2041    52.1054   152.6591 </r>
       <r>    -1.1495    72.2226   156.6032 </r>
       <r>    -1.0949    63.0097   160.0442 </r>
       <r>    -1.0403    75.8489   164.1864 </r>
       <r>    -0.9857    72.7368   168.1586 </r>
       <r>    -0.9311    52.7706   171.0404 </r>
       <r>    -0.8764    79.5199   175.3831 </r>
       <r>    -0.8218    52.4702   178.2485 </r>
       <r>    -0.7672    55.1563   181.2607 </r>
       <r>    -0.7126    38.1689   183.3451 </r>
       <r>    -0.6580    43.3074   185.7102 </r>
       <r>    -0.6034    38.4643   187.8107 </r>
       <r>    -0.5488    26.2202   189.2427 </r>
       <r>    -0.4942    24.0070   190.5537 </r>
       <r>    -0.4396    17.6155   191.5157 </r>
       <r>    -0.3850    43.3652   193.8839 </r>
       <r>    -0.3303    42.1999   196.1885 </r>
       <r>    -0.2757    38.9958   198.3181 </r>
       <r>    -0.2211    55.2574   201.3357 </r>
       <r>    -0.1665    45.7844   203.8360 </r>
       <r>    -0.1119    53.7427   206.7710 </r>
       <r>    -0.0573    39.4340   208.9245 </r>
       <r>    -0.0027    25.3365   210.3081 </r>
       <r>     0.0519    36.1604   212.2829 </r>
       <r>     0.1065    17.9052   213.2607 </r>
       <r>     0.1612    17.3992   214.2109 </r>
       <r>     0.2158    11.2646   214.8261 </r>
       <r>     0.2704    20.2750   215.9333 </r>
       <r>     0.3250    15.8706   216.8000 </r>
       <r>     0.3796    28.5274   218.3579 </r>
       <r>     0.4342    21.7222   219.5442 </r>
       <r>     0.4888    27.5702   221.0498 </r>
       <r>     0.5434    25.4858   222.4416 </r>
       <r>     0.5980    18.8843   223.4729 </r>
       <r>     0.6526    19.4919   224.5374 </r>
       <r>     0.7073    22.0552   225.7418 </r>
       <r>     0.7619    13.2820   226.4672 </r>
       <r>     0.8165    13.3381   227.1956 </r>
       <r>     0.8711     7.9705   227.6309 </r>
       <r>     0.9257    20.6499   228.7586 </r>
       <r>     0.9803    29.8117   230.3866 </r>
       <r>     1.0349    17.1690   231.3242 </r>
       <r>     1.0895    29.4429   232.9321 </r>
       <r>     1.1441    24.4247   234.2660 </r>
       <r>     1.1988    18.3315   235.2671 </r>
       <r>     1.2534    27.8934   236.7904 </r>
       <r>     1.3080    35.6114   238.7351 </r>
       <r>     1.3626    34.9067   240.6414 </r>
       <r>     1.4172    35.8726   242.6004 </r>
       <r>     1.4718    48.9430   245.2732 </r>
       <r>     1.5264    99.4671   250.7052 </r>
       <r>     1.5810    86.7759   255.4441 </r>
       <r>     1.6356    90.5827   260.3909 </r>
       <r>     1.6902    66.7037   264.0336 </r>
       <r>     1.7449    61.0686   267.3687 </r>
       <r>     1.7995    55.9446   270.4238 </r>
       <r>     1.8541    31.1014   272.1223 </r>
       <r>     1.9087    22.7745   273.3660 </r>
       <r>     1.9633    22.0499   274.5702 </r>
       <r>     2.0179    28.7936   276.1426 </r>
       <r>     2.0725    63.4480   279.6076 </r>
       <r>     2.1271    92.5091   284.6595 </r>
       <r>     2.1817    98.3565   290.0309 </r>
       <r>     2.2364   133.4125   297.3166 </r>
       <r>     2.2910   113.2142   303.4993 </r>
       <r>     2.3456   119.0257   309.9994 </r>
       <r>     2.4002   107.0361   315.8447 </r>
       <r>     2.4548    81.3874   320.2894 </r>
       <r>     2.5094    42.2185   322.5950 </r>
       <r>     2.5640    33.0513   324.4000 </r>
       <r>     2.6186    32.9203   326.1978 </r>
       <r>     2.6732    62.5094   329.6114 </r>
       <r>     2.7278    85.4086   334.2756 </r>
       <r>     2.7825    93.3242   339.3721 </r>
       <r>     2.8371    84.0675   343.9631 </r>
       <r>     2.8917   109.7539   349.9568 </r>
       <r>     2.9463    78.8904   354.2651 </r>
       <r>     3.0009   103.5811   359.9217 </r>
       <r>     3.0555    99.8269   365.3734 </r>
       <r>     3.1101    67.9067   369.0819 </r>
       <r>     3.1647    77.0344   373.2887 </r>
       <r>     3.2193    80.5280   377.6864 </r>
       <r>     3.2740    94.1292   382.8269 </r>
       <r>     3.3286    87.7384   387.6184 </r>
       <r>     3.3832    98.0779   392.9745 </r>
       <r>     3.4378   111.9343   399.0873 </r>
       <r>     3.4924    78.6086   403.3801 </r>
       <r>     3.5470    78.8439   407.6859 </r>
       <r>     3.6016    86.3578   412.4019 </r>
       <r>     3.6562    73.7386   416.4289 </r>
       <r>     3.7108    77.1680   420.6431 </r>
       <r>     3.7654    77.4532   424.8729 </r>
       <r>     3.8201    82.2690   429.3657 </r>
       <r>     3.8747    81.7331   433.8292 </r>
       <r>     3.9293    71.8647   437.7538 </r>
       <r>     3.9839    73.3509   441.7596 </r>
       <r>     4.0385    60.9423   445.0877 </r>
       <r>     4.0931    68.1323   448.8084 </r>
       <r>     4.1477    62.3226   452.2119 </r>
       <r>     4.2023    75.5310   456.3367 </r>
       <r>     4.2569    71.0522   460.2169 </r>
       <r>     4.3116    74.9957   464.3125 </r>
       <r>     4.3662    70.7845   468.1781 </r>
       <r>     4.4208    78.2901   472.4536 </r>
       <r>     4.4754    63.7271   475.9338 </r>
       <r>     4.5300    59.1078   479.1617 </r>
       <r>     4.5846    55.3907   482.1866 </r>
       <r>     4.6392    65.5336   485.7654 </r>
       <r>     4.6938    54.5639   488.7452 </r>
       <r>     4.7484    36.6317   490.7457 </r>
       <r>     4.8030    18.2439   491.7420 </r>
       <r>     4.8577    24.8796   493.1007 </r>
       <r>     4.9123    41.0531   495.3427 </r>
       <r>     4.9669    48.3184   497.9813 </r>
       <r>     5.0215    38.4532   500.0813 </r>
       <r>     5.0761    12.0739   500.7407 </r>
       <r>     5.1307    40.5434   502.9548 </r>
       <r>     5.1853    12.6287   503.6444 </r>
       <r>     5.2399     1.9329   503.7500 </r>
       <r>     5.2945     8.6359   504.2216 </r>
       <r>     5.3492    20.0620   505.3172 </r>
       <r>     5.4038    23.4393   506.5972 </r>
       <r>     5.4584    26.1918   508.0276 </r>
       <r>     5.5130    17.8123   509.0003 </r>
       <r>     5.5676    10.4751   509.5724 </r>
       <r>     5.6222    13.7316   510.3223 </r>
       <r>     5.6768    10.6986   510.9065 </r>
       <r>     5.7314    15.4452   511.7500 </r>
       <r>     5.7860     0.0000   511.7500 </r>
       <r>     5.8406     0.0000   511.7500 </r>
       <r>     5.8953     0.1063   511.7558 </r>
       <r>     5.9499     4.4715   512.0000 </r>
       <r>     6.0045     0.0000   512.0000 </r>
       <r>     6.0591     0.0000   512.0000 </r>
       <r>     6.1137     0.1042   512.0057 </r>
       <r>     6.1683    23.4158   513.2844 </r>
       <r>     6.2229    17.1767   514.2225 </r>
       <r>     6.2775     3.1548   514.3948 </r>
       <r>     6.3321    23.3688   515.6710 </r>
       <r>     6.3868    26.1443   517.0987 </r>
       <r>     6.4414    22.8456   518.3463 </r>
       <r>     6.4960    32.1161   520.1002 </r>
       <r>     6.5506    19.1457   521.1458 </r>
       <r>     6.6052     8.6145   521.6162 </r>
       <r>     6.6598    20.6357   522.7431 </r>
       <r>     6.7144    32.6801   524.5278 </r>
       <r>     6.7690    30.6777   526.2032 </r>
       <r>     6.8236    41.3274   528.4601 </r>
       <r>     6.8782    30.5740   530.1298 </r>
       <r>     6.9329    35.1342   532.0485 </r>
       <r>     6.9875    27.3534   533.5423 </r>
       <r>     7.0421    52.7486   536.4229 </r>
       <r>     7.0967    37.6511   538.4791 </r>
       <r>     7.1513    30.0503   540.1201 </r>
       <r>     7.2059    36.2463   542.0996 </r>
       <r>     7.2605    56.2211   545.1699 </r>
       <r>     7.3151    62.3133   548.5728 </r>
       <r>     7.3697    73.1564   552.5680 </r>
       <r>     7.4244    81.8434   557.0375 </r>
       <r>     7.4790    85.5103   561.7074 </r>
       <r>     7.5336    88.5824   566.5449 </r>
       <r>     7.5882    83.9928   571.1318 </r>
       <r>     7.6428    96.5515   576.4046 </r>
       <r>     7.6974    71.4550   580.3068 </r>
       <r>     7.7520    88.0830   585.1171 </r>
       <r>     7.8066    91.4421   590.1108 </r>
       <r>     7.8612   105.4744   595.8708 </r>
       <r>     7.9158    88.1809   600.6864 </r>
       <r>     7.9705    80.4359   605.0791 </r>
       <r>     8.0251    93.6570   610.1938 </r>
       <r>     8.0797    79.5606   614.5387 </r>
       <r>     8.1343    87.8095   619.3340 </r>
       <r>     8.1889    88.8374   624.1855 </r>
       <r>     8.2435    98.5944   629.5699 </r>
       <r>     8.2981    72.6521   633.5374 </r>
       <r>     8.3527    75.5993   637.6660 </r>
       <r>     8.4073    78.5831   641.9575 </r>
       <r>     8.4620    23.4949   643.2405 </r>
       <r>     8.5166     4.7513   643.5000 </r>
       <r>     8.5712     4.5887   643.7506 </r>
       <r>     8.6258     4.5665   644.0000 </r>
       <r>     8.6804     0.0000   644.0000 </r>
       <r>     8.7350     0.0000   644.0000 </r>
       <r>     8.7896     0.0000   644.0000 </r>
       <r>     8.8442     0.0000   644.0000 </r>
       <r>     8.8988     0.0000   644.0000 </r>
       <r>     8.9534     0.0000   644.0000 </r>
       <r>     9.0081     0.0000   644.0000 </r>
       <r>     9.0627     0.0000   644.0000 </r>
       <r>     9.1173     0.0000   644.0000 </r>
       <r>     9.1719     0.0000   644.0000 </r>
       <r>     9.2265     0.0000   644.0000 </r>
       <r>     9.2811     0.0000   644.0000 </r>
       <r>     9.3357     0.0000   644.0000 </r>
      </set>
     </set>
    </array>
   </total>
  </dos>
 </calculation>
 <structure name="finalpos" >
  <crystal>
   <varray name="basis" >
    <v>       0.00000000      10.93733369      10.93733369 </v>
    <v>      10.93733369       0.00000000      10.93733369 </v>
    <v>      10.93733369      10.93733369       0.00000000 </v>
   </varray>
   <i name="volume">   2616.76295363 </i>
   <varray name="rec_basis" >
    <v>      -0.04571498       0.04571498       0.04571498 </v>
    <v>       0.04571498      -0.04571498       0.04571498 </v>
    <v>       0.04571498       0.04571498      -0.04571498 </v>
   </varray>
  </crystal>
  <varray name="positions" >
   <v>       0.99868827       0.00960346       0.00476396 </v>
   <v>       0.27447180       0.99122089       0.98863913 </v>
   <v>       0.49603433       0.00987411       0.98717418 </v>
   <v>       0.76421847       0.99366929       0.99504722 </v>
   <v>       0.97802754       0.26328423       0.99772317 </v>
   <v>       0.25056134       0.25042638       0.00047810 </v>
   <v>       0.49467903       0.24604294       0.00807501 </v>
   <v>       0.74270417       0.25442479       0.00482768 </v>
   <v>       0.02121983       0.49151966       0.99422025 </v>
   <v>       0.25797855       0.49239129       0.00131257 </v>
   <v>       0.50298805       0.50450559       0.99095547 </v>
   <v>       0.75457944       0.51030281       0.99575990 </v>
   <v>       0.01657065       0.75165669       0.99480873 </v>
   <v>       0.26148577       0.74522078       0.00341820 </v>
   <v>       0.49750780       0.76080966       0.99929487 </v>
   <v>       0.75514724       0.74847738       0.99361557 </v>
   <v>       0.98894212       0.99757299       0.25506412 </v>
   <v>       0.24162237       0.00081705       0.25146128 </v>
   <v>       0.50389623       0.99385862       0.24769184 </v>
   <v>       0.74895898       0.99214195       0.25865846 </v>
   <v>       0.00101934       0.26040335       0.23708074 </v>
   <v>       0.24179169       0.25676510       0.25779305 </v>
   <v>       0.49696542       0.26129717       0.25093802 </v>
   <v>       0.74443873       0.25100965       0.24486664 </v>
   <v>       0.99989716       0.51406283       0.24860953 </v>
   <v>       0.25404464       0.49202464       0.24810324 </v>
   <v>       0.49837796       0.51322570       0.24549370 </v>
   <v>       0.75386405       0.49378404       0.24602721 </v>
   <v>       0.99412797       0.76657708       0.23980025 </v>
   <v>       0.25137910       0.74974768       0.25557598 </v>
   <v>       0.49212550       0.75733057       0.25391054 </v>
   <v>       0.74372085       0.74187779       0.25758239 </v>
   <v>       0.00612982       0.00783843       0.49168541 </v>
   <v>       0.24685828       0.99773316       0.49940217 </v>
   <v>       0.51094041       0.99601951       0.50406105 </v>
   <v>       0.74660730       0.99973112       0.49238095 </v>
   <v>       0.99628233       0.25259126       0.51039018 </v>
   <v>       0.25232082       0.25296261       0.49805737 </v>
   <v>       0.50488790       0.25771325       0.49805828 </v>
   <v>       0.75055991       0.25106270       0.50665104 </v>
   <v>       0.99352305       0.49260483       0.51683671 </v>
   <v>       0.24183479       0.49998874       0.50051548 </v>
   <v>       0.49085829       0.50807188       0.50329648 </v>
   <v>       0.74258784       0.50203129       0.50269820 </v>
   <v>       0.00449021       0.75585241       0.49229668 </v>
   <v>       0.23372655       0.75147708       0.51074784 </v>
   <v>       0.49314683       0.75631051       0.49718605 </v>
   <v>       0.75019781       0.75017536       0.50206718 </v>
   <v>       0.99295869       0.01188866       0.74466408 </v>
   <v>       0.24225058       0.00739169       0.74366939 </v>
   <v>       0.50413909       0.00613590       0.74890963 </v>
   <v>       0.73927486       0.99222668       0.76170852 </v>
   <v>       0.99346114       0.25395167       0.74909910 </v>
   <v>       0.24939588       0.24817316       0.76315784 </v>
   <v>       0.50495860       0.23771263       0.74403916 </v>
   <v>       0.75168996       0.23776490       0.75449510 </v>
   <v>       0.99992223       0.50050392       0.74268866 </v>
   <v>       0.25229561       0.50711746       0.74783873 </v>
   <v>       0.49199898       0.50601550       0.73248423 </v>
   <v>       0.75155172       0.50853869       0.73638407 </v>
   <v>       0.99975370       0.75558356       0.74682368 </v>
   <v>       0.26053915       0.74956590       0.75533308 </v>
   <v>       0.50080339       0.76305702       0.74560258 </v>
   <v>       0.75333449       0.74098460       0.76897652 </v>
   <v>       0.06359188       0.06047884       0.07852949 </v>
   <v>       0.31555347       0.05936611       0.06302424 </v>
   <v>       0.56369739       0.07134811       0.06085552 </v>
   <v>       0.81385901       0.05794417       0.05867907 </v>
   <v>       0.07202154       0.30550791       0.06228002 </v>
   <v>       0.30585484       0.30989217       0.06834871 </v>
   <v>       0.55731825       0.32383921       0.05931922 </v>
   <v>       0.81016081       0.31709393       0.06283475 </v>
   <v>       0.06417643       0.56204851       0.06395692 </v>
   <v>       0.30780988       0.56141539       0.06724249 </v>
   <v>       0.55321452       0.56584041       0.06071038 </v>
   <v>       0.81403874       0.57274881       0.04994773 </v>
   <v>       0.06318172       0.81064327       0.06344504 </v>
   <v>       0.32079964       0.80372879       0.06883983 </v>
   <v>       0.57128004       0.81616727       0.05247609 </v>
   <v>       0.82508649       0.81500908       0.05681949 </v>
   <v>       0.05043574       0.07431675       0.31247434 </v>
   <v>       0.30755654       0.06125515       0.31240612 </v>
   <v>       0.55299693       0.06908280       0.30579494 </v>
   <v>       0.81396733       0.06950755       0.30801869 </v>
   <v>       0.06670562       0.31521632       0.30565966 </v>
   <v>       0.31526930       0.31006418       0.31050076 </v>
   <v>       0.54774795       0.31543346       0.32735113 </v>
   <v>       0.81303422       0.31120421       0.31595213 </v>
   <v>       0.08463841       0.56563391       0.29098172 </v>
   <v>       0.31369001       0.56349424       0.31207450 </v>
   <v>       0.55412234       0.57421665       0.30678399 </v>
   <v>       0.81368031       0.55382852       0.31074052 </v>
   <v>       0.07266273       0.81614561       0.30457806 </v>
   <v>       0.31711263       0.81132168       0.31146936 </v>
   <v>       0.56119325       0.80449005       0.31827751 </v>
   <v>       0.81103167       0.81378558       0.31955621 </v>
   <v>       0.07102100       0.04831774       0.56746090 </v>
   <v>       0.32434466       0.04841420       0.56872512 </v>
   <v>       0.57007751       0.05643080       0.55323735 </v>
   <v>       0.80291442       0.06661210       0.55409030 </v>
   <v>       0.05869793       0.31732376       0.56243059 </v>
   <v>       0.32649362       0.30537460       0.55875327 </v>
   <v>       0.55128225       0.31396303       0.57390936 </v>
   <v>       0.81079868       0.29838195       0.57686169 </v>
   <v>       0.06429408       0.56854445       0.55138298 </v>
   <v>       0.31195405       0.56743070       0.56377221 </v>
   <v>       0.56595050       0.55752706       0.55940316 </v>
   <v>       0.81447293       0.55981340       0.55829964 </v>
   <v>       0.05381066       0.80666743       0.56979642 </v>
   <v>       0.31071237       0.80341698       0.57179312 </v>
   <v>       0.57054731       0.80959597       0.56991318 </v>
   <v>       0.80683388       0.81670763       0.55693987 </v>
   <v>       0.06774108       0.05475168       0.80741394 </v>
   <v>       0.30549618       0.06824406       0.81198313 </v>
   <v>       0.56053953       0.06168710       0.80892249 </v>
   <v>       0.80982515       0.05987530       0.82037222 </v>
   <v>       0.04811676       0.31287343       0.82517892 </v>
   <v>       0.31401678       0.30629529       0.81759832 </v>
   <v>       0.56609634       0.31452901       0.80552034 </v>
   <v>       0.80943677       0.31454425       0.81460679 </v>
   <v>       0.06106196       0.57087337       0.80860054 </v>
   <v>       0.31379812       0.56343925       0.80863485 </v>
   <v>       0.56622794       0.55696544       0.81577591 </v>
   <v>       0.81654505       0.57145428       0.80515090 </v>
   <v>       0.07084523       0.81606535       0.80907736 </v>
   <v>       0.31312106       0.81204568       0.81587789 </v>
   <v>       0.56936034       0.79949996       0.81850565 </v>
   <v>       0.81424328       0.81976599       0.81902479 </v>
  </varray>
 </structure>
</modeling>
