potpaw_PBE@./ARUN.APL1ZEROSTATE         
           1
     0.000000   10.937334   10.937334
    10.937334    0.000000   10.937334
    10.937334   10.937334    0.000000
   Si
 128
Direct configuration=     1
   0.99868827  0.00960346  0.00476396
   0.27447180  0.99122089  0.98863913
   0.49603433  0.00987411  0.98717418
   0.76421847  0.99366929  0.99504722
   0.97802754  0.26328423  0.99772317
   0.25056134  0.25042638  0.00047810
   0.49467903  0.24604294  0.00807501
   0.74270417  0.25442479  0.00482768
   0.02121983  0.49151966  0.99422025
   0.25797855  0.49239129  0.00131257
   0.50298805  0.50450559  0.99095547
   0.75457944  0.51030281  0.99575990
   0.01657065  0.75165669  0.99480873
   0.26148577  0.74522078  0.00341820
   0.49750780  0.76080966  0.99929487
   0.75514724  0.74847738  0.99361557
   0.98894212  0.99757299  0.25506412
   0.24162237  0.00081705  0.25146128
   0.50389623  0.99385862  0.24769184
   0.74895898  0.99214195  0.25865846
   0.00101934  0.26040335  0.23708074
   0.24179169  0.25676510  0.25779305
   0.49696542  0.26129717  0.25093802
   0.74443873  0.25100965  0.24486664
   0.99989716  0.51406283  0.24860953
   0.25404464  0.49202464  0.24810324
   0.49837796  0.51322570  0.24549370
   0.75386405  0.49378404  0.24602721
   0.99412797  0.76657708  0.23980025
   0.25137910  0.74974768  0.25557598
   0.49212550  0.75733057  0.25391054
   0.74372085  0.74187779  0.25758239
   0.00612982  0.00783843  0.49168541
   0.24685828  0.99773316  0.49940217
   0.51094041  0.99601951  0.50406105
   0.74660730  0.99973112  0.49238095
   0.99628233  0.25259126  0.51039018
   0.25232082  0.25296261  0.49805737
   0.50488790  0.25771325  0.49805828
   0.75055991  0.25106270  0.50665104
   0.99352305  0.49260483  0.51683671
   0.24183479  0.49998874  0.50051548
   0.49085829  0.50807188  0.50329648
   0.74258784  0.50203129  0.50269820
   0.00449021  0.75585241  0.49229668
   0.23372655  0.75147708  0.51074784
   0.49314683  0.75631051  0.49718605
   0.75019781  0.75017536  0.50206718
   0.99295869  0.01188866  0.74466408
   0.24225058  0.00739169  0.74366939
   0.50413909  0.00613590  0.74890963
   0.73927486  0.99222668  0.76170852
   0.99346114  0.25395167  0.74909910
   0.24939588  0.24817316  0.76315784
   0.50495860  0.23771263  0.74403916
   0.75168996  0.23776490  0.75449510
   0.99992223  0.50050392  0.74268866
   0.25229561  0.50711746  0.74783873
   0.49199898  0.50601550  0.73248423
   0.75155172  0.50853869  0.73638407
   0.99975370  0.75558356  0.74682368
   0.26053915  0.74956590  0.75533308
   0.50080339  0.76305702  0.74560258
   0.75333449  0.74098460  0.76897652
   0.06359188  0.06047884  0.07852949
   0.31555347  0.05936611  0.06302424
   0.56369739  0.07134811  0.06085552
   0.81385901  0.05794417  0.05867907
   0.07202154  0.30550791  0.06228002
   0.30585484  0.30989217  0.06834871
   0.55731825  0.32383921  0.05931922
   0.81016081  0.31709393  0.06283475
   0.06417643  0.56204851  0.06395692
   0.30780988  0.56141539  0.06724249
   0.55321452  0.56584041  0.06071038
   0.81403874  0.57274881  0.04994773
   0.06318172  0.81064327  0.06344504
   0.32079964  0.80372879  0.06883983
   0.57128004  0.81616727  0.05247609
   0.82508649  0.81500908  0.05681949
   0.05043574  0.07431675  0.31247434
   0.30755654  0.06125515  0.31240612
   0.55299693  0.06908280  0.30579494
   0.81396733  0.06950755  0.30801869
   0.06670562  0.31521632  0.30565966
   0.31526930  0.31006418  0.31050076
   0.54774795  0.31543346  0.32735113
   0.81303422  0.31120421  0.31595213
   0.08463841  0.56563391  0.29098172
   0.31369001  0.56349424  0.31207450
   0.55412234  0.57421665  0.30678399
   0.81368031  0.55382852  0.31074052
   0.07266273  0.81614561  0.30457806
   0.31711263  0.81132168  0.31146936
   0.56119325  0.80449005  0.31827751
   0.81103167  0.81378558  0.31955621
   0.07102100  0.04831774  0.56746090
   0.32434466  0.04841420  0.56872512
   0.57007751  0.05643080  0.55323735
   0.80291442  0.06661210  0.55409030
   0.05869793  0.31732376  0.56243059
   0.32649362  0.30537460  0.55875327
   0.55128225  0.31396303  0.57390936
   0.81079868  0.29838195  0.57686169
   0.06429408  0.56854445  0.55138298
   0.31195405  0.56743070  0.56377221
   0.56595050  0.55752706  0.55940316
   0.81447293  0.55981340  0.55829964
   0.05381066  0.80666743  0.56979642
   0.31071237  0.80341698  0.57179312
   0.57054731  0.80959597  0.56991318
   0.80683388  0.81670763  0.55693987
   0.06774108  0.05475168  0.80741394
   0.30549618  0.06824406  0.81198313
   0.56053953  0.06168710  0.80892249
   0.80982515  0.05987530  0.82037222
   0.04811676  0.31287343  0.82517892
   0.31401678  0.30629529  0.81759832
   0.56609634  0.31452901  0.80552034
   0.80943677  0.31454425  0.81460679
   0.06106196  0.57087337  0.80860054
   0.31379812  0.56343925  0.80863485
   0.56622794  0.55696544  0.81577591
   0.81654505  0.57145428  0.80515090
   0.07084523  0.81606535  0.80907736
   0.31312106  0.81204568  0.81587789
   0.56936034  0.79949996  0.81850565
   0.81424328  0.81976599  0.81902479
