 128 128   0   0
  0.2044346E+02  0.1546773E-08  0.1546773E-08  0.1546773E-08  0.5000000E-15
  1.000000000000000E-004
  CAR 
 potpaw_PBE@./ARUN.APL1ZEROSTATE         
      9.34318113     -7.05084286  301      5.96191368      1.00000000
     -7.051  0.0000E+00  0.0000E+00
     -6.996  0.0000E+00  0.0000E+00
     -6.942  0.0000E+00  0.0000E+00
     -6.887  0.0000E+00  0.0000E+00
     -6.832  0.0000E+00  0.0000E+00
     -6.778  0.0000E+00  0.0000E+00
     -6.723  0.0000E+00  0.0000E+00
     -6.668  0.0000E+00  0.0000E+00
     -6.614  0.0000E+00  0.0000E+00
     -6.559  0.0000E+00  0.0000E+00
     -6.504  0.0000E+00  0.0000E+00
     -6.450  0.0000E+00  0.0000E+00
     -6.395  0.0000E+00  0.0000E+00
     -6.340  0.2000E-05  0.1093E-06
     -6.286  0.4564E+01  0.2494E+00
     -6.231  0.1132E-01  0.2500E+00
     -6.176  0.7684E+00  0.2920E+00
     -6.122  0.1704E+02  0.1223E+01
     -6.067  0.2638E+02  0.2665E+01
     -6.013  0.1284E+02  0.3367E+01
     -5.958  0.7014E+01  0.3750E+01
     -5.903  0.2512E-06  0.3750E+01
     -5.849  0.1235E+02  0.4425E+01
     -5.794  0.2959E+01  0.4587E+01
     -5.739  0.3238E+02  0.6356E+01
     -5.685  0.2591E+02  0.7772E+01
     -5.630  0.2721E+02  0.9259E+01
     -5.575  0.2547E+02  0.1065E+02
     -5.521  0.2916E+02  0.1224E+02
     -5.466  0.2783E+02  0.1377E+02
     -5.411  0.1353E+02  0.1450E+02
     -5.357  0.9047E+01  0.1500E+02
     -5.302  0.8723E+00  0.1505E+02
     -5.248  0.9190E+01  0.1555E+02
     -5.193  0.2355E+02  0.1684E+02
     -5.138  0.2805E+02  0.1837E+02
     -5.084  0.5258E+02  0.2124E+02
     -5.029  0.3763E+02  0.2330E+02
     -4.974  0.4764E+02  0.2590E+02
     -4.920  0.2948E+02  0.2751E+02
     -4.865  0.1988E+02  0.2860E+02
     -4.810  0.2203E+02  0.2980E+02
     -4.756  0.1900E+02  0.3084E+02
     -4.701  0.4462E+02  0.3328E+02
     -4.646  0.3798E+02  0.3536E+02
     -4.592  0.4151E+02  0.3762E+02
     -4.537  0.3387E+02  0.3947E+02
     -4.482  0.2504E+02  0.4084E+02
     -4.428  0.2989E+02  0.4248E+02
     -4.373  0.2274E+02  0.4372E+02
     -4.319  0.1492E+02  0.4453E+02
     -4.264  0.4489E+02  0.4699E+02
     -4.209  0.4792E+02  0.4961E+02
     -4.155  0.6900E+02  0.5338E+02
     -4.100  0.5815E+02  0.5655E+02
     -4.045  0.4950E+02  0.5926E+02
     -3.991  0.5838E+02  0.6245E+02
     -3.936  0.5439E+02  0.6542E+02
     -3.881  0.4091E+02  0.6766E+02
     -3.827  0.5624E+02  0.7073E+02
     -3.772  0.6125E+02  0.7408E+02
     -3.717  0.3772E+02  0.7614E+02
     -3.663  0.3467E+02  0.7803E+02
     -3.608  0.2669E+02  0.7949E+02
     -3.553  0.3974E+02  0.8166E+02
     -3.499  0.3837E+02  0.8376E+02
     -3.444  0.5674E+02  0.8686E+02
     -3.390  0.5264E+02  0.8974E+02
     -3.335  0.4844E+02  0.9238E+02
     -3.280  0.4220E+02  0.9469E+02
     -3.226  0.3254E+02  0.9647E+02
     -3.171  0.3706E+02  0.9849E+02
     -3.116  0.2580E+02  0.9990E+02
     -3.062  0.5012E+02  0.1026E+03
     -3.007  0.5049E+02  0.1054E+03
     -2.952  0.4482E+02  0.1079E+03
     -2.898  0.4388E+02  0.1102E+03
     -2.843  0.2597E+02  0.1117E+03
     -2.788  0.3116E+02  0.1134E+03
     -2.734  0.3370E+02  0.1152E+03
     -2.679  0.4141E+02  0.1175E+03
     -2.624  0.3075E+02  0.1192E+03
     -2.570  0.2872E+02  0.1207E+03
     -2.515  0.2659E+02  0.1222E+03
     -2.461  0.1415E+01  0.1223E+03
     -2.406  0.8598E+01  0.1227E+03
     -2.351  0.4955E+01  0.1230E+03
     -2.297  0.8215E+01  0.1234E+03
     -2.242  0.1458E+02  0.1242E+03
     -2.187  0.1643E+02  0.1251E+03
     -2.133  0.3352E+02  0.1270E+03
     -2.078  0.3297E+02  0.1288E+03
     -2.023  0.2291E+02  0.1300E+03
     -1.969  0.2091E+02  0.1312E+03
     -1.914  0.1881E+02  0.1322E+03
     -1.859  0.5650E+01  0.1325E+03
     -1.805  0.9583E+01  0.1330E+03
     -1.750  0.4086E+01  0.1332E+03
     -1.695  0.3281E+01  0.1334E+03
     -1.641  0.1527E+02  0.1343E+03
     -1.586  0.2727E+02  0.1358E+03
     -1.532  0.3630E+02  0.1377E+03
     -1.477  0.4180E+02  0.1400E+03
     -1.422  0.4017E+02  0.1422E+03
     -1.368  0.3459E+02  0.1441E+03
     -1.313  0.5981E+02  0.1474E+03
     -1.258  0.5321E+02  0.1503E+03
     -1.204  0.6805E+02  0.1540E+03
     -1.149  0.6630E+02  0.1576E+03
     -1.094  0.5211E+02  0.1605E+03
     -1.040  0.6566E+02  0.1641E+03
     -0.985  0.6136E+02  0.1674E+03
     -0.930  0.4889E+02  0.1701E+03
     -0.876  0.6723E+02  0.1738E+03
     -0.821  0.6136E+02  0.1771E+03
     -0.766  0.4818E+02  0.1797E+03
     -0.712  0.6688E+02  0.1834E+03
     -0.657  0.4313E+02  0.1858E+03
     -0.603  0.3569E+02  0.1877E+03
     -0.548  0.2096E+02  0.1889E+03
     -0.493  0.1900E+02  0.1899E+03
     -0.439  0.2467E+02  0.1912E+03
     -0.384  0.3172E+02  0.1930E+03
     -0.329  0.4202E+02  0.1953E+03
     -0.275  0.5321E+02  0.1982E+03
     -0.220  0.5259E+02  0.2011E+03
     -0.165  0.5157E+02  0.2039E+03
     -0.111  0.3539E+02  0.2058E+03
     -0.056  0.5106E+02  0.2086E+03
     -0.001  0.3946E+02  0.2108E+03
      0.053  0.3561E+02  0.2127E+03
      0.108  0.1287E+02  0.2134E+03
      0.163  0.1535E+02  0.2142E+03
      0.217  0.1354E+02  0.2150E+03
      0.272  0.1139E+02  0.2156E+03
      0.326  0.2566E+02  0.2170E+03
      0.381  0.1992E+02  0.2181E+03
      0.436  0.2577E+02  0.2195E+03
      0.490  0.2512E+02  0.2209E+03
      0.545  0.2549E+02  0.2223E+03
      0.600  0.2520E+02  0.2236E+03
      0.654  0.1415E+02  0.2244E+03
      0.709  0.2723E+02  0.2259E+03
      0.764  0.8728E+01  0.2264E+03
      0.818  0.2448E+02  0.2277E+03
      0.873  0.4790E+01  0.2280E+03
      0.928  0.2148E+02  0.2292E+03
      0.982  0.1430E+02  0.2299E+03
      1.037  0.2828E+02  0.2315E+03
      1.092  0.4456E+02  0.2339E+03
      1.146  0.2218E+02  0.2351E+03
      1.201  0.1871E+02  0.2362E+03
      1.255  0.1938E+02  0.2372E+03
      1.310  0.2924E+02  0.2388E+03
      1.365  0.3394E+02  0.2407E+03
      1.419  0.4206E+02  0.2430E+03
      1.474  0.6057E+02  0.2463E+03
      1.529  0.7876E+02  0.2506E+03
      1.583  0.9631E+02  0.2558E+03
      1.638  0.7398E+02  0.2599E+03
      1.693  0.7363E+02  0.2639E+03
      1.747  0.6398E+02  0.2674E+03
      1.802  0.4645E+02  0.2699E+03
      1.857  0.3272E+02  0.2717E+03
      1.911  0.2681E+02  0.2732E+03
      1.966  0.2577E+02  0.2746E+03
      2.021  0.3189E+02  0.2763E+03
      2.075  0.6322E+02  0.2798E+03
      2.130  0.9410E+02  0.2849E+03
      2.184  0.1099E+03  0.2909E+03
      2.239  0.1272E+03  0.2979E+03
      2.294  0.1082E+03  0.3038E+03
      2.348  0.1056E+03  0.3096E+03
      2.403  0.9414E+02  0.3147E+03
      2.458  0.8244E+02  0.3192E+03
      2.512  0.5404E+02  0.3222E+03
      2.567  0.3739E+02  0.3242E+03
      2.622  0.3709E+02  0.3263E+03
      2.676  0.6739E+02  0.3299E+03
      2.731  0.7725E+02  0.3342E+03
      2.786  0.1031E+03  0.3398E+03
      2.840  0.9895E+02  0.3452E+03
      2.895  0.8041E+02  0.3496E+03
      2.950  0.1023E+03  0.3552E+03
      3.004  0.8825E+02  0.3600E+03
      3.059  0.9233E+02  0.3650E+03
      3.113  0.8789E+02  0.3698E+03
      3.168  0.6754E+02  0.3735E+03
      3.223  0.9462E+02  0.3787E+03
      3.277  0.8737E+02  0.3835E+03
      3.332  0.9487E+02  0.3887E+03
      3.387  0.8492E+02  0.3933E+03
      3.441  0.1008E+03  0.3988E+03
      3.496  0.8139E+02  0.4033E+03
      3.551  0.9495E+02  0.4085E+03
      3.605  0.7920E+02  0.4128E+03
      3.660  0.6906E+02  0.4166E+03
      3.715  0.6452E+02  0.4201E+03
      3.769  0.8692E+02  0.4248E+03
      3.824  0.8016E+02  0.4292E+03
      3.879  0.8124E+02  0.4337E+03
      3.933  0.7914E+02  0.4380E+03
      3.988  0.7005E+02  0.4418E+03
      4.042  0.6304E+02  0.4452E+03
      4.097  0.6039E+02  0.4485E+03
      4.152  0.6501E+02  0.4521E+03
      4.206  0.7475E+02  0.4562E+03
      4.261  0.7629E+02  0.4604E+03
      4.316  0.7936E+02  0.4647E+03
      4.370  0.6406E+02  0.4682E+03
      4.425  0.6925E+02  0.4720E+03
      4.480  0.6970E+02  0.4758E+03
      4.534  0.6844E+02  0.4795E+03
      4.589  0.5079E+02  0.4823E+03
      4.644  0.5851E+02  0.4855E+03
      4.698  0.5158E+02  0.4883E+03
      4.753  0.4260E+02  0.4906E+03
      4.808  0.2720E+02  0.4921E+03
      4.862  0.1848E+02  0.4931E+03
      4.917  0.3929E+02  0.4953E+03
      4.971  0.2198E+02  0.4965E+03
      5.026  0.2945E+02  0.4981E+03
      5.081  0.3987E+02  0.5003E+03
      5.135  0.2737E+02  0.5018E+03
      5.190  0.2180E+02  0.5030E+03
      5.245  0.1115E+02  0.5036E+03
      5.299  0.8907E+01  0.5041E+03
      5.354  0.1595E+02  0.5049E+03
      5.409  0.7718E+01  0.5054E+03
      5.463  0.2709E+02  0.5068E+03
      5.518  0.3075E+02  0.5085E+03
      5.573  0.1426E+02  0.5093E+03
      5.627  0.2021E+02  0.5104E+03
      5.682  0.1558E+02  0.5113E+03
      5.736  0.4564E+01  0.5115E+03
      5.791  0.4028E+01  0.5117E+03
      5.846  0.5464E+00  0.5118E+03
      5.900  0.4574E+01  0.5120E+03
      5.955  0.8921E-03  0.5120E+03
      6.010  0.0000E+00  0.5120E+03
      6.064  0.6751E+00  0.5120E+03
      6.119  0.8465E+01  0.5125E+03
      6.174  0.1533E+02  0.5133E+03
      6.228  0.1286E+02  0.5140E+03
      6.283  0.1307E+02  0.5148E+03
      6.338  0.2445E+02  0.5161E+03
      6.392  0.2270E+02  0.5173E+03
      6.447  0.2641E+02  0.5188E+03
      6.502  0.1497E+02  0.5196E+03
      6.556  0.2163E+02  0.5208E+03
      6.611  0.2762E+02  0.5223E+03
      6.665  0.1751E+02  0.5232E+03
      6.720  0.2944E+02  0.5248E+03
      6.775  0.3580E+02  0.5268E+03
      6.829  0.2919E+02  0.5284E+03
      6.884  0.3369E+02  0.5302E+03
      6.939  0.3744E+02  0.5323E+03
      6.993  0.4385E+02  0.5347E+03
      7.048  0.4167E+02  0.5370E+03
      7.103  0.2622E+02  0.5384E+03
      7.157  0.2592E+02  0.5398E+03
      7.212  0.3145E+02  0.5415E+03
      7.267  0.6648E+02  0.5452E+03
      7.321  0.6994E+02  0.5490E+03
      7.376  0.7535E+02  0.5531E+03
      7.431  0.8398E+02  0.5577E+03
      7.485  0.8820E+02  0.5625E+03
      7.540  0.8394E+02  0.5671E+03
      7.594  0.8034E+02  0.5715E+03
      7.649  0.8625E+02  0.5762E+03
      7.704  0.8818E+02  0.5810E+03
      7.758  0.8894E+02  0.5859E+03
      7.813  0.9152E+02  0.5909E+03
      7.868  0.9875E+02  0.5963E+03
      7.922  0.1008E+03  0.6018E+03
      7.977  0.7754E+02  0.6060E+03
      8.032  0.8782E+02  0.6108E+03
      8.086  0.8337E+02  0.6154E+03
      8.141  0.9079E+02  0.6203E+03
      8.196  0.7545E+02  0.6245E+03
      8.250  0.7828E+02  0.6287E+03
      8.305  0.8190E+02  0.6332E+03
      8.360  0.9363E+02  0.6383E+03
      8.414  0.6823E+02  0.6421E+03
      8.469  0.2170E+02  0.6432E+03
      8.523  0.4587E+01  0.6435E+03
      8.578  0.4585E+01  0.6438E+03
      8.633  0.4564E+01  0.6440E+03
      8.687  0.0000E+00  0.6440E+03
      8.742  0.0000E+00  0.6440E+03
      8.797  0.0000E+00  0.6440E+03
      8.851  0.0000E+00  0.6440E+03
      8.906  0.0000E+00  0.6440E+03
      8.961  0.0000E+00  0.6440E+03
      9.015  0.0000E+00  0.6440E+03
      9.070  0.0000E+00  0.6440E+03
      9.125  0.0000E+00  0.6440E+03
      9.179  0.0000E+00  0.6440E+03
      9.234  0.0000E+00  0.6440E+03
      9.289  0.0000E+00  0.6440E+03
      9.343  0.0000E+00  0.6440E+03
