 vasp.5.4.4.18Apr17-6-g9f103f2a35 (build Nov 08 2017 09:05:29) complex          
  
 executed on          Intel_17.33 date 2020.07.18  18:39:22
 running on   32 total cores
 distrk:  each k-point on   32 cores,    1 groups
 distr:  one band on NCORES_PER_BAND=  16 cores,    2 groups


--------------------------------------------------------------------------------------------------------


 INCAR:
 POTCAR:   PAW_PBE Si 05Jan2001                   

 ----------------------------------------------------------------------------- 
|                                                                             |
|           W    W    AA    RRRRR   N    N  II  N    N   GGGG   !!!           |
|           W    W   A  A   R    R  NN   N  II  NN   N  G    G  !!!           |
|           W    W  A    A  R    R  N N  N  II  N N  N  G       !!!           |
|           W WW W  AAAAAA  RRRRR   N  N N  II  N  N N  G  GGG   !            |
|           WW  WW  A    A  R   R   N   NN  II  N   NN  G    G                |
|           W    W  A    A  R    R  N    N  II  N    N   GGGG   !!!           |
|                                                                             |
|      For optimal performance we recommend to set                            |
|        NCORE= 4 - approx SQRT( number of cores)                             |
|      NCORE specifies how many cores store one orbital (NPAR=cpu/NCORE).     |
|      This setting can  greatly improve the performance of VASP for DFT.     |
|      The default,   NCORE=1            might be grossly inefficient         |
|      on modern multi-core architectures or massively parallel machines.     |
|      Do your own testing !!!!                                               |
|      Unfortunately you need to use the default for GW and RPA calculations. |
|      (for HF NCORE is supported but not extensively tested yet)             |
|                                                                             |
 ----------------------------------------------------------------------------- 

 POTCAR:   PAW_PBE Si 05Jan2001                   
   VRHFIN =Si: s2p2                                                             
   LEXCH  = PE                                                                  
   EATOM  =   103.0669 eV,    7.5752 Ry                                         
                                                                                
   TITEL  = PAW_PBE Si 05Jan2001                                                
   LULTRA =        F    use ultrasoft PP ?                                      
   IUNSCR =        1    unscreen: 0-lin 1-nonlin 2-no                           
   RPACOR =    1.500    partial core radius                                     
   POMASS =   28.085; ZVAL   =    4.000    mass and valenz                      
   RCORE  =    1.900    outmost cutoff radius                                   
   RWIGS  =    2.480; RWIGS  =    1.312    wigner-seitz radius (au A)           
   ENMAX  =  245.345; ENMIN  =  184.009 eV                                      
   ICORE  =        2    local potential                                         
   LCOR   =        T    correct aug charges                                     
   LPAW   =        T    paw PP                                                  
   EAUG   =  322.069                                                            
   DEXC   =    -.007                                                            
   RMAX   =    2.944    core radius for proj-oper                               
   RAUG   =    1.300    factor for augmentation sphere                          
   RDEP   =    1.993    radius for radial grids                                 
   QCUT   =   -4.246; QGAM   =    8.493    optimization parameters              
                                                                                
   Description                                                                  
     l     E      TYP  RCUT    TYP  RCUT                                        
     0   .000     23  1.900                                                     
     0   .000     23  1.900                                                     
     1   .000     23  1.900                                                     
     1   .000     23  1.900                                                     
     2   .000      7  1.900                                                     
  local pseudopotential read in
  partial core-charges read in
  atomic valenz-charges read in
  non local Contribution for L=           0  read in
    real space projection operators read in
  non local Contribution for L=           0  read in
    real space projection operators read in
  non local Contribution for L=           1  read in
    real space projection operators read in
  non local Contribution for L=           1  read in
    real space projection operators read in
    PAW grid and wavefunctions read in
 
   number of l-projection  operators is LMAX  =           4
   number of lm-projection operators is LMMAX =           8
 

 ----------------------------------------------------------------------------- 
|                                                                             |
|  ADVICE TO THIS USER RUNNING 'VASP/VAMP'   (HEAR YOUR MASTER'S VOICE ...):  |
|                                                                             |
|      You have a (more or less) 'large supercell' and for larger cells       |
|      it might be more efficient to use real space projection operators      |
|      So try LREAL= Auto  in the INCAR   file.                               |
|      Mind: If you want to do a very accurate calculations keep the          |
|      reciprocal projection scheme          (i.e. LREAL=.FALSE.)             |
|                                                                             |
 ----------------------------------------------------------------------------- 

 PAW_PBE Si 05Jan2001                   :
 energy of atom  1       EATOM= -103.0669
 kinetic energy error for atom=    0.0006 (will be added to EATOM!!)
 
 
 POSCAR: kk                                      
  positions in direct lattice
  No initial velocities read in
 exchange correlation table for  LEXCH =        8
   RHO(1)=    0.500       N(1)  =     2000
   RHO(2)=  100.500       N(2)  =     4000
 


--------------------------------------------------------------------------------------------------------


 ion  position               nearest neighbor table
   1  0.995  0.996  0.992-  68 2.16 113 2.32  77 2.32  65 2.66
   2  0.254  0.997  0.996- 114 2.34  65 2.35  78 2.38  66 2.43
   3  0.501  0.004  0.998- 115 2.25  66 2.26  79 2.29  67 2.36
   4  0.762  0.003  0.992- 116 2.22  68 2.25  80 2.30  67 2.52
   5  0.007  0.249  0.989- 117 2.17  65 2.30  72 2.51  69 2.56
   6  0.243  0.258  0.993- 118 2.22  69 2.30  66 2.39  70 2.40
   7  0.495  0.257  0.996-  71 2.26 119 2.27  70 2.37  67 2.46
   8  0.750  0.247  0.003-  71 2.43  72 2.45 120 2.48  68 2.50
   9  0.994  0.498  0.007-  73 2.23  69 2.27  76 2.28 121 2.38
  10  0.253  0.508  0.994- 122 2.35  70 2.43  74 2.45  73 2.46
  11  0.500  0.501  0.997-  74 2.22 123 2.27  71 2.28  75 2.49
  12  0.760  0.506  0.992-  76 2.21 124 2.28  72 2.36  75 2.42
  13  0.006  0.747  0.991- 125 2.20  73 2.31  77 2.46  80 2.59
  14  0.244  0.761  0.995- 126 2.34  77 2.41  78 2.53  74 2.61
  15  0.497  0.745  0.993-  75 2.20  78 2.29 127 2.39  79 2.58
  16  0.750  0.754  0.001-  80 2.26 128 2.34  79 2.49  76 2.54
  17  0.009  0.988  0.253-  93 2.18  81 2.34  65 2.47  84 2.48
  18  0.246  0.998  0.255-  81 2.25  82 2.30  94 2.36  66 2.60
  19  0.504  0.994  0.242-  67 2.25  82 2.27  95 2.30  83 2.65
  20  0.742  0.010  0.250-  83 2.26  84 2.28  68 2.42  96 2.53
  21  0.002  0.244  0.243-  69 2.24  81 2.32  88 2.50  85 2.62
  22  0.248  0.239  0.261-  85 2.22  86 2.29  82 2.35  70 2.54
  23  0.504  0.246  0.243-  83 2.34  86 2.42  87 2.42  71 2.46
  24  0.751  0.232  0.261-  84 2.21  87 2.34  72 2.50  88 2.54
  25  0.998  0.499  0.243-  85 2.24  89 2.34  73 2.40  92 2.44
  26  0.249  0.497  0.236-  74 2.15  90 2.28  89 2.45  86 2.57
  27  0.495  0.499  0.249-  90 2.35  87 2.39  75 2.45  91 2.46
  28  0.754  0.493  0.244-  91 2.17  88 2.22  76 2.26  92 2.37
  29  0.996  0.756  0.249-  77 2.26  93 2.30  89 2.47  96 2.49
  30  0.257  0.742  0.252-  78 2.27  90 2.29  94 2.40  93 2.58
  31  0.501  0.747  0.258-  94 2.28  95 2.29  79 2.48  91 2.60
  32  0.752  0.734  0.256-  92 2.29  96 2.33  95 2.49  80 2.49
  33  0.987  0.007  0.503- 100 2.21 109 2.40  81 2.50  97 2.51
  34  0.242  0.997  0.508-  97 2.32 110 2.46  98 2.50  82 2.61
  35  0.496  0.999  0.508-  98 2.29  99 2.30  83 2.33 111 2.48
  36  0.736  0.014  0.502-  99 2.25 100 2.29  84 2.40 112 2.64
  37  1.000  0.249  0.494-  97 2.26 101 2.38 104 2.39  85 2.49
  38  0.240  0.256  0.498- 101 2.21  86 2.25  98 2.45 102 2.51
  39  0.495  0.260  0.493- 103 2.27 102 2.30  87 2.35  99 2.49
  40  0.747  0.264  0.493-  88 2.18 104 2.24 103 2.33 100 2.60
  41  0.003  0.496  0.502- 108 2.28 105 2.39  89 2.44 101 2.47
  42  0.252  0.497  0.507- 102 2.32 105 2.36 106 2.41  90 2.76
  43  0.500  0.505  0.487-  91 2.24 106 2.28 107 2.37 103 2.53
  44  0.750  0.496  0.503-  92 2.30 107 2.40 104 2.41 108 2.46
  45  0.005  0.744  0.498- 105 2.32  93 2.32 112 2.38 109 2.41
  46  0.242  0.750  0.499- 106 2.29 109 2.33 110 2.35  94 2.44
  47  0.498  0.752  0.494-  95 2.21 111 2.30 110 2.31 107 2.36
  48  0.746  0.748  0.503-  96 2.35 111 2.41 112 2.46 108 2.55
  49  0.003  0.993  0.756- 125 2.33 113 2.35  97 2.42 116 2.56
  50  0.241  0.992  0.759- 113 2.15 126 2.22  98 2.42 114 2.44
  51  0.502  0.010  0.750- 115 2.21 114 2.37  99 2.37 127 2.50
  52  0.752  0.012  0.740- 100 2.27 116 2.27 115 2.36 128 2.56
  53  0.992  0.248  0.766- 120 2.30 117 2.40 113 2.42 101 2.56
  54  0.254  0.243  0.751- 102 2.33 114 2.35 117 2.55 118 2.56
  55  0.502  0.250  0.745- 103 2.36 118 2.41 119 2.55 115 2.56
  56  0.762  0.246  0.744- 104 2.27 116 2.29 120 2.38 119 2.54
  57  0.004  0.497  0.759- 117 2.19 121 2.34 105 2.46 124 2.50
  58  0.245  0.507  0.751- 121 2.27 122 2.31 118 2.36 106 2.45
  59  0.507  0.500  0.743- 119 2.28 123 2.35 107 2.39 122 2.41
  60  0.742  0.495  0.757- 120 2.18 123 2.32 108 2.33 124 2.37
  61  0.994  0.752  0.742- 128 2.24 109 2.27 121 2.45 125 2.52
  62  0.256  0.753  0.747- 126 2.26 110 2.38 122 2.41 125 2.46
  63  0.498  0.748  0.752- 111 2.34 127 2.37 123 2.38 126 2.39
  64  0.751  0.749  0.744- 112 2.21 127 2.32 124 2.37 128 2.50
  65  0.068  0.068  0.058-   5 2.30   2 2.35  17 2.47   1 2.66
  66  0.322  0.069  0.049-   3 2.26   6 2.39   2 2.43  18 2.60
  67  0.563  0.062  0.065-  19 2.25   3 2.36   7 2.46   4 2.52
  68  0.824  0.050  0.061-   1 2.16   4 2.25  20 2.42   8 2.50
  69  0.061  0.319  0.067-  21 2.24   9 2.27   6 2.30   5 2.56
  70  0.308  0.315  0.061-   7 2.37   6 2.40  10 2.43  22 2.54
  71  0.558  0.321  0.048-   7 2.26  11 2.28   8 2.43  23 2.46
  72  0.809  0.320  0.065-  12 2.36   8 2.45  24 2.50   5 2.51
  73  0.058  0.564  0.053-   9 2.23  13 2.31  25 2.40  10 2.46
  74  0.325  0.555  0.067-  26 2.15  11 2.22  10 2.45  14 2.61
  75  0.568  0.572  0.056-  15 2.20  12 2.42  27 2.45  11 2.49
  76  0.814  0.553  0.065-  12 2.21  28 2.26   9 2.28  16 2.54
  77  0.054  0.814  0.070-  29 2.26   1 2.32  14 2.41  13 2.46
  78  0.318  0.809  0.072-  30 2.27  15 2.29   2 2.38  14 2.53
  79  0.552  0.823  0.062-   3 2.29  31 2.48  16 2.49  15 2.58
  80  0.800  0.822  0.060-  16 2.26   4 2.30  32 2.49  13 2.59
  81  0.069  0.061  0.305-  18 2.25  21 2.32  17 2.34  33 2.50
  82  0.324  0.054  0.302-  19 2.27  18 2.30  22 2.35  34 2.61
  83  0.564  0.062  0.324-  20 2.26  35 2.33  23 2.34  19 2.65
  84  0.813  0.057  0.313-  24 2.21  20 2.28  36 2.40  17 2.48
  85  0.075  0.323  0.298-  22 2.22  25 2.24  37 2.49  21 2.62
  86  0.313  0.295  0.322-  38 2.25  22 2.29  23 2.42  26 2.57
  87  0.567  0.310  0.308-  24 2.34  39 2.35  27 2.39  23 2.42
  88  0.805  0.318  0.321-  40 2.18  28 2.22  21 2.50  24 2.54
  89  0.056  0.561  0.309-  25 2.34  41 2.44  26 2.45  29 2.47
  90  0.311  0.563  0.289-  26 2.28  30 2.29  27 2.35  42 2.76
  91  0.582  0.542  0.312-  28 2.17  43 2.24  27 2.46  31 2.60
  92  0.805  0.552  0.321-  32 2.29  44 2.30  28 2.37  25 2.44
  93  0.053  0.816  0.314-  17 2.18  29 2.30  45 2.32  30 2.58
  94  0.321  0.812  0.307-  31 2.28  18 2.36  30 2.40  46 2.44
  95  0.556  0.813  0.318-  47 2.21  31 2.29  19 2.30  32 2.49
  96  0.799  0.810  0.317-  32 2.33  48 2.35  29 2.49  20 2.53
  97  0.059  0.070  0.565-  37 2.26  34 2.32  49 2.42  33 2.51
  98  0.315  0.062  0.568-  35 2.29  50 2.42  38 2.45  34 2.50
  99  0.559  0.063  0.563-  36 2.25  35 2.30  51 2.37  39 2.49
 100  0.812  0.059  0.562-  33 2.21  52 2.27  36 2.29  40 2.60
 101  0.066  0.301  0.564-  38 2.21  37 2.38  41 2.47  53 2.56
 102  0.313  0.313  0.566-  39 2.30  42 2.32  54 2.33  38 2.51
 103  0.564  0.305  0.558-  39 2.27  40 2.33  55 2.36  43 2.53
 104  0.811  0.305  0.565-  40 2.24  56 2.27  37 2.39  44 2.41
 105  0.065  0.561  0.564-  45 2.32  42 2.36  41 2.39  57 2.46
 106  0.320  0.570  0.557-  43 2.28  46 2.29  42 2.41  58 2.45
 107  0.560  0.566  0.554-  47 2.36  43 2.37  59 2.39  44 2.40
 108  0.823  0.547  0.574-  41 2.28  60 2.33  44 2.46  48 2.55
 109  0.058  0.817  0.563-  61 2.27  46 2.33  33 2.40  45 2.41
 110  0.316  0.803  0.559-  47 2.31  46 2.35  62 2.38  34 2.46
 111  0.556  0.803  0.567-  47 2.30  63 2.34  48 2.41  35 2.48
 112  0.817  0.805  0.569-  64 2.21  45 2.38  48 2.46  36 2.64
 113  0.071  0.057  0.810-  50 2.15   1 2.32  49 2.35  53 2.42
 114  0.316  0.057  0.811-   2 2.34  54 2.35  51 2.37  50 2.44
 115  0.567  0.048  0.820-  51 2.21   3 2.25  52 2.36  55 2.56
 116  0.801  0.066  0.817-   4 2.22  52 2.27  56 2.29  49 2.56
 117  0.053  0.324  0.818-   5 2.17  57 2.19  53 2.40  54 2.55
 118  0.312  0.320  0.818-   6 2.22  58 2.36  55 2.41  54 2.56
 119  0.562  0.320  0.817-   7 2.27  59 2.28  56 2.54  55 2.55
 120  0.811  0.323  0.807-  60 2.18  53 2.30  56 2.38   8 2.48
 121  0.066  0.560  0.819-  58 2.27  57 2.34   9 2.38  61 2.45
 122  0.317  0.562  0.808-  58 2.31  10 2.35  59 2.41  62 2.41
 123  0.558  0.560  0.817-  11 2.27  60 2.32  59 2.35  63 2.38
 124  0.807  0.562  0.812-  12 2.28  60 2.37  64 2.37  57 2.50
 125  0.062  0.808  0.817-  13 2.20  49 2.33  62 2.46  61 2.52
 126  0.308  0.817  0.810-  50 2.22  62 2.26  14 2.34  63 2.39
 127  0.568  0.813  0.804-  64 2.32  63 2.37  15 2.39  51 2.50
 128  0.818  0.809  0.816-  61 2.24  16 2.34  64 2.50  52 2.56
 
  LATTYP: Found a face centered cubic cell.
 ALAT       =    21.8746673814
  
  Lattice vectors:
  
 A1 = (   0.0000000000,  10.9373336907,  10.9373336907)
 A2 = (  10.9373336907,   0.0000000000,  10.9373336907)
 A3 = (  10.9373336907,  10.9373336907,   0.0000000000)


Analysis of symmetry for initial positions (statically):
=====================================================================
 Subroutine PRICEL returns:
 Original cell was already a primitive cell.
 

 Routine SETGRP: Setting up the symmetry group for a 
 face centered cubic supercell.


 Subroutine GETGRP returns: Found  1 space group operations
 (whereof  1 operations were pure point group operations)
 out of a pool of 48 trial point group operations.


The static configuration has the point symmetry C_1 .


Analysis of symmetry for dynamics (positions and initial velocities):
=====================================================================
 Subroutine PRICEL returns:
 Original cell was already a primitive cell.
 

 Routine SETGRP: Setting up the symmetry group for a 
 face centered cubic supercell.


 Subroutine GETGRP returns: Found  1 space group operations
 (whereof  1 operations were pure point group operations)
 out of a pool of 48 trial point group operations.


The dynamic configuration has the point symmetry C_1 .


 Subroutine INISYM returns: Found  1 space group operations
 (whereof  1 operations are pure point group operations),
 and found     1 'primitive' translations

 
 
 KPOINTS: KPOINTS File, automatically generated by

Automatic generation of k-mesh.
Space group operators:
 irot       det(A)        alpha          n_x          n_y          n_z        tau_x        tau_y        tau_z
    1     1.000000     0.000001     1.000000     0.000000     0.000000     0.000000     0.000000     0.000000
 
 Subroutine IBZKPT returns following result:
 ===========================================
 
 Found      8 irreducible k-points:
 
 Following reciprocal coordinates:
            Coordinates               Weight
  0.000000  0.000000  0.000000      1.000000
  0.500000  0.000000  0.000000      1.000000
  0.000000  0.500000  0.000000      1.000000
  0.500000  0.500000  0.000000      1.000000
  0.000000  0.000000  0.500000      1.000000
  0.500000  0.000000  0.500000      1.000000
  0.000000  0.500000  0.500000      1.000000
  0.500000  0.500000  0.500000      1.000000
 
 Following cartesian coordinates:
            Coordinates               Weight
  0.000000  0.000000  0.000000      1.000000
 -0.022857  0.022857  0.022857      1.000000
  0.022857 -0.022857  0.022857      1.000000
  0.000000  0.000000  0.045715      1.000000
  0.022857  0.022857 -0.022857      1.000000
  0.000000  0.045715  0.000000      1.000000
  0.045715  0.000000  0.000000      1.000000
  0.022857  0.022857  0.022857      1.000000
 


--------------------------------------------------------------------------------------------------------




 Dimension of arrays:
   k-points           NKPTS =      8   k-points in BZ     NKDIM =      8   number of bands    NBANDS=    322
   number of dos      NEDOS =    301   number of ions     NIONS =    128
   non local maximal  LDIM  =      4   non local SUM 2l+1 LMDIM =      8
   total plane-waves  NPLWV = ******
   max r-space proj   IRMAX =      1   max aug-charges    IRDMAX= 176811
   dimension x,y,z NGX =   120 NGY =  120 NGZ =  120
   dimension x,y,z NGXF=   240 NGYF=  240 NGZF=  240
   support grid    NGXF=   480 NGYF=  480 NGZF=  480
   ions per type =             128
   NGX,Y,Z   is equivalent  to a cutoff of  12.90, 12.90, 12.90 a.u.
   NGXF,Y,Z  is equivalent  to a cutoff of  25.80, 25.80, 25.80 a.u.

 SYSTEM =  potpaw_PBE@./ARUN.APL1ZEROSTATE         
 POSCAR =  kk                                      

 Startparameter for this run:
   NWRITE =      2    write-flag & timer
   PREC   = accura    normal or accurate (medium, high low for compatibility)
   ISTART =      0    job   : 0-new  1-cont  2-samecut
   ICHARG =      2    charge: 1-file 2-atom 10-const
   ISPIN  =      1    spin polarized calculation?
   LNONCOLLINEAR =      F non collinear calculations
   LSORBIT =      F    spin-orbit coupling
   INIWAV =      1    electr: 0-lowe 1-rand  2-diag
   LASPH  =      F    aspherical Exc in radial PAW
   METAGGA=      F    non-selfconsistent MetaGGA calc.

 Electronic Relaxation 1
   ENCUT  =  500.0 eV  36.75 Ry    6.06 a.u.  28.20 28.20 28.20*2*pi/ulx,y,z
   ENINI  =  500.0     initial cutoff
   ENAUG  =  322.1 eV  augmentation charge cutoff
   NELM   =    120;   NELMIN=  4; NELMDL= -5     # of ELM steps 
   EDIFF  = 0.1E-07   stopping-criterion for ELM
   LREAL  =      F    real-space projection
   NLSPLINE    = F    spline interpolate recip. space projectors
   LCOMPAT=      F    compatible to vasp.4.4
   GGA_COMPAT  = T    GGA compatible to vasp.4.4-vasp.4.6
   LMAXPAW     = -100 max onsite density
   LMAXMIX     =    2 max onsite mixed and CHGCAR
   VOSKOWN=      0    Vosko Wilk Nusair interpolation
   ROPT   =    0.00000
 Ionic relaxation
   EDIFFG = 0.1E-06   stopping-criterion for IOM
   NSW    =      0    number of steps for IOM
   NBLOCK =      1;   KBLOCK =      1    inner block; outer block 
   IBRION =     -1    ionic relax: 0-MD 1-quasi-New 2-CG
   NFREE  =      0    steps in history (QN), initial steepest desc. (CG)
   ISIF   =      2    stress and relaxation
   IWAVPR =     10    prediction:  0-non 1-charg 2-wave 3-comb
   ISYM   =      2    0-nonsym 1-usesym 2-fastsym
   LCORR  =      T    Harris-Foulkes like correction to forces

   POTIM  = 0.5000    time-step for ionic-motion
   TEIN   =    0.0    initial temperature
   TEBEG  =    0.0;   TEEND  =   0.0 temperature during run
   SMASS  =  -3.00    Nose mass-parameter (am)
   estimated Nose-frequenzy (Omega)   =  0.10E-29 period in steps =****** mass=  -0.547E-26a.u.
   SCALEE = 1.0000    scale energy and forces
   NPACO  =    256;   APACO  = 16.0  distance and # of slots for P.C.
   PSTRESS=    0.0 pullay stress

  Mass of Ions in am
   POMASS =  28.09
  Ionic Valenz
   ZVAL   =   4.00
  Atomic Wigner-Seitz radii
   RWIGS  =  -1.00
  virtual crystal weights 
   VCA    =   1.00
   NELECT =     512.0000    total number of electrons
   NUPDOWN=      -1.0000    fix difference up-down

 DOS related values:
   EMIN   =  10.00;   EMAX   =-10.00  energy-range for DOS
   EFERMI =   0.00
   ISMEAR =     0;   SIGMA  =   0.01  broadening in eV -4-tet -1-fermi 0-gaus

 Electronic relaxation 2 (details)
   IALGO  =     38    algorithm
   LDIAG  =      T    sub-space diagonalisation (order eigenvalues)
   LSUBROT=      F    optimize rotation matrix (better conditioning)
   TURBO    =      0    0=normal 1=particle mesh
   IRESTART =      0    0=no restart 2=restart with 2 vectors
   NREBOOT  =      0    no. of reboots
   NMIN     =      0    reboot dimension
   EREF     =   0.00    reference energy to select bands
   IMIX   =      4    mixing-type and parameters
     AMIX     =   0.40;   BMIX     =  1.00
     AMIX_MAG =   1.60;   BMIX_MAG =  1.00
     AMIN     =   0.10
     WC   =   100.;   INIMIX=   1;  MIXPRE=   1;  MAXMIX= -45

 Intra band minimization:
   WEIMIN = 0.0000     energy-eigenvalue tresh-hold
   EBREAK =  0.78E-11  absolut break condition
   DEPER  =   0.30     relativ break condition  

   TIME   =   0.40     timestep for ELM

  volume/ion in A,a.u.               =      20.44       137.96
  Fermi-wavevector in a.u.,A,eV,Ry     =   0.950408  1.796010 12.289804  0.903275
  Thomas-Fermi vector in A             =   2.078782
 
 Write flags
   LWAVE        =      F    write WAVECAR
   LDOWNSAMPLE  =      F    k-point downsampling of WAVECAR
   LCHARG       =      F    write CHGCAR
   LVTOT        =      F    write LOCPOT, total local potential
   LVHAR        =      F    write LOCPOT, Hartree potential only
   LELF         =      F    write electronic localiz. function (ELF)
   LORBIT       =      0    0 simple, 1 ext, 2 COOP (PROOUT), +10 PAW based schemes


 Dipole corrections
   LMONO  =      F    monopole corrections only (constant potential shift)
   LDIPOL =      F    correct potential (dipole corrections)
   IDIPOL =      0    1-x, 2-y, 3-z, 4-all directions 
   EPSILON=  1.0000000 bulk dielectric constant

 Exchange correlation treatment:
   GGA     =    --    GGA type
   LEXCH   =     8    internal setting for exchange type
   VOSKOWN=      0    Vosko Wilk Nusair interpolation
   LHFCALC =     F    Hartree Fock is set to
   LHFONE  =     F    Hartree Fock one center treatment
   AEXX    =    0.0000 exact exchange contribution

 Linear response parameters
   LEPSILON=     F    determine dielectric tensor
   LRPA    =     F    only Hartree local field effects (RPA)
   LNABLA  =     F    use nabla operator in PAW spheres
   LVEL    =     F    velocity operator in full k-point grid
   LINTERFAST=   F  fast interpolation
   KINTER  =     0    interpolate to denser k-point grid
   CSHIFT  =0.1000    complex shift for real part using Kramers Kronig
   OMEGAMAX=  -1.0    maximum frequency
   DEG_THRESHOLD= 0.2000000E-02 threshold for treating states as degnerate
   RTIME   =   -0.100 relaxation time in fs
  (WPLASMAI=    0.000 imaginary part of plasma frequency in eV, 0.658/RTIME)
   DFIELD  = 0.0000000 0.0000000 0.0000000 field for delta impulse in time
 
 Orbital magnetization related:
   ORBITALMAG=     F  switch on orbital magnetization
   LCHIMAG   =     F  perturbation theory with respect to B field
   DQ        =  0.001000  dq finite difference perturbation B field
   LLRAUG    =     F  two centre corrections for induced B field



--------------------------------------------------------------------------------------------------------


 Static calculation
 charge density and potential will be updated during run
 non-spin polarized calculation
 Variant of blocked Davidson
 Davidson routine will perform the subspace rotation
 perform sub-space diagonalisation
    after iterative eigenvector-optimisation
 modified Broyden-mixing scheme, WC =      100.0
 initial mixing is a Kerker type mixing with AMIX =  0.4000 and BMIX =      1.0000
 Hartree-type preconditioning will be used
 using additional bands           66
 reciprocal scheme for non local part
 use partial core corrections
 calculate Harris-corrections to forces 
   (improved forces if not selfconsistent)
 use gradient corrections 
 use of overlap-Matrix (Vanderbilt PP)
 Gauss-broadening in eV      SIGMA  =   0.01


--------------------------------------------------------------------------------------------------------


  energy-cutoff  :      500.00
  volume of cell :     2616.76
      direct lattice vectors                 reciprocal lattice vectors
     0.000000000 10.937333691 10.937333691    -0.045714981  0.045714981  0.045714981
    10.937333691  0.000000000 10.937333691     0.045714981 -0.045714981  0.045714981
    10.937333691 10.937333691  0.000000000     0.045714981  0.045714981 -0.045714981

  length of vectors
    15.467725642 15.467725642 15.467725642     0.079180669  0.079180669  0.079180669


 
 k-points in units of 2pi/SCALE and weight: KPOINTS File, automatically generated by
   0.00000000  0.00000000  0.00000000       0.125
  -0.02285749  0.02285749  0.02285749       0.125
   0.02285749 -0.02285749  0.02285749       0.125
   0.00000000  0.00000000  0.04571498       0.125
   0.02285749  0.02285749 -0.02285749       0.125
   0.00000000  0.04571498  0.00000000       0.125
   0.04571498  0.00000000  0.00000000       0.125
   0.02285749  0.02285749  0.02285749       0.125
 
 k-points in reciprocal lattice and weights: KPOINTS File, automatically generated by
   0.00000000  0.00000000  0.00000000       0.125
   0.50000000  0.00000000  0.00000000       0.125
   0.00000000  0.50000000  0.00000000       0.125
   0.50000000  0.50000000  0.00000000       0.125
   0.00000000  0.00000000  0.50000000       0.125
   0.50000000  0.00000000  0.50000000       0.125
   0.00000000  0.50000000  0.50000000       0.125
   0.50000000  0.50000000  0.50000000       0.125
 
 position of ions in fractional coordinates (direct lattice) 
   0.99482174  0.99633383  0.99228731
   0.25423932  0.99738178  0.99638954
   0.50062741  0.00443794  0.99783207
   0.76237361  0.00278539  0.99166965
   0.00713600  0.24930992  0.98858844
   0.24297880  0.25769621  0.99336747
   0.49537092  0.25719689  0.99628295
   0.75016475  0.24704541  0.00259343
   0.99406824  0.49769441  0.00725561
   0.25284991  0.50759762  0.99371548
   0.50028327  0.50118153  0.99669939
   0.75984419  0.50629951  0.99171670
   0.00574162  0.74659697  0.99143520
   0.24413895  0.76092320  0.99500905
   0.49683343  0.74483485  0.99266998
   0.74951917  0.75379604  0.00099023
   0.00902079  0.98759823  0.25337655
   0.24647971  0.99827734  0.25464357
   0.50400764  0.99415592  0.24217516
   0.74179391  0.00994527  0.25047640
   0.00150057  0.24445299  0.24331144
   0.24842818  0.23860493  0.26141353
   0.50405783  0.24621856  0.24252004
   0.75098601  0.23162632  0.26139150
   0.99815482  0.49946083  0.24318043
   0.24932776  0.49724110  0.23618917
   0.49523510  0.49897041  0.24883765
   0.75393419  0.49266788  0.24417334
   0.99574225  0.75635981  0.24910476
   0.25691507  0.74203477  0.25164283
   0.50098517  0.74670349  0.25831566
   0.75248415  0.73353603  0.25619772
   0.98691121  0.00658302  0.50274365
   0.24243532  0.99660198  0.50829371
   0.49584413  0.99908929  0.50776000
   0.73641693  0.01385253  0.50207510
   0.99974718  0.24892530  0.49385480
   0.24032891  0.25572881  0.49830552
   0.49481020  0.25971823  0.49340402
   0.74692607  0.26436739  0.49346640
   0.00319075  0.49627122  0.50155202
   0.25179074  0.49724316  0.50677360
   0.50003015  0.50535992  0.48716175
   0.75033906  0.49635423  0.50266766
   0.00521458  0.74412123  0.49777744
   0.24197492  0.75010041  0.49932403
   0.49828540  0.75225259  0.49350086
   0.74647094  0.74763676  0.50282493
   0.00323015  0.99284670  0.75593655
   0.24090380  0.99214087  0.75905804
   0.50234325  0.01001878  0.74980082
   0.75237806  0.01213790  0.74048065
   0.99154328  0.24767381  0.76575610
   0.25389695  0.24332900  0.75053002
   0.50233936  0.25027638  0.74469337
   0.76244586  0.24585963  0.74400941
   0.00377109  0.49685800  0.75884859
   0.24532839  0.50698517  0.75079877
   0.50719371  0.50029906  0.74254538
   0.74185900  0.49480147  0.75668440
   0.99407890  0.75236380  0.74184138
   0.25628178  0.75255665  0.74655029
   0.49753774  0.74842131  0.75175979
   0.75133225  0.74948827  0.74418128
   0.06813983  0.06776169  0.05813394
   0.32195954  0.06899465  0.04875174
   0.56287104  0.06232780  0.06459143
   0.82433220  0.04962731  0.06078968
   0.06141295  0.31850971  0.06732194
   0.30778495  0.31520656  0.06074878
   0.55846082  0.32094041  0.04836350
   0.80883956  0.31983732  0.06515456
   0.05843987  0.56369681  0.05320782
   0.32459944  0.55522874  0.06733016
   0.56795519  0.57155372  0.05605225
   0.81399785  0.55261309  0.06512252
   0.05409142  0.81380990  0.07006443
   0.31775180  0.80944465  0.07198197
   0.55227885  0.82327696  0.06241657
   0.80049051  0.82192745  0.06041014
   0.06860066  0.06073156  0.30518761
   0.32423068  0.05364297  0.30233522
   0.56355572  0.06248546  0.32375008
   0.81267044  0.05670059  0.31290275
   0.07517380  0.32320588  0.29802352
   0.31344549  0.29492481  0.32170233
   0.56652963  0.30973121  0.30808421
   0.80498453  0.31831111  0.32107929
   0.05552619  0.56130315  0.30921664
   0.31074858  0.56323723  0.28894405
   0.58235048  0.54156113  0.31177068
   0.80530916  0.55214031  0.32060919
   0.05299295  0.81582909  0.31438266
   0.32122797  0.81168864  0.30722696
   0.55618594  0.81262684  0.31832389
   0.79865671  0.81009949  0.31720453
   0.05925245  0.07039288  0.56506416
   0.31451802  0.06238612  0.56797227
   0.55866062  0.06266804  0.56316794
   0.81233537  0.05866932  0.56159755
   0.06604514  0.30099167  0.56387693
   0.31339750  0.31329770  0.56637454
   0.56369667  0.30521092  0.55800257
   0.81093522  0.30528572  0.56501356
   0.06539120  0.56084604  0.56400823
   0.32002870  0.56953680  0.55680279
   0.56042094  0.56570780  0.55393246
   0.82322770  0.54665193  0.57355024
   0.05764626  0.81687880  0.56268940
   0.31554900  0.80271499  0.55860414
   0.55556887  0.80279754  0.56699368
   0.81696764  0.80546170  0.56926880
   0.07058919  0.05734724  0.80990244
   0.31600405  0.05731265  0.81112023
   0.56744310  0.04789091  0.82030558
   0.80086490  0.06599974  0.81721380
   0.05262211  0.32401549  0.81783617
   0.31191616  0.32013935  0.81796411
   0.56189533  0.32001537  0.81687270
   0.81084525  0.32286149  0.80663443
   0.06598062  0.55960545  0.81883614
   0.31669216  0.56151887  0.80764776
   0.55836050  0.55993279  0.81717593
   0.80655570  0.56170572  0.81223443
   0.06183994  0.80844323  0.81744528
   0.30827521  0.81657156  0.80962761
   0.56801157  0.81281765  0.80432026
   0.81767475  0.80937530  0.81598641
 
 position of ions in cartesian coordinates  (Angst):
  21.75021306 21.73367480 21.77793296
  21.80654222 13.67854522 13.68939762
  10.96216160 16.38915142  5.52406836
  10.87668663 19.18455637  8.36879932
  13.53930752 10.89057050  2.80483465
  13.68330096 13.52233170  5.47604967
  13.70972728 16.31471616  8.23108523
   2.73038331  8.23316739 10.90682029
   5.52280685 10.95181302 16.31590591
  16.42036240 13.63410174  8.31726844
  16.38282343 16.37299887 10.95335472
  16.38430320 19.15740597 13.84823617
  19.00943784 10.90645572  8.22857823
  19.20521689 13.55297509 10.99270006
  19.00367010 16.29119586 13.58054035
   8.25534934  8.20857177 16.44226006
  13.57295530  2.86992732 10.90035480
  13.70361413  5.48095248 13.61432321
  13.52216551  8.16125022 16.38591475
   2.84831867 10.85279146  8.22202225
   5.33484231  2.67759064  2.69007610
   5.46886873  5.57630895  5.32684369
   5.34549709  8.16557122  8.20602316
   5.39230036 11.07271064 10.74715897
   8.12251532 13.57689791 16.37992220
   8.02177160  5.31026070  8.16547276
   8.17902629  8.13817193 10.87395745
   8.05907830 10.91663506 13.63450280
  10.99710150 13.61530720 19.16332486
  10.86818351  5.56226739 10.92584775
  10.99222981  8.30472658 13.64638714
  10.82504834 11.03229019 16.25309860
   5.57067574 16.29285237 10.86617790
  16.45954636  8.21097394 13.55176444
  16.48091360 10.97675329 16.35058567
   5.64287272 13.54580059  8.20594746
   8.12403379 16.33602326 13.65714752
   8.24712512  8.07869126  5.42554880
   8.23714928 10.80842864  8.25252920
   8.28868105 13.56658642 11.06085401
  10.91352570  5.52054012  5.46278218
  10.98126627  8.29667123  8.19243364
  10.85554066 10.79724717 10.99628661
  10.92663580 13.70455266 13.63550050
  13.58306018  5.50139158  8.19573588
  13.66537201  8.10783391 10.85065890
  13.62522110 10.84749727 13.67755126
  13.67671668 13.66396575 16.34155442
  19.12702600  8.30325950 10.89442486
  19.15344681 10.93691637 13.48622100
   8.31040055 13.69511751  5.60387446
   8.23164019 16.32789376  8.36176612
  11.08422108 19.22016968 13.55373078
  10.87016770 10.98575288  5.43832614
  10.88231618 13.63921310  8.23160956
  10.82652796 16.47660400 11.02817362
  13.73408197  8.34102591  5.47554735
  13.75680270 10.89497517  8.22830442
  13.59340434 13.66881348 11.01928461
  13.68791860 16.39006920 13.52576819
  16.34262068 18.98633936 19.10142658
  16.39623289 10.96830903 11.03400258
  16.40798137 13.66398403 13.62746994
  16.33676222 16.35693050 16.41497481
   1.37696248  1.38109835  1.48640025
   1.28783152  4.05459289  4.27599640
   1.38815803  6.86276641  6.83800836
   1.20766750  9.68087344  9.55878682
   4.21996949  1.40801638  4.15534092
   4.11194899  4.03077633  6.81386600
   4.03920006  6.63703999  9.61830466
   4.21078472  9.55916538 12.34471576
   6.74729177  1.22112805  6.80451641
   6.80913446  4.28666487  9.62297445
   6.86433590  6.82497756 12.46318920
   6.75638053  9.61523286 14.94707982
   9.66722849  1.35793393  9.49252640
   9.64045708  4.26264832 12.32852375
   9.68712566  6.72312887 15.04491292
   9.65042072  9.41595777 17.74492671
   4.00217996  4.08824701  1.41454962
   3.89345222  6.85296033  4.13293016
   4.22438695  9.70475962  6.84722132
   4.04247504 12.31076950  9.50860105
   6.79459321  4.08178360  4.35721152
   6.74425678  6.94682371  6.65394898
   6.75725334  9.56594344  9.58395720
   6.99322615 12.31613581 12.28585924
   9.52116549  3.98931411  6.74646842
   9.32059103  6.55903840  9.55907439
   9.33317473  9.77930150 12.29259626
   9.54555253 12.31454464 14.84687780
  12.36150310  4.01810974  9.50259661
  12.23795330  6.87362130 12.39108704
  12.36958558  9.56480585 14.97116215
  12.32970022 12.20454673 17.59550343
   6.95020576  6.82835909  1.41797423
   6.89444008  9.65209084  4.12232637
   6.84497701 12.26981330  6.79567891
   6.78406569 15.02716277  9.52646896
   9.45935646  6.88966787  4.01440398
   9.62126882  9.62236041  6.85437454
   9.44125403 12.26839889  9.50353223
   9.51875360 15.04921096 12.20848091
  12.30290653  6.88395165  6.84936571
  12.31915198  9.59019857  9.72947468
  12.24587911 12.18805500 12.31684581
  12.25202488 15.27702646 14.98283062
  15.08879780  6.78481807  9.56497239
  14.88920161  9.56090466 12.23082647
  14.98186368 12.27784119 14.85690669
  15.03588628 15.16173051 17.74505111
   9.48539907  9.63023068  1.39928336
   9.49834020 12.32773437  4.08308925
   9.49575479 15.17827045  6.73011348
   9.66000123 17.69746672  9.48118792
  12.48881257  9.52049262  4.11941109
  12.44781731 12.35787751  6.91300204
  12.43452422 15.08004607  9.64575158
  12.35367376 17.69091500 12.39972885
  15.07647565  9.67753616  6.84224354
  14.97503236 12.29728089  9.60528713
  15.06189754 15.04470089 12.23114681
  15.02724193 17.70524787 14.96513178
  17.78288519  9.61703591  9.51857745
  17.78628297 12.22687615 12.30282442
  17.68717696 15.00965113 15.10258998
  17.77712347 17.86789732 17.79558940
 


--------------------------------------------------------------------------------------------------------


 k-point  1 :   0.0000 0.0000 0.0000  plane waves:   66299
 k-point  2 :   0.5000 0.0000 0.0000  plane waves:   66394
 k-point  3 :   0.0000 0.5000 0.0000  plane waves:   66394
 k-point  4 :   0.5000 0.5000 0.0000  plane waves:   66552
 k-point  5 :   0.0000 0.0000 0.5000  plane waves:   66394
 k-point  6 :   0.5000 0.0000 0.5000  plane waves:   66552
 k-point  7 :   0.0000 0.5000 0.5000  plane waves:   66552
 k-point  8 :   0.5000 0.5000 0.5000  plane waves:   66394

 maximum and minimum number of plane-waves per node :      4207     4110

 maximum number of plane-waves:     66552
 maximum index in each direction: 
   IXMAX=   28   IYMAX=   28   IZMAX=   28
   IXMIN=  -28   IYMIN=  -28   IZMIN=  -28


 parallel 3D FFT for wavefunctions:
    minimum data exchange during FFTs selected (reduces bandwidth)
 parallel 3D FFT for charge:
    minimum data exchange during FFTs selected (reduces bandwidth)


 total amount of memory used by VASP MPI-rank0   221701. kBytes
=======================================================================

   base      :      30000. kBytes
   nonl-proj :      10690. kBytes
   fftplans  :      66746. kBytes
   grid      :      26864. kBytes
   one-center:         24. kBytes
   wavefun   :      87377. kBytes
 
     INWAV:  cpu time    0.0000: real time    0.0003
 Broyden mixing: mesh for mixing (old mesh)
   NGX = 57   NGY = 57   NGZ = 57
  (NGX  =240   NGY  =240   NGZ  =240)
  gives a total of 185193 points

 initial charge density was supplied:
 charge density of overlapping atoms calculated
 number of electron     512.0000000 magnetization 
 keeping initial charge density in first step


--------------------------------------------------------------------------------------------------------


 Maximum index for augmentation-charges         5606 (set IRDMAX)


--------------------------------------------------------------------------------------------------------


 First call to EWALD:  gamma=   0.129
 Maximum number of real-space cells 3x 3x 3
 Maximum number of reciprocal cells 3x 3x 3

    FEWALD:  cpu time    0.0062: real time    0.0062


--------------------------------------- Iteration      1(   1)  ---------------------------------------


    POTLOK:  cpu time    0.4905: real time    0.5001
    SETDIJ:  cpu time    0.5071: real time    0.5074
     EDDAV:  cpu time   69.3070: real time   69.3370
       DOS:  cpu time    0.0063: real time    0.0063
    --------------------------------------------
      LOOP:  cpu time   70.3108: real time   70.3508

 eigenvalue-minimisations  :  5152
 total energy-change (2. order) : 0.1383992E+04  (-0.1908335E+05)
 number of electron     512.0000000 magnetization 
 augmentation part      512.0000000 magnetization 

 Free energy of the ion-electron system (eV)
  ---------------------------------------------------
  alpha Z        PSCENC =       210.77028614
  Ewald energy   TEWEN  =    -14472.30428037
  -Hartree energ DENC   =      -753.59189481
  -exchange      EXHF   =         0.00000000
  -V(xc)+E(xc)   XCENC  =     -1195.32324482
  PAW double counting   =      4221.13331941    -1969.18571412
  entropy T*S    EENTRO =        -0.00286519
  eigenvalues    EBANDS =      2150.01537689
  atomic energy  EATOM  =     13192.48085998
  Solvation  Ediel_sol  =         0.00000000
  ---------------------------------------------------
  free energy    TOTEN  =      1383.99184312 eV

  energy without entropy =     1383.99470831  energy(sigma->0) =     1383.99327572


--------------------------------------------------------------------------------------------------------




--------------------------------------- Iteration      1(   2)  ---------------------------------------


     EDDAV:  cpu time   78.7532: real time   78.7918
       DOS:  cpu time    0.0052: real time    0.0052
    --------------------------------------------
      LOOP:  cpu time   78.7584: real time   78.7970

 eigenvalue-minimisations  :  6112
 total energy-change (2. order) :-0.1919827E+04  (-0.1826073E+04)
 number of electron     512.0000000 magnetization 
 augmentation part      512.0000000 magnetization 

 Free energy of the ion-electron system (eV)
  ---------------------------------------------------
  alpha Z        PSCENC =       210.77028614
  Ewald energy   TEWEN  =    -14472.30428037
  -Hartree energ DENC   =      -753.59189481
  -exchange      EXHF   =         0.00000000
  -V(xc)+E(xc)   XCENC  =     -1195.32324482
  PAW double counting   =      4221.13331941    -1969.18571412
  entropy T*S    EENTRO =        -0.00005339
  eigenvalues    EBANDS =       230.18531645
  atomic energy  EATOM  =     13192.48085998
  Solvation  Ediel_sol  =         0.00000000
  ---------------------------------------------------
  free energy    TOTEN  =      -535.83540552 eV

  energy without entropy =     -535.83535213  energy(sigma->0) =     -535.83537883


--------------------------------------------------------------------------------------------------------




--------------------------------------- Iteration      1(   3)  ---------------------------------------


     EDDAV:  cpu time   80.5211: real time   80.5653
       DOS:  cpu time    0.0013: real time    0.0013
    --------------------------------------------
      LOOP:  cpu time   80.5224: real time   80.5667

 eigenvalue-minimisations  :  6288
 total energy-change (2. order) :-0.1495332E+03  (-0.1464564E+03)
 number of electron     512.0000000 magnetization 
 augmentation part      512.0000000 magnetization 

 Free energy of the ion-electron system (eV)
  ---------------------------------------------------
  alpha Z        PSCENC =       210.77028614
  Ewald energy   TEWEN  =    -14472.30428037
  -Hartree energ DENC   =      -753.59189481
  -exchange      EXHF   =         0.00000000
  -V(xc)+E(xc)   XCENC  =     -1195.32324482
  PAW double counting   =      4221.13331941    -1969.18571412
  entropy T*S    EENTRO =        -0.00000000
  eigenvalues    EBANDS =        80.65210138
  atomic energy  EATOM  =     13192.48085998
  Solvation  Ediel_sol  =         0.00000000
  ---------------------------------------------------
  free energy    TOTEN  =      -685.36856720 eV

  energy without entropy =     -685.36856720  energy(sigma->0) =     -685.36856720


--------------------------------------------------------------------------------------------------------




--------------------------------------- Iteration      1(   4)  ---------------------------------------


     EDDAV:  cpu time   79.4520: real time   79.4919
       DOS:  cpu time    0.0013: real time    0.0013
    --------------------------------------------
      LOOP:  cpu time   79.4533: real time   79.4931

 eigenvalue-minimisations  :  6176
 total energy-change (2. order) :-0.4286595E+01  (-0.4250453E+01)
 number of electron     512.0000000 magnetization 
 augmentation part      512.0000000 magnetization 

 Free energy of the ion-electron system (eV)
  ---------------------------------------------------
  alpha Z        PSCENC =       210.77028614
  Ewald energy   TEWEN  =    -14472.30428037
  -Hartree energ DENC   =      -753.59189481
  -exchange      EXHF   =         0.00000000
  -V(xc)+E(xc)   XCENC  =     -1195.32324482
  PAW double counting   =      4221.13331941    -1969.18571412
  entropy T*S    EENTRO =        -0.00000000
  eigenvalues    EBANDS =        76.36550634
  atomic energy  EATOM  =     13192.48085998
  Solvation  Ediel_sol  =         0.00000000
  ---------------------------------------------------
  free energy    TOTEN  =      -689.65516224 eV

  energy without entropy =     -689.65516224  energy(sigma->0) =     -689.65516224


--------------------------------------------------------------------------------------------------------




--------------------------------------- Iteration      1(   5)  ---------------------------------------


     EDDAV:  cpu time   81.3342: real time   81.3809
       DOS:  cpu time    0.0014: real time    0.0014
    CHARGE:  cpu time    3.2776: real time    3.2784
    MIXING:  cpu time    0.0201: real time    0.0202
    --------------------------------------------
      LOOP:  cpu time   84.6335: real time   84.6809

 eigenvalue-minimisations  :  6352
 total energy-change (2. order) :-0.1495438E+00  (-0.1491404E+00)
 number of electron     511.9999998 magnetization 
 augmentation part      -30.1858804 magnetization 

 Broyden mixing:
  rms(total) = 0.23997E+01    rms(broyden)= 0.23997E+01
  rms(prec ) = 0.29075E+01
  weight for this iteration     100.00

 Free energy of the ion-electron system (eV)
  ---------------------------------------------------
  alpha Z        PSCENC =       210.77028614
  Ewald energy   TEWEN  =    -14472.30428037
  -Hartree energ DENC   =      -753.59189481
  -exchange      EXHF   =         0.00000000
  -V(xc)+E(xc)   XCENC  =     -1195.32324482
  PAW double counting   =      4221.13331941    -1969.18571412
  entropy T*S    EENTRO =        -0.00000000
  eigenvalues    EBANDS =        76.21596259
  atomic energy  EATOM  =     13192.48085998
  Solvation  Ediel_sol  =         0.00000000
  ---------------------------------------------------
  free energy    TOTEN  =      -689.80470600 eV

  energy without entropy =     -689.80470600  energy(sigma->0) =     -689.80470600


--------------------------------------------------------------------------------------------------------




--------------------------------------- Iteration      1(   6)  ---------------------------------------


    POTLOK:  cpu time    0.4928: real time    0.4938
    SETDIJ:  cpu time    0.5049: real time    0.5051
     EDDAV:  cpu time   76.8190: real time   76.8395
       DOS:  cpu time    0.0013: real time    0.0013
    CHARGE:  cpu time    3.2668: real time    3.2674
    MIXING:  cpu time    0.0180: real time    0.0180
    --------------------------------------------
      LOOP:  cpu time   81.1028: real time   81.1252

 eigenvalue-minimisations  :  5904
 total energy-change (2. order) : 0.8480005E+01  (-0.5821053E+00)
 number of electron     511.9999998 magnetization 
 augmentation part      -29.8445266 magnetization 

 Broyden mixing:
  rms(total) = 0.14254E+01    rms(broyden)= 0.14254E+01
  rms(prec ) = 0.17176E+01
  weight for this iteration     100.00

 eigenvalues of (default mixing * dielectric matrix)
  average eigenvalue GAMMA=   2.4298
  2.4298

 Free energy of the ion-electron system (eV)
  ---------------------------------------------------
  alpha Z        PSCENC =       210.77028614
  Ewald energy   TEWEN  =    -14472.30428037
  -Hartree energ DENC   =      -848.73499511
  -exchange      EXHF   =         0.00000000
  -V(xc)+E(xc)   XCENC  =     -1180.67350415
  PAW double counting   =      4466.58215968    -2221.42979347
  entropy T*S    EENTRO =        -0.00000000
  eigenvalues    EBANDS =       171.98456637
  atomic energy  EATOM  =     13192.48085998
  Solvation  Ediel_sol  =         0.00000000
  ---------------------------------------------------
  free energy    TOTEN  =      -681.32470093 eV

  energy without entropy =     -681.32470093  energy(sigma->0) =     -681.32470093


--------------------------------------------------------------------------------------------------------




--------------------------------------- Iteration      1(   7)  ---------------------------------------


    POTLOK:  cpu time    0.4901: real time    0.4969
    SETDIJ:  cpu time    0.5032: real time    0.5033
     EDDAV:  cpu time   76.0998: real time   76.1178
       DOS:  cpu time    0.0014: real time    0.0014
    CHARGE:  cpu time    3.2623: real time    3.2628
    MIXING:  cpu time    0.0205: real time    0.0205
    --------------------------------------------
      LOOP:  cpu time   80.3774: real time   80.4028

 eigenvalue-minimisations  :  5832
 total energy-change (2. order) : 0.3552653E+01  (-0.1124176E+01)
 number of electron     511.9999998 magnetization 
 augmentation part      -29.3937692 magnetization 

 Broyden mixing:
  rms(total) = 0.15537E+00    rms(broyden)= 0.15537E+00
  rms(prec ) = 0.20089E+00
  weight for this iteration     100.00

 eigenvalues of (default mixing * dielectric matrix)
  average eigenvalue GAMMA=   2.1065
  2.1065  2.1065

 Free energy of the ion-electron system (eV)
  ---------------------------------------------------
  alpha Z        PSCENC =       210.77028614
  Ewald energy   TEWEN  =    -14472.30428037
  -Hartree energ DENC   =      -999.16499732
  -exchange      EXHF   =         0.00000000
  -V(xc)+E(xc)   XCENC  =     -1156.75100942
  PAW double counting   =      4787.55699155    -2550.96849585
  entropy T*S    EENTRO =        -0.00000000
  eigenvalues    EBANDS =       310.60859748
  atomic energy  EATOM  =     13192.48085998
  Solvation  Ediel_sol  =         0.00000000
  ---------------------------------------------------
  free energy    TOTEN  =      -677.77204781 eV

  energy without entropy =     -677.77204781  energy(sigma->0) =     -677.77204781


--------------------------------------------------------------------------------------------------------




--------------------------------------- Iteration      1(   8)  ---------------------------------------


    POTLOK:  cpu time    0.4923: real time    0.4936
    SETDIJ:  cpu time    0.5034: real time    0.5034
     EDDAV:  cpu time   75.9865: real time   76.0093
       DOS:  cpu time    0.0014: real time    0.0014
    CHARGE:  cpu time    3.2092: real time    3.2119
    MIXING:  cpu time    0.0294: real time    0.0295
    --------------------------------------------
      LOOP:  cpu time   80.2221: real time   80.2491

 eigenvalue-minimisations  :  5816
 total energy-change (2. order) :-0.5832963E-01  (-0.1053241E+00)
 number of electron     511.9999998 magnetization 
 augmentation part      -29.4630132 magnetization 

 Broyden mixing:
  rms(total) = 0.62245E-01    rms(broyden)= 0.62245E-01
  rms(prec ) = 0.76944E-01
  weight for this iteration     100.00

 eigenvalues of (default mixing * dielectric matrix)
  average eigenvalue GAMMA=   2.0081
  2.6742  1.6750  1.6750

 Free energy of the ion-electron system (eV)
  ---------------------------------------------------
  alpha Z        PSCENC =       210.77028614
  Ewald energy   TEWEN  =    -14472.30428037
  -Hartree energ DENC   =      -992.69896941
  -exchange      EXHF   =         0.00000000
  -V(xc)+E(xc)   XCENC  =     -1156.86880582
  PAW double counting   =      4740.35078956    -2502.29217088
  entropy T*S    EENTRO =        -0.00000000
  eigenvalues    EBANDS =       302.73191337
  atomic energy  EATOM  =     13192.48085998
  Solvation  Ediel_sol  =         0.00000000
  ---------------------------------------------------
  free energy    TOTEN  =      -677.83037744 eV

  energy without entropy =     -677.83037744  energy(sigma->0) =     -677.83037744


--------------------------------------------------------------------------------------------------------




--------------------------------------- Iteration      1(   9)  ---------------------------------------


    POTLOK:  cpu time    0.4904: real time    0.4942
    SETDIJ:  cpu time    0.5018: real time    0.5022
     EDDAV:  cpu time   78.9263: real time   78.9599
       DOS:  cpu time    0.0019: real time    0.0019
    CHARGE:  cpu time    3.2023: real time    3.2031
    MIXING:  cpu time    0.0260: real time    0.0260
    --------------------------------------------
      LOOP:  cpu time   83.1487: real time   83.1873

 eigenvalue-minimisations  :  6120
 total energy-change (2. order) :-0.2231234E-01  (-0.1023171E-01)
 number of electron     511.9999998 magnetization 
 augmentation part      -29.4687566 magnetization 

 Broyden mixing:
  rms(total) = 0.27975E-01    rms(broyden)= 0.27975E-01
  rms(prec ) = 0.32582E-01
  weight for this iteration     100.00

 eigenvalues of (default mixing * dielectric matrix)
  average eigenvalue GAMMA=   1.7896
  2.5836  1.8351  1.8351  0.9047

 Free energy of the ion-electron system (eV)
  ---------------------------------------------------
  alpha Z        PSCENC =       210.77028614
  Ewald energy   TEWEN  =    -14472.30428037
  -Hartree energ DENC   =      -999.08996573
  -exchange      EXHF   =         0.00000000
  -V(xc)+E(xc)   XCENC  =     -1155.73319903
  PAW double counting   =      4742.73234160    -2504.73728818
  entropy T*S    EENTRO =        -0.00000000
  eigenvalues    EBANDS =       308.02855581
  atomic energy  EATOM  =     13192.48085998
  Solvation  Ediel_sol  =         0.00000000
  ---------------------------------------------------
  free energy    TOTEN  =      -677.85268978 eV

  energy without entropy =     -677.85268978  energy(sigma->0) =     -677.85268978


--------------------------------------------------------------------------------------------------------




--------------------------------------- Iteration      1(  10)  ---------------------------------------


    POTLOK:  cpu time    0.4923: real time    0.4927
    SETDIJ:  cpu time    0.4997: real time    0.5063
     EDDAV:  cpu time   77.4737: real time   77.5086
       DOS:  cpu time    0.0018: real time    0.0018
    CHARGE:  cpu time    3.2174: real time    3.2178
    MIXING:  cpu time    0.0203: real time    0.0203
    --------------------------------------------
      LOOP:  cpu time   81.7051: real time   81.7475

 eigenvalue-minimisations  :  5976
 total energy-change (2. order) :-0.2480544E-02  (-0.8344599E-03)
 number of electron     511.9999998 magnetization 
 augmentation part      -29.4778776 magnetization 

 Broyden mixing:
  rms(total) = 0.11098E-01    rms(broyden)= 0.11098E-01
  rms(prec ) = 0.13393E-01
  weight for this iteration     100.00

 eigenvalues of (default mixing * dielectric matrix)
  average eigenvalue GAMMA=   1.8495
  2.6640  2.6640  1.5013  1.5013  0.9169

 Free energy of the ion-electron system (eV)
  ---------------------------------------------------
  alpha Z        PSCENC =       210.77028614
  Ewald energy   TEWEN  =    -14472.30428037
  -Hartree energ DENC   =      -998.01941574
  -exchange      EXHF   =         0.00000000
  -V(xc)+E(xc)   XCENC  =     -1155.89336022
  PAW double counting   =      4735.90176474    -2497.73798938
  entropy T*S    EENTRO =        -0.00000000
  eigenvalues    EBANDS =       306.94696452
  atomic energy  EATOM  =     13192.48085998
  Solvation  Ediel_sol  =         0.00000000
  ---------------------------------------------------
  free energy    TOTEN  =      -677.85517032 eV

  energy without entropy =     -677.85517032  energy(sigma->0) =     -677.85517032


--------------------------------------------------------------------------------------------------------




--------------------------------------- Iteration      1(  11)  ---------------------------------------


    POTLOK:  cpu time    0.4902: real time    0.4913
    SETDIJ:  cpu time    0.5034: real time    0.5034
     EDDAV:  cpu time   75.7608: real time   75.7986
       DOS:  cpu time    0.0012: real time    0.0012
    CHARGE:  cpu time    3.1464: real time    3.1474
    MIXING:  cpu time    0.0184: real time    0.0184
    --------------------------------------------
      LOOP:  cpu time   79.9204: real time   79.9604

 eigenvalue-minimisations  :  5808
 total energy-change (2. order) :-0.1460893E-02  (-0.2247742E-03)
 number of electron     511.9999998 magnetization 
 augmentation part      -29.4801970 magnetization 

 Broyden mixing:
  rms(total) = 0.36372E-02    rms(broyden)= 0.36372E-02
  rms(prec ) = 0.51413E-02
  weight for this iteration     100.00

 eigenvalues of (default mixing * dielectric matrix)
  average eigenvalue GAMMA=   1.7729
  2.8390  2.0467  2.0467  1.5691  1.2622  0.8737

 Free energy of the ion-electron system (eV)
  ---------------------------------------------------
  alpha Z        PSCENC =       210.77028614
  Ewald energy   TEWEN  =    -14472.30428037
  -Hartree energ DENC   =      -998.01092298
  -exchange      EXHF   =         0.00000000
  -V(xc)+E(xc)   XCENC  =     -1155.89307453
  PAW double counting   =      4731.93525577    -2493.68162251
  entropy T*S    EENTRO =        -0.00000000
  eigenvalues    EBANDS =       306.84686728
  atomic energy  EATOM  =     13192.48085998
  Solvation  Ediel_sol  =         0.00000000
  ---------------------------------------------------
  free energy    TOTEN  =      -677.85663121 eV

  energy without entropy =     -677.85663121  energy(sigma->0) =     -677.85663121


--------------------------------------------------------------------------------------------------------




--------------------------------------- Iteration      1(  12)  ---------------------------------------


    POTLOK:  cpu time    0.4883: real time    0.4921
    SETDIJ:  cpu time    0.5025: real time    0.5028
     EDDAV:  cpu time   79.0408: real time   79.0772
       DOS:  cpu time    0.0011: real time    0.0011
    CHARGE:  cpu time    3.1424: real time    3.1456
    MIXING:  cpu time    0.0327: real time    0.0327
    --------------------------------------------
      LOOP:  cpu time   83.2078: real time   83.2514

 eigenvalue-minimisations  :  6144
 total energy-change (2. order) :-0.7263813E-04  (-0.4195141E-04)
 number of electron     511.9999998 magnetization 
 augmentation part      -29.4783397 magnetization 

 Broyden mixing:
  rms(total) = 0.18189E-02    rms(broyden)= 0.18189E-02
  rms(prec ) = 0.21706E-02
  weight for this iteration     100.00

 eigenvalues of (default mixing * dielectric matrix)
  average eigenvalue GAMMA=   1.8318
  3.1645  2.6951  1.7667  1.7667  0.8899  1.2699  1.2699

 Free energy of the ion-electron system (eV)
  ---------------------------------------------------
  alpha Z        PSCENC =       210.77028614
  Ewald energy   TEWEN  =    -14472.30428037
  -Hartree energ DENC   =      -998.59556289
  -exchange      EXHF   =         0.00000000
  -V(xc)+E(xc)   XCENC  =     -1155.82816862
  PAW double counting   =      4733.11290243    -2494.90002998
  entropy T*S    EENTRO =        -0.00000000
  eigenvalues    EBANDS =       307.40728946
  atomic energy  EATOM  =     13192.48085998
  Solvation  Ediel_sol  =         0.00000000
  ---------------------------------------------------
  free energy    TOTEN  =      -677.85670385 eV

  energy without entropy =     -677.85670385  energy(sigma->0) =     -677.85670385


--------------------------------------------------------------------------------------------------------




--------------------------------------- Iteration      1(  13)  ---------------------------------------


    POTLOK:  cpu time    0.4903: real time    0.4914
    SETDIJ:  cpu time    0.5032: real time    0.5034
     EDDAV:  cpu time   75.2309: real time   75.2638
       DOS:  cpu time    0.0010: real time    0.0010
    CHARGE:  cpu time    3.1455: real time    3.1460
    MIXING:  cpu time    0.0227: real time    0.0227
    --------------------------------------------
      LOOP:  cpu time   79.3935: real time   79.4284

 eigenvalue-minimisations  :  5760
 total energy-change (2. order) :-0.2838426E-04  (-0.1112603E-04)
 number of electron     511.9999998 magnetization 
 augmentation part      -29.4783658 magnetization 

 Broyden mixing:
  rms(total) = 0.63916E-03    rms(broyden)= 0.63914E-03
  rms(prec ) = 0.82355E-03
  weight for this iteration     100.00

 eigenvalues of (default mixing * dielectric matrix)
  average eigenvalue GAMMA=   1.7764
  3.1405  2.5424  1.9181  1.9181  1.3969  1.3969  0.9493  0.9493

 Free energy of the ion-electron system (eV)
  ---------------------------------------------------
  alpha Z        PSCENC =       210.77028614
  Ewald energy   TEWEN  =    -14472.30428037
  -Hartree energ DENC   =      -998.57912802
  -exchange      EXHF   =         0.00000000
  -V(xc)+E(xc)   XCENC  =     -1155.84012069
  PAW double counting   =      4732.52052143    -2494.29566145
  entropy T*S    EENTRO =        -0.00000000
  eigenvalues    EBANDS =       307.39079074
  atomic energy  EATOM  =     13192.48085998
  Solvation  Ediel_sol  =         0.00000000
  ---------------------------------------------------
  free energy    TOTEN  =      -677.85673223 eV

  energy without entropy =     -677.85673223  energy(sigma->0) =     -677.85673223


--------------------------------------------------------------------------------------------------------




--------------------------------------- Iteration      1(  14)  ---------------------------------------


    POTLOK:  cpu time    0.4915: real time    0.4921
    SETDIJ:  cpu time    0.5030: real time    0.5031
     EDDAV:  cpu time   79.3926: real time   79.4188
       DOS:  cpu time    0.0011: real time    0.0011
    CHARGE:  cpu time    3.1352: real time    3.1356
    MIXING:  cpu time    0.0280: real time    0.0280
    --------------------------------------------
      LOOP:  cpu time   83.5514: real time   83.5787

 eigenvalue-minimisations  :  6184
 total energy-change (2. order) :-0.5600621E-05  (-0.9724689E-06)
 number of electron     511.9999998 magnetization 
 augmentation part      -29.4781685 magnetization 

 Broyden mixing:
  rms(total) = 0.17578E-03    rms(broyden)= 0.17572E-03
  rms(prec ) = 0.24041E-03
  weight for this iteration     100.00

 eigenvalues of (default mixing * dielectric matrix)
  average eigenvalue GAMMA=   1.7757
  3.2109  2.5981  2.2375  1.6708  1.6708  1.3335  1.3335  0.9979  0.9283

 Free energy of the ion-electron system (eV)
  ---------------------------------------------------
  alpha Z        PSCENC =       210.77028614
  Ewald energy   TEWEN  =    -14472.30428037
  -Hartree energ DENC   =      -998.64042329
  -exchange      EXHF   =         0.00000000
  -V(xc)+E(xc)   XCENC  =     -1155.83195302
  PAW double counting   =      4732.70964771    -2494.48917436
  entropy T*S    EENTRO =        -0.00000000
  eigenvalues    EBANDS =       307.44829937
  atomic energy  EATOM  =     13192.48085998
  Solvation  Ediel_sol  =         0.00000000
  ---------------------------------------------------
  free energy    TOTEN  =      -677.85673783 eV

  energy without entropy =     -677.85673783  energy(sigma->0) =     -677.85673783


--------------------------------------------------------------------------------------------------------




--------------------------------------- Iteration      1(  15)  ---------------------------------------


    POTLOK:  cpu time    0.4900: real time    0.4929
    SETDIJ:  cpu time    0.5044: real time    0.5044
     EDDAV:  cpu time   79.6037: real time   79.6244
       DOS:  cpu time    0.0010: real time    0.0010
    CHARGE:  cpu time    3.1352: real time    3.1355
    MIXING:  cpu time    0.0201: real time    0.0201
    --------------------------------------------
      LOOP:  cpu time   83.7544: real time   83.7784

 eigenvalue-minimisations  :  6208
 total energy-change (2. order) :-0.3064310E-05  (-0.1545147E-06)
 number of electron     511.9999998 magnetization 
 augmentation part      -29.4780604 magnetization 

 Broyden mixing:
  rms(total) = 0.68529E-04    rms(broyden)= 0.68364E-04
  rms(prec ) = 0.91185E-04
  weight for this iteration     100.00

 eigenvalues of (default mixing * dielectric matrix)
  average eigenvalue GAMMA=   1.7261
  3.2567  2.6008  2.0952  1.7128  1.7128  1.4697  1.4697  1.0767  0.9331  0.9331

 Free energy of the ion-electron system (eV)
  ---------------------------------------------------
  alpha Z        PSCENC =       210.77028614
  Ewald energy   TEWEN  =    -14472.30428037
  -Hartree energ DENC   =      -998.66204398
  -exchange      EXHF   =         0.00000000
  -V(xc)+E(xc)   XCENC  =     -1155.83076910
  PAW double counting   =      4732.76845719    -2494.54976704
  entropy T*S    EENTRO =        -0.00000000
  eigenvalues    EBANDS =       307.47051629
  atomic energy  EATOM  =     13192.48085998
  Solvation  Ediel_sol  =         0.00000000
  ---------------------------------------------------
  free energy    TOTEN  =      -677.85674090 eV

  energy without entropy =     -677.85674090  energy(sigma->0) =     -677.85674090


--------------------------------------------------------------------------------------------------------




--------------------------------------- Iteration      1(  16)  ---------------------------------------


    POTLOK:  cpu time    0.4909: real time    0.4943
    SETDIJ:  cpu time    0.5010: real time    0.5010
     EDDAV:  cpu time   77.8264: real time   77.8466
       DOS:  cpu time    0.0019: real time    0.0019
    CHARGE:  cpu time    3.2003: real time    3.2009
    MIXING:  cpu time    0.0328: real time    0.0328
    --------------------------------------------
      LOOP:  cpu time   82.0533: real time   82.0774

 eigenvalue-minimisations  :  6000
 total energy-change (2. order) : 0.5374368E-06  (-0.2319386E-07)
 number of electron     511.9999998 magnetization 
 augmentation part      -29.4780661 magnetization 

 Broyden mixing:
  rms(total) = 0.27291E-04    rms(broyden)= 0.26876E-04
  rms(prec ) = 0.34898E-04
  weight for this iteration     100.00

 eigenvalues of (default mixing * dielectric matrix)
  average eigenvalue GAMMA=   1.7086
  3.2809  2.6233  2.0793  2.0793  1.4590  1.4590  1.4409  1.4409  0.9082  1.0121
  1.0121

 Free energy of the ion-electron system (eV)
  ---------------------------------------------------
  alpha Z        PSCENC =       210.77028614
  Ewald energy   TEWEN  =    -14472.30428037
  -Hartree energ DENC   =      -998.66048812
  -exchange      EXHF   =         0.00000000
  -V(xc)+E(xc)   XCENC  =     -1155.83084758
  PAW double counting   =      4732.76048315    -2494.54135495
  entropy T*S    EENTRO =        -0.00000000
  eigenvalues    EBANDS =       307.46860138
  atomic energy  EATOM  =     13192.48085998
  Solvation  Ediel_sol  =         0.00000000
  ---------------------------------------------------
  free energy    TOTEN  =      -677.85674036 eV

  energy without entropy =     -677.85674036  energy(sigma->0) =     -677.85674036


--------------------------------------------------------------------------------------------------------




--------------------------------------- Iteration      1(  17)  ---------------------------------------


    POTLOK:  cpu time    0.4943: real time    0.4949
    SETDIJ:  cpu time    0.5009: real time    0.5010
     EDDAV:  cpu time   57.9850: real time   57.9969
       DOS:  cpu time    0.0013: real time    0.0013
    CHARGE:  cpu time    3.1631: real time    3.1636
    MIXING:  cpu time    0.0345: real time    0.0345
    --------------------------------------------
      LOOP:  cpu time   62.1791: real time   62.1922

 eigenvalue-minimisations  :  4000
 total energy-change (2. order) : 0.3812238E-07  (-0.3035220E-08)
 number of electron     511.9999998 magnetization 
 augmentation part      -29.4780673 magnetization 

 Broyden mixing:
  rms(total) = 0.13793E-04    rms(broyden)= 0.12954E-04
  rms(prec ) = 0.16421E-04
  weight for this iteration     100.00

 eigenvalues of (default mixing * dielectric matrix)
  average eigenvalue GAMMA=   1.7148
  3.3038  2.6238  2.3517  1.9065  1.9065  1.3822  1.3822  1.4611  0.9197  0.9968
  1.2459  1.0972

 Free energy of the ion-electron system (eV)
  ---------------------------------------------------
  alpha Z        PSCENC =       210.77028614
  Ewald energy   TEWEN  =    -14472.30428037
  -Hartree energ DENC   =      -998.66015109
  -exchange      EXHF   =         0.00000000
  -V(xc)+E(xc)   XCENC  =     -1155.83085828
  PAW double counting   =      4732.76269313    -2494.54348664
  entropy T*S    EENTRO =        -0.00000000
  eigenvalues    EBANDS =       307.46819680
  atomic energy  EATOM  =     13192.48085998
  Solvation  Ediel_sol  =         0.00000000
  ---------------------------------------------------
  free energy    TOTEN  =      -677.85674032 eV

  energy without entropy =     -677.85674032  energy(sigma->0) =     -677.85674032


--------------------------------------------------------------------------------------------------------




--------------------------------------- Iteration      1(  18)  ---------------------------------------


    POTLOK:  cpu time    0.4931: real time    0.4936
    SETDIJ:  cpu time    0.5008: real time    0.5009
     EDDAV:  cpu time   51.4278: real time   51.4360
       DOS:  cpu time    0.0017: real time    0.0017
    CHARGE:  cpu time    3.1723: real time    3.1726
    MIXING:  cpu time    0.0210: real time    0.0210
    --------------------------------------------
      LOOP:  cpu time   55.6169: real time   55.6258

 eigenvalue-minimisations  :  3336
 total energy-change (2. order) :-0.1379394E-06  (-0.7275854E-09)
 number of electron     511.9999998 magnetization 
 augmentation part      -29.4780618 magnetization 

 Broyden mixing:
  rms(total) = 0.65138E-05    rms(broyden)= 0.44686E-05
  rms(prec ) = 0.62364E-05
  weight for this iteration     100.00
  WARNING: grid for Broyden might be to small

 eigenvalues of (default mixing * dielectric matrix)
  average eigenvalue GAMMA=   1.7249
  3.2423  2.6473  2.3959  2.3959  1.7388  1.7388  1.3909  1.3909  0.9202  0.9858
  1.0149  1.2811  1.2811

 Free energy of the ion-electron system (eV)
  ---------------------------------------------------
  alpha Z        PSCENC =       210.77028614
  Ewald energy   TEWEN  =    -14472.30428037
  -Hartree energ DENC   =      -998.66130216
  -exchange      EXHF   =         0.00000000
  -V(xc)+E(xc)   XCENC  =     -1155.83073114
  PAW double counting   =      4732.76727317    -2494.54815015
  entropy T*S    EENTRO =        -0.00000000
  eigenvalues    EBANDS =       307.46930407
  atomic energy  EATOM  =     13192.48085998
  Solvation  Ediel_sol  =         0.00000000
  ---------------------------------------------------
  free energy    TOTEN  =      -677.85674046 eV

  energy without entropy =     -677.85674046  energy(sigma->0) =     -677.85674046


--------------------------------------------------------------------------------------------------------




--------------------------------------- Iteration      1(  19)  ---------------------------------------


    POTLOK:  cpu time    0.4894: real time    0.4964
    SETDIJ:  cpu time    0.5039: real time    0.5039
     EDDAV:  cpu time   50.7133: real time   50.7371
       DOS:  cpu time    0.0011: real time    0.0011
    CHARGE:  cpu time    3.1695: real time    3.1705
    MIXING:  cpu time    0.0332: real time    0.0332
    --------------------------------------------
      LOOP:  cpu time   54.9103: real time   54.9422

 eigenvalue-minimisations  :  3264
 total energy-change (2. order) : 0.5792572E-07  (-0.1691390E-09)
 number of electron     511.9999998 magnetization 
 augmentation part      -29.4780640 magnetization 

 Broyden mixing:
  rms(total) = 0.52924E-05    rms(broyden)= 0.23556E-05
  rms(prec ) = 0.31965E-05
  weight for this iteration     100.00
  WARNING: grid for Broyden might be to small

 eigenvalues of (default mixing * dielectric matrix)
  average eigenvalue GAMMA=   1.6667
  3.2900  2.6828  2.3612  2.3612  1.7477  1.7477  1.4464  1.4464  1.3115  1.3115
  0.9994  0.9994  0.9138  0.7155

 Free energy of the ion-electron system (eV)
  ---------------------------------------------------
  alpha Z        PSCENC =       210.77028614
  Ewald energy   TEWEN  =    -14472.30428037
  -Hartree energ DENC   =      -998.66078016
  -exchange      EXHF   =         0.00000000
  -V(xc)+E(xc)   XCENC  =     -1155.83077388
  PAW double counting   =      4732.76664676    -2494.54747543
  entropy T*S    EENTRO =        -0.00000000
  eigenvalues    EBANDS =       307.46877656
  atomic energy  EATOM  =     13192.48085998
  Solvation  Ediel_sol  =         0.00000000
  ---------------------------------------------------
  free energy    TOTEN  =      -677.85674040 eV

  energy without entropy =     -677.85674040  energy(sigma->0) =     -677.85674040


--------------------------------------------------------------------------------------------------------




--------------------------------------- Iteration      1(  20)  ---------------------------------------


    POTLOK:  cpu time    0.4918: real time    0.4939
    SETDIJ:  cpu time    0.5032: real time    0.5032
     EDDAV:  cpu time   49.7823: real time   49.8046
       DOS:  cpu time    0.0010: real time    0.0010
    --------------------------------------------
      LOOP:  cpu time   50.7782: real time   50.8027

 eigenvalue-minimisations  :  3168
 total energy-change (2. order) :-0.2528395E-08  (-0.4316582E-10)
 number of electron     511.9999998 magnetization 
 augmentation part      -29.4780640 magnetization 

 Free energy of the ion-electron system (eV)
  ---------------------------------------------------
  alpha Z        PSCENC =       210.77028614
  Ewald energy   TEWEN  =    -14472.30428037
  -Hartree energ DENC   =      -998.66090117
  -exchange      EXHF   =         0.00000000
  -V(xc)+E(xc)   XCENC  =     -1155.83076177
  PAW double counting   =      4732.76671671    -2494.54754862
  entropy T*S    EENTRO =        -0.00000000
  eigenvalues    EBANDS =       307.46888869
  atomic energy  EATOM  =     13192.48085998
  Solvation  Ediel_sol  =         0.00000000
  ---------------------------------------------------
  free energy    TOTEN  =      -677.85674041 eV

  energy without entropy =     -677.85674041  energy(sigma->0) =     -677.85674041


--------------------------------------------------------------------------------------------------------




 average (electrostatic) potential at core
  the test charge radii are     0.9892
  (the norm of the test charge is              1.0000)
       1 -83.4523       2 -83.3526       3 -83.4749       4 -83.5888       5 -83.4252
       6 -83.3627       7 -83.4014       8 -83.5320       9 -83.5580      10 -83.3778
      11 -83.5250      12 -83.5445      13 -83.3968      14 -83.4802      15 -83.4643
      16 -83.5634      17 -83.6598      18 -83.5581      19 -83.5870      20 -83.6956
      21 -83.6153      22 -83.3954      23 -83.4305      24 -83.5895      25 -83.5848
      26 -83.5076      27 -83.5628      28 -83.6670      29 -83.4978      30 -83.5288
      31 -83.5097      32 -83.6414      33 -83.6012      34 -83.4415      35 -83.6350
      36 -83.6211      37 -83.4941      38 -83.4101      39 -83.4467      40 -83.5033
      41 -83.5736      42 -83.4031      43 -83.5859      44 -83.5734      45 -83.5590
      46 -83.4494      47 -83.4556      48 -83.4801      49 -83.5261      50 -83.5128
      51 -83.5501      52 -83.6931      53 -83.5814      54 -83.4394      55 -83.5341
      56 -83.4862      57 -83.5221      58 -83.5416      59 -83.4864      60 -83.6188
      61 -83.5482      62 -83.3666      63 -83.5530      64 -83.4705      65 -83.6123
      66 -83.4527      67 -83.5668      68 -83.6549      69 -83.4395      70 -83.2864
      71 -83.4710      72 -83.5702      73 -83.4655      74 -83.4460      75 -83.4828
      76 -83.7070      77 -83.4429      78 -83.3712      79 -83.5184      80 -83.5223
      81 -83.6447      82 -83.4519      83 -83.6102      84 -83.6245      85 -83.5678
      86 -83.4237      87 -83.4360      88 -83.6040      89 -83.6676      90 -83.5603
      91 -83.6583      92 -83.7195      93 -83.6096      94 -83.5455      95 -83.4372
      96 -83.5134      97 -83.5139      98 -83.4996      99 -83.5250     100 -83.6190
     101 -83.4105     102 -83.3935     103 -83.5520     104 -83.4754     105 -83.5224
     106 -83.5646     107 -83.5769     108 -83.5828     109 -83.5791     110 -83.3824
     111 -83.5362     112 -83.4891     113 -83.5853     114 -83.4697     115 -83.5424
     116 -83.6088     117 -83.3727     118 -83.4273     119 -83.4279     120 -83.4280
     121 -83.6275     122 -83.3306     123 -83.6063     124 -83.5817     125 -83.4615
     126 -83.4755     127 -83.5100     128 -83.5539
 
 
 
 E-fermi :   5.9619     XC(G=0):  -9.3330     alpha+bet :-11.7321


 k-point     1 :       0.0000    0.0000    0.0000
  band No.  band energies     occupation 
      1      -6.3057      2.00000
      2      -5.7611      2.00000
      3      -5.6375      2.00000
      4      -5.5885      2.00000
      5      -5.5339      2.00000
      6      -5.4950      2.00000
      7      -5.4613      2.00000
      8      -5.4481      2.00000
      9      -5.3966      2.00000
     10      -5.3752      2.00000
     11      -5.2715      2.00000
     12      -5.2203      2.00000
     13      -5.2099      2.00000
     14      -5.1333      2.00000
     15      -5.0742      2.00000
     16      -4.5700      2.00000
     17      -4.4763      2.00000
     18      -4.4027      2.00000
     19      -4.3917      2.00000
     20      -4.3817      2.00000
     21      -4.3289      2.00000
     22      -4.2887      2.00000
     23      -4.2661      2.00000
     24      -4.2488      2.00000
     25      -4.1756      2.00000
     26      -4.1528      2.00000
     27      -4.1324      2.00000
     28      -4.0777      2.00000
     29      -4.0457      2.00000
     30      -3.9884      2.00000
     31      -3.9566      2.00000
     32      -3.9063      2.00000
     33      -3.8830      2.00000
     34      -3.8300      2.00000
     35      -3.7854      2.00000
     36      -3.7482      2.00000
     37      -3.7136      2.00000
     38      -3.6603      2.00000
     39      -3.6483      2.00000
     40      -3.6247      2.00000
     41      -3.6166      2.00000
     42      -3.5978      2.00000
     43      -3.5686      2.00000
     44      -3.5593      2.00000
     45      -3.5506      2.00000
     46      -3.5212      2.00000
     47      -3.4898      2.00000
     48      -3.4660      2.00000
     49      -3.4365      2.00000
     50      -3.3802      2.00000
     51      -3.3471      2.00000
     52      -3.3237      2.00000
     53      -3.2937      2.00000
     54      -3.2414      2.00000
     55      -3.2038      2.00000
     56      -2.3661      2.00000
     57      -2.3165      2.00000
     58      -2.3004      2.00000
     59      -2.2865      2.00000
     60      -2.2190      2.00000
     61      -2.1502      2.00000
     62      -2.1337      2.00000
     63      -2.1275      2.00000
     64      -2.0966      2.00000
     65      -2.0618      2.00000
     66      -2.0456      2.00000
     67      -1.9856      2.00000
     68      -1.9532      2.00000
     69      -1.9194      2.00000
     70      -1.8933      2.00000
     71      -1.8435      2.00000
     72      -1.8304      2.00000
     73      -1.7960      2.00000
     74      -1.3798      2.00000
     75      -1.2856      2.00000
     76      -1.2577      2.00000
     77      -1.1908      2.00000
     78      -1.0987      2.00000
     79      -1.0642      2.00000
     80      -1.0274      2.00000
     81      -0.9441      2.00000
     82      -0.9132      2.00000
     83      -0.8747      2.00000
     84      -0.8603      2.00000
     85      -0.8427      2.00000
     86      -0.7956      2.00000
     87      -0.7704      2.00000
     88      -0.7382      2.00000
     89      -0.7290      2.00000
     90      -0.7090      2.00000
     91      -0.6761      2.00000
     92      -0.6440      2.00000
     93      -0.6179      2.00000
     94      -0.6142      2.00000
     95      -0.5814      2.00000
     96      -0.5613      2.00000
     97      -0.5016      2.00000
     98      -0.4665      2.00000
     99      -0.4297      2.00000
    100      -0.3973      2.00000
    101      -0.3466      2.00000
    102       0.0239      2.00000
    103       0.0284      2.00000
[...]
   -.108E+02 0.753E+01 -.648E+01   0.935E+01 -.754E+01 0.601E+01   0.290E+01 -.669E+00 0.232E+01   -.791E-06 -.212E-07 0.321E-05
   0.242E+01 -.599E+01 0.531E+01   -.182E+01 0.601E+01 -.463E+01   -.231E+01 -.554E+00 -.200E+00   -.620E-05 0.766E-06 0.329E-05
   -.338E+01 0.528E+01 0.266E+01   0.348E+01 -.492E+01 -.288E+01   -.816E+00 -.256E+01 -.548E-02   -.238E-05 -.444E-05 0.257E-05
   0.690E+01 -.310E+01 0.831E+01   -.650E+01 0.282E+01 -.755E+01   -.177E+01 0.128E+01 -.170E+01   -.191E-05 -.312E-05 -.165E-05
   -.582E+01 -.110E+02 0.172E+01   0.441E+01 0.971E+01 -.175E+01   0.751E+00 0.346E+01 0.412E+00   -.126E-06 0.356E-05 -.750E-06
   -.467E+01 -.187E+01 0.401E+01   0.398E+01 0.166E+01 -.383E+01   0.190E+01 0.287E+00 -.159E+01   0.953E-06 -.327E-06 0.300E-05
   -.776E+01 -.464E+01 0.249E+01   0.740E+01 0.413E+01 -.272E+01   0.239E+01 0.750E+00 -.106E+01   0.409E-05 -.877E-06 0.205E-05
   0.350E+01 0.547E+01 0.103E+02   -.310E+01 -.548E+01 -.844E+01   -.115E+01 -.188E+01 -.261E+01   0.230E-05 -.474E-05 -.402E-05
   0.118E+02 -.129E+02 -.524E+00   -.108E+02 0.114E+02 0.726E+00   -.146E+01 0.339E+01 -.257E+00   -.218E-05 0.293E-05 0.223E-05
   0.232E+00 0.519E+00 0.831E+01   -.483E+00 0.105E-01 -.750E+01   -.747E-01 -.679E+00 -.406E+01   -.435E-05 0.263E-05 -.734E-06
   -.236E+01 -.198E+01 -.105E+02   0.184E+01 0.212E+01 0.921E+01   0.399E+00 -.106E+01 0.335E+01   0.142E-05 0.104E-05 -.137E-05
   0.199E+01 0.802E+01 -.195E+00   -.204E+01 -.799E+01 -.159E+00   -.331E-01 -.809E+00 -.184E-01   0.125E-05 -.220E-05 -.253E-05
   0.195E+02 -.350E+01 0.110E+01   -.178E+02 0.342E+01 -.136E+01   -.529E+01 -.380E-01 0.233E+00   -.474E-05 0.326E-05 -.837E-06
   -.755E+01 -.329E+01 -.366E+01   0.719E+01 0.258E+01 0.344E+01   0.869E+00 0.101E+01 0.116E+01   -.221E-05 0.212E-05 0.215E-05
   -.858E+01 -.768E+01 0.116E+02   0.823E+01 0.684E+01 -.112E+02   0.180E+01 0.309E+01 -.101E+01   0.388E-06 0.161E-05 -.231E-05
   -.192E+01 0.184E+02 0.112E+01   0.186E+01 -.173E+02 -.145E+01   0.169E+01 -.458E+01 -.366E+00   0.501E-06 -.567E-05 -.184E-05
   0.674E+00 -.433E+01 -.529E+01   0.561E-01 0.461E+01 0.566E+01   -.185E+01 0.793E-01 0.320E+00   -.226E-05 0.427E-07 0.201E-05
   0.817E+01 -.724E+01 0.259E+01   -.731E+01 0.619E+01 -.255E+01   -.275E+01 0.304E+01 -.142E+00   -.428E-05 0.448E-05 0.101E-05
   0.535E-01 0.564E+01 0.504E+01   -.248E+00 -.499E+01 -.481E+01   0.840E+00 -.948E+00 -.169E+01   0.110E-05 -.212E-05 -.239E-05
   0.271E+01 -.162E+01 -.129E+02   -.274E+01 0.142E+01 0.116E+02   -.159E+01 0.350E+00 0.263E+01   0.323E-05 0.173E-05 0.967E-06
   -.179E+01 0.158E+00 -.607E+01   0.177E+01 0.471E+00 0.541E+01   0.157E+00 -.111E+00 0.207E+01   -.121E-05 -.237E-05 0.113E-05
   0.555E+01 0.622E+00 0.493E+01   -.517E+01 -.538E+00 -.402E+01   -.133E+01 -.163E-01 -.254E+01   -.665E-06 0.180E-05 0.262E-06
   -.538E+00 0.458E+01 -.136E+01   0.500E+00 -.479E+01 0.145E+01   0.399E+00 -.116E+01 -.114E+01   0.420E-05 0.415E-06 -.957E-06
   -.285E+01 0.341E+01 0.351E+01   0.244E+01 -.313E+01 -.309E+01   0.189E+01 -.756E+00 -.582E-01   0.610E-05 -.365E-05 -.411E-05
   -.289E+00 0.598E+01 -.150E+01   -.479E+00 -.540E+01 0.169E+01   0.222E+01 -.245E+01 0.554E+00   0.392E-05 -.212E-05 0.128E-05
   -.961E+01 -.556E-02 0.419E+01   0.867E+01 0.107E+00 -.328E+01   0.303E+01 -.100E+01 -.189E+01   -.165E-05 0.554E-05 0.399E-06
   0.173E+01 0.737E+01 0.541E+01   -.796E+00 -.700E+01 -.466E+01   -.121E+01 -.137E+01 -.151E+01   -.161E-05 0.161E-05 -.337E-05
   -.733E+01 -.206E+01 0.327E+01   0.702E+01 0.166E+01 -.360E+01   0.186E+01 0.233E+00 0.125E+01   0.172E-05 -.129E-06 -.328E-05
   -.592E+00 -.375E+01 -.473E+01   0.570E+00 0.330E+01 0.429E+01   0.386E+00 0.361E+00 0.194E+01   -.849E-06 0.193E-05 -.217E-05
   0.410E+01 0.817E+00 0.252E+01   -.461E+01 -.525E+00 -.155E+01   0.364E+00 0.335E+00 -.149E+01   -.259E-05 0.332E-05 0.510E-06
   0.207E+01 -.328E+00 0.705E+01   -.224E+01 -.117E+01 -.680E+01   0.271E+00 0.904E+00 -.197E+01   0.144E-05 0.181E-05 -.254E-05
   0.444E-01 -.366E+01 0.132E+01   -.342E+00 0.343E+01 -.116E+01   0.732E-01 0.905E+00 -.138E-01   0.541E-05 0.479E-07 -.278E-05
   0.480E-01 0.599E+01 -.691E+01   -.557E-01 -.575E+01 0.752E+01   0.615E+00 -.256E+01 -.489E+00   0.111E-05 -.623E-06 -.306E-05
   0.150E+01 0.532E+01 -.587E+01   -.145E+01 -.511E+01 0.534E+01   -.648E+00 -.111E+01 0.748E+00   -.192E-05 0.334E-05 0.312E-05
   -.471E+01 0.594E+01 -.108E+00   0.483E+01 -.601E+01 0.127E-01   0.136E+01 -.463E+00 0.193E+00   0.229E-05 0.303E-05 -.832E-06
   -.914E+00 -.521E+00 -.795E+01   0.665E+00 0.105E+01 0.746E+01   0.821E+00 -.258E+00 0.180E+01   0.343E-05 -.304E-05 -.418E-05
   0.509E+01 0.118E+02 -.896E+01   -.482E+01 -.107E+02 0.782E+01   -.875E+00 -.335E+01 0.226E+01   0.349E-06 -.177E-05 0.110E-05
   -.808E+01 0.910E+01 -.618E+01   0.718E+01 -.822E+01 0.512E+01   0.282E+01 -.284E+01 -.349E+00   -.777E-06 0.218E-05 0.664E-05
   0.412E+01 0.328E+01 0.269E+00   -.282E+01 -.279E+01 -.436E+00   -.127E+01 -.643E+00 -.189E+00   -.340E-06 -.305E-05 -.754E-06
   -.177E+01 -.168E+01 -.620E+01   0.176E+01 0.129E+01 0.561E+01   0.928E+00 -.237E+00 0.299E+01   0.311E-05 -.157E-05 -.177E-05
   0.371E+01 -.209E+00 -.135E+01   -.315E+01 0.103E+00 0.175E+01   -.189E+01 0.842E+00 0.146E+01   0.911E-06 -.213E-05 0.271E-05
   0.164E+02 0.189E+01 -.597E+01   -.150E+02 -.149E+01 0.530E+01   -.500E+01 -.925E-02 0.920E+00   -.652E-05 0.377E-05 -.938E-06
   0.112E+02 0.464E+01 -.445E+01   -.105E+02 -.414E+01 0.388E+01   -.275E+01 -.183E+01 0.881E+00   -.814E-06 0.946E-06 -.234E-05
   0.125E+02 0.407E+00 0.268E+01   -.116E+02 -.581E+00 -.273E+01   -.354E+01 -.179E+00 0.140E+00   0.533E-07 0.119E-06 -.231E-05
   0.347E+01 -.600E+01 0.606E+01   -.313E+01 0.609E+01 -.565E+01   -.138E+01 0.161E+01 -.274E+01   -.178E-05 0.223E-05 -.216E-05
   -.373E+01 0.393E+01 -.323E+01   0.288E+01 -.434E+01 0.329E+01   0.162E+01 -.779E+00 -.317E+00   0.144E-05 0.402E-05 0.831E-06
   0.441E+00 -.119E+01 -.261E+01   0.923E-01 0.100E+01 0.233E+01   0.122E+00 0.491E+00 0.947E+00   0.200E-05 0.409E-06 0.145E-05
   -.182E+01 0.526E+01 -.423E+01   0.196E+01 -.533E+01 0.364E+01   -.316E+00 -.103E+01 0.107E+01   0.244E-05 -.236E-05 -.822E-06
   0.613E+01 0.359E+01 -.587E+01   -.508E+01 -.336E+01 0.593E+01   -.165E+01 0.190E+00 0.110E+01   0.391E-06 -.118E-06 -.141E-05
   0.114E+02 0.671E+01 -.116E+01   -.101E+02 -.586E+01 0.102E+01   -.328E+01 -.201E+01 0.127E+01   -.416E-05 0.369E-05 0.235E-05
   0.258E+01 -.910E+01 -.954E+00   -.226E+01 0.815E+01 0.476E+00   -.809E+00 0.245E+01 0.192E+00   0.568E-06 -.103E-06 -.324E-06
   -.413E+01 0.402E+01 -.419E+01   0.375E+01 -.377E+01 0.423E+01   0.122E+01 -.951E+00 -.111E+00   0.304E-05 -.200E-05 -.413E-05
   -.523E+01 0.832E+01 0.416E+01   0.448E+01 -.710E+01 -.373E+01   0.127E+01 -.313E+01 -.830E+00   0.125E-05 -.125E-05 -.245E-05
 -----------------------------------------------------------------------------------------------
   0.758E+00 0.411E+00 -.171E+00   -.302E-13 0.163E-12 0.622E-14   -.758E+00 -.411E+00 0.171E+00   0.265E-05 0.133E-05 -.476E-06
 
 
 POSITION                                       TOTAL-FORCE (eV/Angst)
 -----------------------------------------------------------------------------------
     21.75021     21.73367     21.77793        -0.116081      2.531606      2.129137
     21.80654     13.67855     13.68940         0.332202      0.653823      0.438674
     10.96216     16.38915      5.52407         0.368254      0.848273      0.208858
     10.87669     19.18456      8.36880         1.233977     -0.661149     -2.268315
     13.53931     10.89057      2.80483         3.060011      1.182021     -0.958968
     13.68330     13.52233      5.47605         0.575188      1.826965     -0.222959
     13.70973     16.31472      8.23109        -0.219235      0.253888     -1.443494
      2.73038      8.23317     10.90682        -0.192642     -0.398788      0.332456
      5.52281     10.95181     16.31591        -0.794488     -0.567080      0.583383
     16.42036     13.63410      8.31727        -0.100879      0.440011     -0.747200
     16.38282     16.37300     10.95335         0.437512      1.406444      1.097771
     16.38430     19.15741     13.84824        -0.135409     -0.975077     -1.967454
     19.00944     10.90646      8.22858         2.510567      0.447396     -1.392269
     19.20522     13.55298     10.99270         0.288225      1.673600     -0.619034
     19.00367     16.29120     13.58054         1.416620     -0.006781      2.101910
      8.25535      8.20857     16.44226        -0.370886     -0.521974     -1.449354
     13.57296      2.86993     10.90035         1.304822     -2.302020      1.412825
     13.70361      5.48095     13.61432        -1.814204     -0.168839      1.367991
     13.52217      8.16125     16.38591         1.421384      1.563156      0.689281
      2.84832     10.85279      8.22202        -2.073942      0.728684     -0.698240
      5.33484      2.67759      2.69008         2.109268      0.812588      0.109671
      5.46887      5.57631      5.32684        -1.736778     -0.234592      1.418768
      5.34550      8.16557      8.20602         0.743610     -0.206925      0.063521
      5.39230     11.07271     10.74716         1.446301     -1.231252      2.539655
      8.12252     13.57690     16.37992         0.840781     -1.011135      0.475115
      8.02177      5.31026      8.16547         0.946749      1.413546     -2.784809
      8.17903      8.13817     10.87396        -0.606107      0.333659      0.958527
      8.05908     10.91664     13.63450         0.259734      0.885329      1.273468
     10.99710     13.61531     19.16332         0.121721      0.015335     -1.926997
     10.86818      5.56227     10.92585         1.267342     -0.611380     -0.397777
     10.99223      8.30473     13.64639        -1.891810      0.007137      0.105106
     10.82505     11.03229     16.25310         0.814588     -1.734136      0.658786
      5.57068     16.29285     10.86618        -1.342248      1.401842      1.897174
     16.45955      8.21097     13.55176        -1.296640      0.490284      1.353247
     16.48091     10.97675     16.35059        -0.973736      0.637986     -0.607878
      5.64287     13.54580      8.20595        -2.180770      1.155176     -0.390333
      8.12403     16.33602     13.65715         0.519230     -0.692356      1.056086
      8.24713      8.07869      5.42555        -0.189801      2.681887      0.588429
      8.23715     10.80843      8.25253        -1.362002      0.386592     -0.852798
      8.28868     13.56659     11.06085        -0.318842      1.405597     -2.432801
     10.91353      5.52054      5.46278        -1.017137      0.699939      0.176734
     10.98127      8.29667      8.19243        -0.587685     -0.997429      0.939318
     10.85554     10.79725     10.99629        -0.079374      2.032880     -0.750719
     10.92664     13.70455     13.63550         0.464593      0.718310     -0.423232
     13.58306      5.50139      8.19574         1.021326     -0.086273      0.002691
     13.66537      8.10783     10.85066        -0.119320     -0.088672      1.058359
     13.62522     10.84750     13.67755         0.511380      0.750142     -0.991906
     13.67672     13.66397     16.34155        -0.053646      0.915029     -0.452623
     19.12703      8.30326     10.89442         0.476038     -1.334242      0.013016
     19.15345     10.93692     13.48622        -0.697428      0.812327      3.365909
      8.31040     13.69512      5.60387        -1.783637     -0.701497     -1.735151
      8.23164     16.32789      8.36177        -0.499926      0.856605     -2.055145
     11.08422     19.22017     13.55373        -1.164128     -0.191688      1.440483
     10.87017     10.98575      5.43833         1.601741     -0.071141      0.103488
     10.88232     13.63921      8.23161         0.665951      1.108913     -0.307356
     10.82653     16.47660     11.02817         1.961098     -0.364180     -0.689878
     13.73408      8.34103      5.47555         0.757793     -2.330370      0.810881
     13.75680     10.89498      8.22830        -1.228369      0.402557      0.736548
     13.59340     13.66881     11.01928         0.570362     -0.839125     -0.204290
     13.68792     16.39007     13.52577         0.978523     -0.530238      1.488674
     16.34262     18.98634     19.10143         0.254222      2.439546      0.237994
     16.39623     10.96831     11.03400        -0.822922     -0.764980     -1.360514
     16.40798     13.66398     13.62747         0.128444     -0.032334      0.020976
     16.33676     16.35693     16.41497         1.151706      1.644828     -0.457509
      1.37696      1.38110      1.48640        -0.940630     -0.015487     -1.700849
      1.28783      4.05459      4.27600         1.215200     -0.655008     -1.772415
      1.38816      6.86277      6.83801        -0.802269     -0.511212      1.770065
      1.20767      9.68087      9.55879         2.993276     -1.395834     -0.325885
      4.21997      1.40802      4.15534        -1.932790     -1.156738     -0.782552
      4.11195      4.03078      6.81387         0.589237      0.218481     -0.058174
      4.03920      6.63704      9.61830         0.109304      2.142087     -0.299710
      4.21078      9.55917     12.34472        -1.043926      0.705678     -0.604016
      6.74729      1.22113      6.80452         0.720974      1.607199      1.007188
      6.80913      4.28666      9.62297        -0.177595     -3.758803      0.802308
      6.86434      6.82498     12.46319        -1.276247      1.297017     -1.626668
      6.75638      9.61523     14.94708         1.485082     -0.677684      1.849981
      9.66723      1.35793      9.49253        -1.708754     -0.536046      0.472443
      9.64046      4.26265     12.32852        -0.716573     -2.202695     -0.229662
      9.68713      6.72313     15.04491        -1.365503      1.005887     -0.939853
      9.65042      9.41596     17.74493        -0.652857      2.194945      0.382943
      4.00218      4.08825      1.41455         1.212530      0.076160     -1.403094
      3.89345      6.85296      4.13293         2.042326      0.237111     -1.291192
      4.22439      9.70476      6.84722        -0.755214     -1.896304     -0.777568
      4.04248     12.31077      9.50860        -0.511441      1.851834     -0.053827
      6.79459      4.08178      4.35721        -0.325669     -0.149199     -3.246889
      6.74426      6.94682      6.65395        -0.115942     -0.917753      2.028340
      6.75725      9.56594      9.58396        -0.078539     -0.770566     -0.373215
      6.99323     12.31614     12.28586        -3.607323     -0.120817     -0.024248
      9.52117      3.98931      6.74647         0.518175      0.299154      0.933884
      9.32059      6.55904      9.55907         1.446227      2.259764     -0.630431
      9.33317      9.77930     12.29260         1.637192     -3.522664     -0.688168
      9.54555     12.31454     14.84688        -1.120983      0.360332      0.690980
     12.36150      4.01811      9.50260        -1.889858      1.995348     -0.105501
     12.23795      6.87362     12.39109         0.645533     -0.299051     -1.455100
     12.36959      9.56481     14.97116        -1.611062      0.156192      1.298672
     12.32970     12.20455     17.59550         0.143141      0.518740      1.412390
      6.95021      6.82836      1.41797        -0.945064      0.067323     -1.634251
      6.89444      9.65209      4.12233         0.360865     -1.374152     -1.047745
      6.84498     12.26981      6.79568         1.474582     -0.481261      0.360075
      6.78407     15.02716      9.52647         1.447783     -1.864666      0.739523
      9.45936      6.88967      4.01440         2.081249     -0.901140     -0.980127
      9.62127      9.62236      6.85437        -0.274910     -0.995448     -0.766054
      9.44125     12.26840      9.50353         1.539971     -0.164434      0.919716
      9.51875     15.04921     12.20848         0.362871     -0.086107      1.494616
     12.30291      6.88395      6.84937        -0.151674      0.627475     -0.523238
     12.31915      9.59020      9.72947         0.096299     -0.589062     -1.719447
     12.24588     12.18805     12.31685        -0.224345      0.675877      0.145672
     12.25202     15.27703     14.98283         0.607335     -2.309728      0.123564
     15.08880      6.78482      9.56497        -0.601266     -0.899614      0.220641
     14.88920      9.56090     12.23083         1.481399     -0.536748      0.096786
     14.98186     12.27784     14.85691         0.571032      0.270070      1.309381
     15.03589     15.16173     17.74505        -0.603474     -2.263272      1.113551
      9.48540      9.63023      1.39928         1.916016     -1.963563     -1.409029
      9.49834     12.32773      4.08309         0.028412     -0.152699     -0.355799
      9.49575     15.17827      6.73011         0.923746     -0.623893      2.406977
      9.66000     17.69747      9.48119        -1.329335      0.736562      1.849203
     12.48881      9.52049      4.11941        -3.513707      0.396732      0.241592
     12.44782     12.35788      6.91300        -2.021720     -1.333286      0.306194
     12.43452     15.08005      9.64575        -2.655486     -0.352473      0.089456
     12.35367     17.69091     12.39973        -1.044813      1.705595     -2.328178
     15.07648      9.67754      6.84224         0.771272     -1.190381     -0.258543
     14.97503     12.29728      9.60529         0.655604      0.306251      0.670038
     15.06190     15.04470     12.23115        -0.168350     -1.092719      0.481106
     15.02724     17.70525     14.96513        -0.600104      0.423622      1.164655
     17.78289      9.61704      9.51858        -1.980582     -1.163173      1.124901
     17.78628     12.22688     12.30282        -0.481847      1.489024     -0.285614
     17.68718     15.00965     15.10259         0.838491     -0.699735     -0.072417
     17.77712     17.86790     17.79559         0.523540     -1.909293     -0.403291
 -----------------------------------------------------------------------------------
    total drift:                               -0.000017     -0.000000     -0.000005


--------------------------------------------------------------------------------------------------------



  FREE ENERGIE OF THE ION-ELECTRON SYSTEM (eV)
  ---------------------------------------------------
  free  energy   TOTEN  =      -677.85674041 eV

  energy  without entropy=     -677.85674041  energy(sigma->0) =     -677.85674041
 


--------------------------------------------------------------------------------------------------------


    POTLOK:  cpu time    0.9892: real time    0.9901


--------------------------------------------------------------------------------------------------------


     LOOP+:  cpu time 1631.8733: real time 1632.5559
    4ORBIT:  cpu time    0.0000: real time    0.0000

 total amount of memory used by VASP MPI-rank0   221701. kBytes
=======================================================================

   base      :      30000. kBytes
   nonl-proj :      10690. kBytes
   fftplans  :      66746. kBytes
   grid      :      26864. kBytes
   one-center:         24. kBytes
   wavefun   :      87377. kBytes
 
  
  
 General timing and accounting informations for this job:
 ========================================================
  
                  Total CPU time used (sec):     1655.921
                            User time (sec):     1654.918
                          System time (sec):        1.004
                         Elapsed time (sec):     1657.575
  
                   Maximum memory used (kb):      337972.
                   Average memory used (kb):           0.
  
                          Minor page faults:       147412
                          Major page faults:            0
                 Voluntary context switches:         1350
