<?xml version="1.0" encoding="ISO-8859-1"?>
<modeling>
 <generator>
  <i name="program" type="string">vasp </i>
  <i name="version" type="string">5.4.4.18Apr17-6-g9f103f2a35  </i>
  <i name="subversion" type="string">(build Nov 08 2017 09:05:29) complex            parallel </i>
  <i name="platform" type="string">Intel_17.33 </i>
  <i name="date" type="string">2020 07 18 </i>
  <i name="time" type="string">18:39:22 </i>
 </generator>
 <incar>
  <i type="string" name="SYSTEM">potpaw_PBE@./ARUN.APL1ZEROSTATE</i>
  <i type="string" name="PREC">accurate</i>
  <i type="string" name="ALGO">Normal</i>
  <i type="int" name="NSIM">     4</i>
  <i type="logical" name="ADDGRID"> T  </i>
  <i type="int" name="NELM">   120</i>
  <i type="int" name="NELMIN">     4</i>
  <i name="EDIFF">      0.00000001</i>
  <i type="int" name="NSW">     0</i>
  <i type="int" name="ISYM">     2</i>
  <i name="ENMAX">    500.00000000</i>
  <i type="logical" name="LREAL"> F  </i>
  <i type="logical" name="LPLANE"> T  </i>
  <i type="int" name="ISMEAR">     0</i>
  <i name="SIGMA">      0.01000000</i>
  <i type="logical" name="LWAVE"> F  </i>
  <i type="logical" name="LCHARG"> F  </i>
  <i type="logical" name="LELF"> F  </i>
  <i type="logical" name="LAECHG"> F  </i>
  <v type="int" name="KPOINT_BSE">    -1     0     0     0</v>
  <i type="int" name="NELM">   120</i>
 </incar>
 <structure name="primitive_cell" >
  <crystal>
   <varray name="basis" >
    <v>       0.00000000      10.93733369      10.93733369 </v>
    <v>      10.93733369       0.00000000      10.93733369 </v>
    <v>      10.93733369      10.93733369       0.00000000 </v>
   </varray>
   <i name="volume">   2616.76295363 </i>
   <varray name="rec_basis" >
    <v>      -0.04571498       0.04571498       0.04571498 </v>
    <v>       0.04571498      -0.04571498       0.04571498 </v>
    <v>       0.04571498       0.04571498      -0.04571498 </v>
   </varray>
  </crystal>
  <varray name="positions" >
   <v>      -0.00517826      -0.00366617      -0.00771269 </v>
   <v>      -0.17566780       0.04962731       0.06078968 </v>
   <v>       0.07058919       0.05734724      -0.19009756 </v>
   <v>       0.05409142      -0.18619010       0.07006443 </v>
   <v>       0.06813983       0.06776169       0.05813394 </v>
   <v>      -0.23762639       0.00278539      -0.00833035 </v>
   <v>       0.00323015      -0.00715330      -0.24406345 </v>
   <v>      -0.00845672       0.24767381      -0.23424390 </v>
   <v>       0.24090380      -0.00785913      -0.24094196 </v>
   <v>       0.24413895      -0.23907680      -0.00499095 </v>
   <v>       0.00574162      -0.25340303      -0.00856480 </v>
   <v>      -0.24983525       0.24704541       0.00259343 </v>
   <v>      -0.00425775      -0.24364019       0.24910476 </v>
   <v>      -0.25820609       0.00994527       0.25047640 </v>
   <v>       0.00713600       0.24930992      -0.01141156 </v>
   <v>       0.25423932      -0.00261822      -0.00361046 </v>
   <v>       0.00902079      -0.01240177       0.25337655 </v>
   <v>       0.06183994      -0.19155677      -0.18255472 </v>
   <v>      -0.19913510       0.06599974      -0.18278620 </v>
   <v>      -0.19950949      -0.17807255       0.06041014 </v>
   <v>       0.30827521      -0.18342844      -0.19037239 </v>
   <v>      -0.18915475       0.32286149      -0.19336557 </v>
   <v>      -0.18732956       0.05670059       0.31290275 </v>
   <v>       0.05299295      -0.18417091       0.31438266 </v>
   <v>       0.31600405       0.05731265      -0.18887977 </v>
   <v>      -0.20134329      -0.18990051       0.31720453 </v>
   <v>       0.05262211       0.32401549      -0.18216383 </v>
   <v>      -0.19116044       0.31983732       0.06515456 </v>
   <v>       0.31775180      -0.19055535       0.07198197 </v>
   <v>      -0.23755414       0.24585963      -0.25599059 </v>
   <v>       0.25628178      -0.24744335      -0.25344971 </v>
   <v>      -0.24901399       0.23162632       0.26139150 </v>
   <v>      -0.24751585      -0.26646397       0.25619772 </v>
   <v>       0.25389695       0.24332900      -0.24946998 </v>
   <v>       0.25691507      -0.25796523       0.25164283 </v>
   <v>       0.05925245       0.07039288      -0.43493584 </v>
   <v>      -0.43712896       0.06232780       0.06459143 </v>
   <v>       0.06604514       0.30099167      -0.43612307 </v>
   <v>       0.31451802       0.06238612      -0.43202773 </v>
   <v>       0.05843987      -0.43630319       0.05320782 </v>
   <v>       0.05552619      -0.43869685       0.30921664 </v>
   <v>      -0.43644428       0.06248546       0.32375008 </v>
   <v>      -0.44153918       0.32094041       0.04836350 </v>
   <v>       0.32459944      -0.44477126       0.06733016 </v>
   <v>       0.06860066       0.06073156       0.30518761 </v>
   <v>       0.32195954       0.06899465       0.04875174 </v>
   <v>       0.06141295       0.31850971       0.06732194 </v>
   <v>      -0.25048083      -0.24620396       0.00099023 </v>
   <v>       0.24243532      -0.00339802      -0.49170629 </v>
   <v>      -0.24762194       0.01213790      -0.25951935 </v>
   <v>       0.25284991      -0.49240238      -0.00628452 </v>
   <v>      -0.49599236      -0.00584408       0.24217516 </v>
   <v>      -0.49594217       0.24621856       0.24252004 </v>
   <v>      -0.00592110      -0.24763620      -0.25815862 </v>
   <v>      -0.25814100       0.49480147      -0.24331560 </v>
   <v>      -0.00184518       0.49946083       0.24318043 </v>
   <v>      -0.00025282       0.24892530       0.49385480 </v>
   <v>       0.24032891       0.25572881       0.49830552 </v>
   <v>       0.49753774      -0.25157869      -0.24824021 </v>
   <v>       0.49537092       0.25719689      -0.00371705 </v>
   <v>       0.24932776       0.49724110       0.23618917 </v>
   <v>       0.49683343      -0.25516515      -0.00733002 </v>
   <v>       0.00150057       0.24445299       0.24331144 </v>
   <v>       0.00377109       0.49685800      -0.24115141 </v>
   <v>      -0.25352906      -0.25236324      -0.49717507 </v>
   <v>       0.00521458      -0.25587877       0.49777744 </v>
   <v>      -0.18232525      -0.19062470      -0.18401359 </v>
   <v>      -0.24015581      -0.49370049      -0.00828330 </v>
   <v>       0.24297880       0.25769621      -0.00663253 </v>
   <v>      -0.49765675       0.01001878      -0.25019918 </v>
   <v>       0.24647971      -0.00172266       0.25464357 </v>
   <v>      -0.26358307       0.01385253      -0.49792490 </v>
   <v>      -0.18906478       0.30528572      -0.43498644 </v>
   <v>      -0.43810467       0.32001537      -0.18312730 </v>
   <v>       0.31074858      -0.43676277       0.28894405 </v>
   <v>       0.31669216      -0.43848113      -0.19235224 </v>
   <v>      -0.44381406      -0.18737316       0.31832389 </v>
   <v>      -0.43347037       0.30973121       0.30808421 </v>
   <v>       0.31554900      -0.19728501      -0.44139586 </v>
   <v>      -0.19344430      -0.43829428      -0.18776557 </v>
   <v>       0.31339750       0.31329770      -0.43362546 </v>
   <v>      -0.19469084      -0.44785969       0.32060919 </v>
   <v>      -0.43198843      -0.18718235      -0.19567974 </v>
   <v>      -0.18303236      -0.19453830      -0.43073120 </v>
   <v>       0.32122797      -0.18831136       0.30722696 </v>
   <v>       0.31191616       0.32013935      -0.18203589 </v>
   <v>      -0.19501547       0.31831111       0.32107929 </v>
   <v>      -0.49937259       0.00443794      -0.00216793 </v>
   <v>      -0.01308879       0.00658302      -0.49725635 </v>
   <v>      -0.00593176       0.49769441       0.00725561 </v>
   <v>       0.49584413      -0.00091071      -0.49224000 </v>
   <v>       0.00319075       0.49627122      -0.49844798 </v>
   <v>      -0.49971673      -0.49881847      -0.00330061 </v>
   <v>      -0.17677230      -0.45334807      -0.42644976 </v>
   <v>      -0.43255690       0.04789091      -0.17969442 </v>
   <v>       0.06598062      -0.44039455      -0.18116386 </v>
   <v>       0.05764626      -0.18312120      -0.43731060 </v>
   <v>      -0.18766463       0.05866932      -0.43840245 </v>
   <v>      -0.44772115      -0.17672304       0.06241657 </v>
   <v>      -0.44443113      -0.19720246      -0.43300632 </v>
   <v>      -0.18600215      -0.44738691       0.06512252 </v>
   <v>      -0.44163950      -0.44006721      -0.18282407 </v>
   <v>      -0.44133938       0.06266804      -0.43683206 </v>
   <v>       0.06539120      -0.43915396      -0.43599177 </v>
   <v>      -0.43204481      -0.42844628       0.05605225 </v>
   <v>       0.24532839      -0.49301483      -0.24920123 </v>
   <v>      -0.24966094       0.49635423      -0.49733234 </v>
   <v>      -0.49766064       0.25027638      -0.25530663 </v>
   <v>      -0.49901483      -0.25329651       0.25831566 </v>
   <v>       0.24197492      -0.24989959       0.49932403 </v>
   <v>      -0.49280629      -0.49970094      -0.25745462 </v>
   <v>      -0.25307393       0.26436739       0.49346640 </v>
   <v>       0.49828540      -0.24774741       0.49350086 </v>
   <v>      -0.24606581       0.49266788       0.24417334 </v>
   <v>       0.25179074       0.49724316      -0.49322640 </v>
   <v>       0.49523510       0.49897041       0.24883765 </v>
   <v>       0.07517380       0.32320588       0.29802352 </v>
   <v>       0.49481020       0.25971823       0.49340402 </v>
   <v>       0.32423068       0.05364297       0.30233522 </v>
   <v>       0.31344549       0.29492481       0.32170233 </v>
   <v>       0.30778495       0.31520656       0.06074878 </v>
   <v>       0.24842818       0.23860493       0.26141353 </v>
   <v>      -0.24866775      -0.25051173      -0.25581872 </v>
   <v>       0.32002870      -0.43046320      -0.44319721 </v>
   <v>      -0.41764952      -0.45843887       0.31177068 </v>
   <v>      -0.43630333       0.30521092      -0.44199743 </v>
   <v>      -0.43957906      -0.43429220      -0.44606754 </v>
   <v>      -0.49996985      -0.49464008       0.48716175 </v>
  </varray>
 </structure>
 <varray name="primitive_index" >
  <v type="int" >        1 </v>
  <v type="int" >       68 </v>
  <v type="int" >      113 </v>
  <v type="int" >       77 </v>
  <v type="int" >       65 </v>
  <v type="int" >        4 </v>
  <v type="int" >       49 </v>
  <v type="int" >       53 </v>
  <v type="int" >       50 </v>
  <v type="int" >       14 </v>
  <v type="int" >       13 </v>
  <v type="int" >        8 </v>
  <v type="int" >       29 </v>
  <v type="int" >       20 </v>
  <v type="int" >        5 </v>
  <v type="int" >        2 </v>
  <v type="int" >       17 </v>
  <v type="int" >      125 </v>
  <v type="int" >      116 </v>
  <v type="int" >       80 </v>
  <v type="int" >      126 </v>
  <v type="int" >      120 </v>
  <v type="int" >       84 </v>
  <v type="int" >       93 </v>
  <v type="int" >      114 </v>
  <v type="int" >       96 </v>
  <v type="int" >      117 </v>
  <v type="int" >       72 </v>
  <v type="int" >       78 </v>
  <v type="int" >       56 </v>
  <v type="int" >       62 </v>
  <v type="int" >       24 </v>
  <v type="int" >       32 </v>
  <v type="int" >       54 </v>
  <v type="int" >       30 </v>
  <v type="int" >       97 </v>
  <v type="int" >       67 </v>
  <v type="int" >      101 </v>
  <v type="int" >       98 </v>
  <v type="int" >       73 </v>
  <v type="int" >       89 </v>
  <v type="int" >       83 </v>
  <v type="int" >       71 </v>
  <v type="int" >       74 </v>
  <v type="int" >       81 </v>
  <v type="int" >       66 </v>
  <v type="int" >       69 </v>
  <v type="int" >       16 </v>
  <v type="int" >       34 </v>
  <v type="int" >       52 </v>
  <v type="int" >       10 </v>
  <v type="int" >       19 </v>
  <v type="int" >       23 </v>
  <v type="int" >       61 </v>
  <v type="int" >       60 </v>
  <v type="int" >       25 </v>
  <v type="int" >       37 </v>
  <v type="int" >       38 </v>
  <v type="int" >       63 </v>
  <v type="int" >        7 </v>
  <v type="int" >       26 </v>
  <v type="int" >       15 </v>
  <v type="int" >       21 </v>
  <v type="int" >       57 </v>
  <v type="int" >       48 </v>
  <v type="int" >       45 </v>
  <v type="int" >      128 </v>
  <v type="int" >       12 </v>
  <v type="int" >        6 </v>
  <v type="int" >       51 </v>
  <v type="int" >       18 </v>
  <v type="int" >       36 </v>
  <v type="int" >      104 </v>
  <v type="int" >      119 </v>
  <v type="int" >       90 </v>
  <v type="int" >      122 </v>
  <v type="int" >       95 </v>
  <v type="int" >       87 </v>
  <v type="int" >      110 </v>
  <v type="int" >      124 </v>
  <v type="int" >      102 </v>
  <v type="int" >       92 </v>
  <v type="int" >      127 </v>
  <v type="int" >      112 </v>
  <v type="int" >       94 </v>
  <v type="int" >      118 </v>
  <v type="int" >       88 </v>
  <v type="int" >        3 </v>
  <v type="int" >       33 </v>
  <v type="int" >        9 </v>
  <v type="int" >       35 </v>
  <v type="int" >       41 </v>
  <v type="int" >       11 </v>
  <v type="int" >      108 </v>
  <v type="int" >      115 </v>
  <v type="int" >      121 </v>
  <v type="int" >      109 </v>
  <v type="int" >      100 </v>
  <v type="int" >       79 </v>
  <v type="int" >      111 </v>
  <v type="int" >       76 </v>
  <v type="int" >      123 </v>
  <v type="int" >       99 </v>
  <v type="int" >      105 </v>
  <v type="int" >       75 </v>
  <v type="int" >       58 </v>
  <v type="int" >       44 </v>
  <v type="int" >       55 </v>
  <v type="int" >       31 </v>
  <v type="int" >       46 </v>
  <v type="int" >       59 </v>
  <v type="int" >       40 </v>
  <v type="int" >       47 </v>
  <v type="int" >       28 </v>
  <v type="int" >       42 </v>
  <v type="int" >       27 </v>
  <v type="int" >       85 </v>
  <v type="int" >       39 </v>
  <v type="int" >       82 </v>
  <v type="int" >       86 </v>
  <v type="int" >       70 </v>
  <v type="int" >       22 </v>
  <v type="int" >       64 </v>
  <v type="int" >      106 </v>
  <v type="int" >       91 </v>
  <v type="int" >      103 </v>
  <v type="int" >      107 </v>
  <v type="int" >       43 </v>
 </varray>
 <kpoints>
  <generation param="Gamma">
   <v type="int" name="divisions">       2        2        2 </v>
   <v name="usershift">      0.00000000       0.00000000       0.00000000 </v>
   <v name="genvec1">      0.50000000       0.00000000       0.00000000 </v>
   <v name="genvec2">      0.00000000       0.50000000       0.00000000 </v>
   <v name="genvec3">      0.00000000       0.00000000       0.50000000 </v>
   <v name="shift">      0.00000000       0.00000000       0.00000000 </v>
  </generation>
  <varray name="kpointlist" >
   <v>       0.00000000       0.00000000       0.00000000 </v>
   <v>       0.50000000       0.00000000       0.00000000 </v>
   <v>       0.00000000       0.50000000       0.00000000 </v>
   <v>       0.50000000       0.50000000       0.00000000 </v>
   <v>       0.00000000       0.00000000       0.50000000 </v>
   <v>       0.50000000       0.00000000       0.50000000 </v>
   <v>       0.00000000       0.50000000       0.50000000 </v>
   <v>       0.50000000       0.50000000       0.50000000 </v>
  </varray>
  <varray name="weights" >
   <v>       0.12500000 </v>
   <v>       0.12500000 </v>
   <v>       0.12500000 </v>
   <v>       0.12500000 </v>
   <v>       0.12500000 </v>
   <v>       0.12500000 </v>
   <v>       0.12500000 </v>
   <v>       0.12500000 </v>
  </varray>
 </kpoints>
 <parameters>
  <separator name="general" >
   <i type="string" name="SYSTEM">potpaw_PBE@./ARUN.APL1ZEROSTATE</i>
   <i type="logical" name="LCOMPAT"> F  </i>
  </separator>
  <separator name="electronic" >
   <i type="string" name="PREC">accura</i>
   <i name="ENMAX">    500.00000000</i>
   <i name="ENAUG">    322.06900000</i>
   <i name="EDIFF">      0.00000001</i>
   <i type="int" name="IALGO">    38</i>
   <i type="int" name="IWAVPR">    10</i>
   <i type="int" name="NBANDS">   322</i>
   <i name="NELECT">    512.00000000</i>
   <i type="int" name="TURBO">     0</i>
   <i type="int" name="IRESTART">     0</i>
   <i type="int" name="NREBOOT">     0</i>
   <i type="int" name="NMIN">     0</i>
   <i name="EREF">      0.00000000</i>
   <separator name="electronic smearing" >
    <i type="int" name="ISMEAR">     0</i>
    <i name="SIGMA">      0.01000000</i>
    <i name="KSPACING">      0.50000000</i>
    <i type="logical" name="KGAMMA"> T  </i>
   </separator>
   <separator name="electronic projectors" >
    <i type="logical" name="LREAL"> F  </i>
    <v name="ROPT">      0.00000000</v>
    <i type="int" name="LMAXPAW">  -100</i>
    <i type="int" name="LMAXMIX">     2</i>
    <i type="logical" name="NLSPLINE"> F  </i>
   </separator>
   <separator name="electronic startup" >
    <i type="int" name="ISTART">     0</i>
    <i type="int" name="ICHARG">     2</i>
    <i type="int" name="INIWAV">     1</i>
   </separator>
   <separator name="electronic spin" >
    <i type="int" name="ISPIN">     1</i>
    <i type="logical" name="LNONCOLLINEAR"> F  </i>
    <v name="MAGMOM">      1.00000000      1.00000000      1.00000000      1.00000000      1.00000000      1.00000000      1.00000000      1.00000000      1.00000000      1.00000000      1.00000000      1.00000000      1.00000000      1.00000000      1.00000000      1.00000000      1.00000000      1.00000000      1.00000000      1.00000000
      1.00000000      1.00000000      1.00000000      1.00000000      1.00000000      1.00000000      1.00000000      1.00000000      1.00000000      1.00000000      1.00000000      1.00000000      1.00000000      1.00000000      1.00000000      1.00000000      1.00000000      1.00000000      1.00000000      1.00000000
      1.00000000      1.00000000      1.00000000      1.00000000      1.00000000      1.00000000      1.00000000      1.00000000      1.00000000      1.00000000      1.00000000      1.00000000      1.00000000      1.00000000      1.00000000      1.00000000      1.00000000      1.00000000      1.00000000      1.00000000
      1.00000000      1.00000000      1.00000000      1.00000000      1.00000000      1.00000000      1.00000000      1.00000000      1.00000000      1.00000000      1.00000000      1.00000000      1.00000000      1.00000000      1.00000000      1.00000000      1.00000000      1.00000000      1.00000000      1.00000000
      1.00000000      1.00000000      1.00000000      1.00000000      1.00000000      1.00000000      1.00000000      1.00000000      1.00000000      1.00000000      1.00000000      1.00000000      1.00000000      1.00000000      1.00000000      1.00000000      1.00000000      1.00000000      1.00000000      1.00000000
      1.00000000      1.00000000      1.00000000      1.00000000      1.00000000      1.00000000      1.00000000      1.00000000      1.00000000      1.00000000      1.00000000      1.00000000      1.00000000      1.00000000      1.00000000      1.00000000      1.00000000      1.00000000      1.00000000      1.00000000
      1.00000000      1.00000000      1.00000000      1.00000000      1.00000000      1.00000000      1.00000000      1.00000000</v>
    <i name="NUPDOWN">     -1.00000000</i>
    <i type="logical" name="LSORBIT"> F  </i>
    <v name="SAXIS">      0.00000000      0.00000000      1.00000000</v>
    <i type="logical" name="LSPIRAL"> F  </i>
    <v name="QSPIRAL">      0.00000000      0.00000000      0.00000000</v>
    <i type="logical" name="LZEROZ"> F  </i>
   </separator>
   <separator name="electronic exchange-correlation" >
    <i type="logical" name="LASPH"> F  </i>
    <i type="logical" name="LMETAGGA"> F  </i>
   </separator>
   <separator name="electronic convergence" >
    <i type="int" name="NELM">   120</i>
    <i type="int" name="NELMDL">    -5</i>
    <i type="int" name="NELMIN">     4</i>
    <i name="ENINI">    500.00000000</i>
    <separator name="electronic convergence detail" >
     <i type="logical" name="LDIAG"> T  </i>
     <i type="logical" name="LSUBROT"> F  </i>
     <i name="WEIMIN">      0.00000000</i>
     <i name="EBREAK">      0.00000000</i>
     <i name="DEPER">      0.30000000</i>
     <i type="int" name="NRMM">     4</i>
     <i name="TIME">      0.40000000</i>
    </separator>
   </separator>
   <separator name="electronic mixer" >
    <i name="AMIX">      0.40000000</i>
    <i name="BMIX">      1.00000000</i>
    <i name="AMIN">      0.10000000</i>
    <i name="AMIX_MAG">      1.60000000</i>
    <i name="BMIX_MAG">      1.00000000</i>
    <separator name="electronic mixer details" >
     <i type="int" name="IMIX">     4</i>
     <i type="logical" name="MIXFIRST"> F  </i>
     <i type="int" name="MAXMIX">   -45</i>
     <i name="WC">    100.00000000</i>
     <i type="int" name="INIMIX">     1</i>
     <i type="int" name="MIXPRE">     1</i>
     <i type="int" name="MREMOVE">     5</i>
    </separator>
   </separator>
   <separator name="electronic dipolcorrection" >
    <i type="logical" name="LDIPOL"> F  </i>
    <i type="logical" name="LMONO"> F  </i>
    <i type="int" name="IDIPOL">     0</i>
    <i name="EPSILON">      1.00000000</i>
    <v name="DIPOL">   -100.00000000   -100.00000000   -100.00000000</v>
    <i name="EFIELD">      0.00000000</i>
   </separator>
  </separator>
  <separator name="grids" >
   <i type="int" name="NGX">   120</i>
   <i type="int" name="NGY">   120</i>
   <i type="int" name="NGZ">   120</i>
   <i type="int" name="NGXF">   240</i>
   <i type="int" name="NGYF">   240</i>
   <i type="int" name="NGZF">   240</i>
   <i type="logical" name="ADDGRID"> T  </i>
  </separator>
  <separator name="ionic" >
   <i type="int" name="NSW">     0</i>
   <i type="int" name="IBRION">    -1</i>
   <i type="int" name="MDALGO">     0</i>
   <i type="int" name="ISIF">     2</i>
   <i name="PSTRESS">      0.00000000</i>
   <i name="EDIFFG">      0.00000010</i>
   <i type="int" name="NFREE">     0</i>
   <i name="POTIM">      0.50000000</i>
   <i name="SMASS">     -3.00000000</i>
   <i name="SCALEE">      1.00000000</i>
  </separator>
  <separator name="ionic md" >
   <i name="TEBEG">      0.00010000</i>
   <i name="TEEND">      0.00010000</i>
   <i type="int" name="NBLOCK">     1</i>
   <i type="int" name="KBLOCK">     1</i>
   <i type="int" name="NPACO">   256</i>
   <i name="APACO">     16.00000000</i>
  </separator>
  <separator name="symmetry" >
   <i type="int" name="ISYM">     2</i>
   <i name="SYMPREC">      0.00001000</i>
  </separator>
  <separator name="dos" >
   <i type="int" name="LORBIT">     0</i>
   <v name="RWIGS">     -1.00000000</v>
   <i type="int" name="NEDOS">   301</i>
   <i name="EMIN">     10.00000000</i>
   <i name="EMAX">    -10.00000000</i>
   <i name="EFERMI">      0.00000000</i>
  </separator>
  <separator name="writing" >
   <i type="int" name="NWRITE">     2</i>
   <i type="logical" name="LWAVE"> F  </i>
   <i type="logical" name="LDOWNSAMPLE"> F  </i>
   <i type="logical" name="LCHARG"> F  </i>
   <i type="logical" name="LPARD"> F  </i>
   <i type="logical" name="LVTOT"> F  </i>
   <i type="logical" name="LVHAR"> F  </i>
   <i type="logical" name="LELF"> F  </i>
   <i type="logical" name="LOPTICS"> F  </i>
   <v name="STM">      0.00000000      0.00000000      0.00000000      0.00000000      0.00000000      0.00000000      0.00000000</v>
  </separator>
  <separator name="performance" >
   <i type="int" name="NPAR">     2</i>
   <i type="int" name="NSIM">     4</i>
   <i type="int" name="NBLK">    -1</i>
   <i type="logical" name="LPLANE"> T  </i>
   <i type="logical" name="LSCALAPACK"> T  </i>
   <i type="logical" name="LSCAAWARE"> F  </i>
   <i type="logical" name="LSCALU"> F  </i>
   <i type="logical" name="LASYNC"> F  </i>
   <i type="logical" name="LORBITALREAL"> F  </i>
  </separator>
  <separator name="miscellaneous" >
   <i type="int" name="IDIOT">     3</i>
   <i type="int" name="ISPECIAL">     0</i>
   <i type="logical" name="LMUSIC"> F  </i>
   <v name="POMASS">     28.08500000</v>
   <v name="DARWINR">      0.00000000</v>
   <v name="DARWINV">      1.00000000</v>
   <i type="logical" name="LCORR"> T  </i>
  </separator>
  <i type="logical" name="GGA_COMPAT"> T  </i>
  <i type="logical" name="LBERRY"> F  </i>
  <i type="int" name="ICORELEVEL">     0</i>
  <i type="logical" name="LDAU"> F  </i>
  <i type="int" name="I_CONSTRAINED_M">     0</i>
  <separator name="electronic exchange-correlation" >
   <i type="string" name="GGA">--</i>
   <i type="int" name="VOSKOWN">     0</i>
   <i type="logical" name="LHFCALC"> F  </i>
   <i type="string" name="PRECFOCK"></i>
   <i type="logical" name="LSYMGRAD"> F  </i>
   <i type="logical" name="LHFONE"> F  </i>
   <i type="logical" name="LRHFCALC"> F  </i>
   <i type="logical" name="LTHOMAS"> F  </i>
   <i type="logical" name="LMODELHF"> F  </i>
   <i name="ENCUT4O">     -1.00000000</i>
   <i type="int" name="EXXOEP">     0</i>
   <i type="int" name="FOURORBIT">     0</i>
   <i name="AEXX">      0.00000000</i>
   <i name="HFALPHA">      0.00000000</i>
   <i name="MCALPHA">      0.00000000</i>
   <i name="ALDAX">      1.00000000</i>
   <i name="AGGAX">      1.00000000</i>
   <i name="ALDAC">      1.00000000</i>
   <i name="AGGAC">      1.00000000</i>
   <i type="int" name="NKREDX">     1</i>
   <i type="int" name="NKREDY">     1</i>
   <i type="int" name="NKREDZ">     1</i>
   <i type="logical" name="SHIFTRED"> F  </i>
   <i type="logical" name="ODDONLY"> F  </i>
   <i type="logical" name="EVENONLY"> F  </i>
   <i type="int" name="LMAXFOCK">     0</i>
   <i type="int" name="NMAXFOCKAE">     0</i>
   <i type="logical" name="LFOCKAEDFT"> F  </i>
   <i name="HFSCREEN">      0.00000000</i>
   <i name="HFSCREENC">      0.00000000</i>
   <i type="int" name="NBANDSGWLOW">     0</i>
  </separator>
  <separator name="vdW DFT" >
   <i type="logical" name="LUSE_VDW"> F  </i>
   <i name="Zab_VDW">     -0.84910000</i>
   <i name="PARAM1">      0.12340000</i>
   <i name="PARAM2">      1.00000000</i>
   <i name="PARAM3">      0.00000000</i>
  </separator>
  <separator name="model GW" >
   <i type="int" name="MODEL_GW">     0</i>
   <i name="MODEL_EPS0">     12.26607635</i>
   <i name="MODEL_ALPHA">      1.00000000</i>
  </separator>
  <separator name="linear response parameters" >
   <i type="logical" name="LEPSILON"> F  </i>
   <i type="logical" name="LRPA"> F  </i>
   <i type="logical" name="LNABLA"> F  </i>
   <i type="logical" name="LVEL"> F  </i>
   <i type="int" name="KINTER">     0</i>
   <i name="CSHIFT">      0.10000000</i>
   <i name="OMEGAMAX">     -1.00000000</i>
   <i name="DEG_THRESHOLD">      0.00200000</i>
   <i name="RTIME">     -0.10000000</i>
   <i name="WPLASMAI">      0.00000000</i>
   <v name="DFIELD">      0.00000000      0.00000000      0.00000000</v>
   <v name="WPLASMA">      0.00000000      0.00000000      0.00000000      0.00000000      0.00000000      0.00000000      0.00000000      0.00000000      0.00000000</v>
  </separator>
  <separator name="orbital magnetization" >
   <i type="logical" name="NUCIND"> F  </i>
   <v name="MAGPOS">      0.00000000      0.00000000      0.00000000</v>
   <i type="logical" name="LNICSALL"> T  </i>
   <i type="logical" name="ORBITALMAG"> F  </i>
   <i type="logical" name="LMAGBLOCH"> F  </i>
   <i type="logical" name="LCHIMAG"> F  </i>
   <i type="logical" name="LGAUGE"> T  </i>
   <i type="int" name="MAGATOM">     0</i>
   <v name="MAGDIPOL">      0.00000000      0.00000000      0.00000000</v>
   <v name="AVECCONST">      0.00000000      0.00000000      0.00000000</v>
  </separator>
  <separator name="response functions" >
   <i type="logical" name="LADDER"> F  </i>
   <i type="logical" name="LRPAFORCE"> F  </i>
   <i type="logical" name="LFXC"> F  </i>
   <i type="logical" name="LHARTREE"> T  </i>
   <i type="int" name="IBSE">     0</i>
   <v type="int" name="KPOINT">    -1     0     0     0</v>
   <i type="logical" name="LTCTE"> F  </i>
   <i type="logical" name="LTETE"> F  </i>
   <i type="logical" name="LTRIPLET"> F  </i>
   <i type="logical" name="LFXCEPS"> F  </i>
   <i type="logical" name="LFXHEG"> F  </i>
   <i type="int" name="NATURALO">     2</i>
   <i type="logical" name="L2ORDER"> F  </i>
   <i type="logical" name="LMP2LT"> F  </i>
   <i type="logical" name="LUSEW"> F  </i>
   <i name="ENCUTGW">     -2.00000000</i>
   <i name="ENCUTGWSOFT">     -2.00000000</i>
   <i name="ENCUTLF">     -1.00000000</i>
   <i type="int" name="LMAXMP2">    -1</i>
   <i name="SCISSOR">      0.00000000</i>
   <i type="int" name="NOMEGA">     0</i>
   <i type="int" name="NOMEGAR">     0</i>
   <i type="int" name="NBANDSGW">    -1</i>
   <i type="int" name="NBANDSO">    -1</i>
   <i type="int" name="NBANDSV">    -1</i>
   <i type="int" name="NELM">   120</i>
   <i type="int" name="NELMHF">     1</i>
   <i type="int" name="DIM">     3</i>
   <i type="int" name="ANTIRES">     0</i>
   <i name="OMEGAMAX">    -30.00000000</i>
   <i name="OMEGAMIN">    -30.00000000</i>
   <i name="OMEGATL">   -200.00000000</i>
   <i type="int" name="OMEGAGRID">   140</i>
   <i name="CSHIFT">     -0.10000000</i>
   <i type="logical" name="SELFENERGY"> F  </i>
   <i type="logical" name="LSPECTRAL"> F  </i>
   <i type="logical" name="LSPECTRALGW"> F  </i>
   <i type="logical" name="LSINGLES"> F  </i>
   <i type="logical" name="LFERMIGW"> F  </i>
   <i type="logical" name="ODDONLYGW"> F  </i>
   <i type="logical" name="EVENONLYGW"> F  </i>
   <i type="int" name="NKREDLFX">     1</i>
   <i type="int" name="NKREDLFY">     1</i>
   <i type="int" name="NKREDLFZ">     1</i>
   <i type="int" name="MAXMEM">  2800</i>
   <i type="int" name="TELESCOPE">     0</i>
   <i type="int" name="TAUPAR">     1</i>
   <i type="int" name="OMEGAPAR">    -1</i>
   <i name="LAMBDA">      1.00000000</i>
  </separator>
  <separator name="External order field" >
   <i name="OFIELD_KAPPA">      0.00000000</i>
   <v name="OFIELD_K">      0.00000000      0.00000000      0.00000000</v>
   <i name="OFIELD_Q6_NEAR">      0.00000000</i>
   <i name="OFIELD_Q6_FAR">      0.00000000</i>
   <i name="OFIELD_A">      0.00000000</i>
  </separator>
 </parameters>
 <atominfo>
  <atoms>     128 </atoms>
  <types>       1 </types>
  <array name="atoms" >
   <dimension dim="1">ion</dimension>
   <field type="string">element</field>
   <field type="int">atomtype</field>
   <set>
    <rc><c>Si</c><c>   1</c></rc>
    <rc><c>Si</c><c>   1</c></rc>
    <rc><c>Si</c><c>   1</c></rc>
    <rc><c>Si</c><c>   1</c></rc>
    <rc><c>Si</c><c>   1</c></rc>
    <rc><c>Si</c><c>   1</c></rc>
    <rc><c>Si</c><c>   1</c></rc>
    <rc><c>Si</c><c>   1</c></rc>
    <rc><c>Si</c><c>   1</c></rc>
    <rc><c>Si</c><c>   1</c></rc>
    <rc><c>Si</c><c>   1</c></rc>
    <rc><c>Si</c><c>   1</c></rc>
    <rc><c>Si</c><c>   1</c></rc>
    <rc><c>Si</c><c>   1</c></rc>
    <rc><c>Si</c><c>   1</c></rc>
    <rc><c>Si</c><c>   1</c></rc>
    <rc><c>Si</c><c>   1</c></rc>
    <rc><c>Si</c><c>   1</c></rc>
    <rc><c>Si</c><c>   1</c></rc>
    <rc><c>Si</c><c>   1</c></rc>
    <rc><c>Si</c><c>   1</c></rc>
    <rc><c>Si</c><c>   1</c></rc>
    <rc><c>Si</c><c>   1</c></rc>
    <rc><c>Si</c><c>   1</c></rc>
    <rc><c>Si</c><c>   1</c></rc>
    <rc><c>Si</c><c>   1</c></rc>
    <rc><c>Si</c><c>   1</c></rc>
    <rc><c>Si</c><c>   1</c></rc>
    <rc><c>Si</c><c>   1</c></rc>
    <rc><c>Si</c><c>   1</c></rc>
    <rc><c>Si</c><c>   1</c></rc>
    <rc><c>Si</c><c>   1</c></rc>
    <rc><c>Si</c><c>   1</c></rc>
    <rc><c>Si</c><c>   1</c></rc>
    <rc><c>Si</c><c>   1</c></rc>
    <rc><c>Si</c><c>   1</c></rc>
    <rc><c>Si</c><c>   1</c></rc>
    <rc><c>Si</c><c>   1</c></rc>
    <rc><c>Si</c><c>   1</c></rc>
    <rc><c>Si</c><c>   1</c></rc>
    <rc><c>Si</c><c>   1</c></rc>
    <rc><c>Si</c><c>   1</c></rc>
    <rc><c>Si</c><c>   1</c></rc>
    <rc><c>Si</c><c>   1</c></rc>
    <rc><c>Si</c><c>   1</c></rc>
    <rc><c>Si</c><c>   1</c></rc>
    <rc><c>Si</c><c>   1</c></rc>
    <rc><c>Si</c><c>   1</c></rc>
    <rc><c>Si</c><c>   1</c></rc>
    <rc><c>Si</c><c>   1</c></rc>
    <rc><c>Si</c><c>   1</c></rc>
    <rc><c>Si</c><c>   1</c></rc>
    <rc><c>Si</c><c>   1</c></rc>
    <rc><c>Si</c><c>   1</c></rc>
    <rc><c>Si</c><c>   1</c></rc>
    <rc><c>Si</c><c>   1</c></rc>
    <rc><c>Si</c><c>   1</c></rc>
    <rc><c>Si</c><c>   1</c></rc>
    <rc><c>Si</c><c>   1</c></rc>
    <rc><c>Si</c><c>   1</c></rc>
    <rc><c>Si</c><c>   1</c></rc>
    <rc><c>Si</c><c>   1</c></rc>
    <rc><c>Si</c><c>   1</c></rc>
    <rc><c>Si</c><c>   1</c></rc>
    <rc><c>Si</c><c>   1</c></rc>
    <rc><c>Si</c><c>   1</c></rc>
    <rc><c>Si</c><c>   1</c></rc>
    <rc><c>Si</c><c>   1</c></rc>
    <rc><c>Si</c><c>   1</c></rc>
    <rc><c>Si</c><c>   1</c></rc>
    <rc><c>Si</c><c>   1</c></rc>
    <rc><c>Si</c><c>   1</c></rc>
    <rc><c>Si</c><c>   1</c></rc>
    <rc><c>Si</c><c>   1</c></rc>
    <rc><c>Si</c><c>   1</c></rc>
    <rc><c>Si</c><c>   1</c></rc>
    <rc><c>Si</c><c>   1</c></rc>
    <rc><c>Si</c><c>   1</c></rc>
    <rc><c>Si</c><c>   1</c></rc>
    <rc><c>Si</c><c>   1</c></rc>
    <rc><c>Si</c><c>   1</c></rc>
    <rc><c>Si</c><c>   1</c></rc>
    <rc><c>Si</c><c>   1</c></rc>
    <rc><c>Si</c><c>   1</c></rc>
    <rc><c>Si</c><c>   1</c></rc>
    <rc><c>Si</c><c>   1</c></rc>
    <rc><c>Si</c><c>   1</c></rc>
    <rc><c>Si</c><c>   1</c></rc>
    <rc><c>Si</c><c>   1</c></rc>
    <rc><c>Si</c><c>   1</c></rc>
    <rc><c>Si</c><c>   1</c></rc>
    <rc><c>Si</c><c>   1</c></rc>
    <rc><c>Si</c><c>   1</c></rc>
    <rc><c>Si</c><c>   1</c></rc>
    <rc><c>Si</c><c>   1</c></rc>
    <rc><c>Si</c><c>   1</c></rc>
    <rc><c>Si</c><c>   1</c></rc>
    <rc><c>Si</c><c>   1</c></rc>
    <rc><c>Si</c><c>   1</c></rc>
    <rc><c>Si</c><c>   1</c></rc>
    <rc><c>Si</c><c>   1</c></rc>
    <rc><c>Si</c><c>   1</c></rc>
    <rc><c>Si</c><c>   1</c></rc>
    <rc><c>Si</c><c>   1</c></rc>
    <rc><c>Si</c><c>   1</c></rc>
    <rc><c>Si</c><c>   1</c></rc>
    <rc><c>Si</c><c>   1</c></rc>
    <rc><c>Si</c><c>   1</c></rc>
    <rc><c>Si</c><c>   1</c></rc>
    <rc><c>Si</c><c>   1</c></rc>
    <rc><c>Si</c><c>   1</c></rc>
    <rc><c>Si</c><c>   1</c></rc>
    <rc><c>Si</c><c>   1</c></rc>
    <rc><c>Si</c><c>   1</c></rc>
    <rc><c>Si</c><c>   1</c></rc>
    <rc><c>Si</c><c>   1</c></rc>
    <rc><c>Si</c><c>   1</c></rc>
    <rc><c>Si</c><c>   1</c></rc>
    <rc><c>Si</c><c>   1</c></rc>
    <rc><c>Si</c><c>   1</c></rc>
    <rc><c>Si</c><c>   1</c></rc>
    <rc><c>Si</c><c>   1</c></rc>
    <rc><c>Si</c><c>   1</c></rc>
    <rc><c>Si</c><c>   1</c></rc>
    <rc><c>Si</c><c>   1</c></rc>
    <rc><c>Si</c><c>   1</c></rc>
    <rc><c>Si</c><c>   1</c></rc>
    <rc><c>Si</c><c>   1</c></rc>
   </set>
  </array>
  <array name="atomtypes" >
   <dimension dim="1">type</dimension>
   <field type="int">atomspertype</field>
   <field type="string">element</field>
   <field>mass</field>
   <field>valence</field>
   <field type="string">pseudopotential</field>
   <set>
    <rc><c> 128</c><c>Si</c><c>     28.08500000</c><c>      4.00000000</c><c> PAW_PBE Si 05Jan2001                   </c></rc>
   </set>
  </array>
 </atominfo>
 <structure name="initialpos" >
  <crystal>
   <varray name="basis" >
    <v>       0.00000000      10.93733369      10.93733369 </v>
    <v>      10.93733369       0.00000000      10.93733369 </v>
    <v>      10.93733369      10.93733369       0.00000000 </v>
   </varray>
   <i name="volume">   2616.76295363 </i>
   <varray name="rec_basis" >
    <v>      -0.04571498       0.04571498       0.04571498 </v>
    <v>       0.04571498      -0.04571498       0.04571498 </v>
    <v>       0.04571498       0.04571498      -0.04571498 </v>
   </varray>
  </crystal>
  <varray name="positions" >
   <v>       0.99482174       0.99633383       0.99228731 </v>
   <v>       0.25423932       0.99738178       0.99638954 </v>
   <v>       0.50062741       0.00443794       0.99783207 </v>
   <v>       0.76237361       0.00278539       0.99166965 </v>
   <v>       0.00713600       0.24930992       0.98858844 </v>
   <v>       0.24297880       0.25769621       0.99336747 </v>
   <v>       0.49537092       0.25719689       0.99628295 </v>
   <v>       0.75016475       0.24704541       0.00259343 </v>
   <v>       0.99406824       0.49769441       0.00725561 </v>
   <v>       0.25284991       0.50759762       0.99371548 </v>
   <v>       0.50028327       0.50118153       0.99669939 </v>
   <v>       0.75984419       0.50629951       0.99171670 </v>
   <v>       0.00574162       0.74659697       0.99143520 </v>
   <v>       0.24413895       0.76092320       0.99500905 </v>
   <v>       0.49683343       0.74483485       0.99266998 </v>
   <v>       0.74951917       0.75379604       0.00099023 </v>
   <v>       0.00902079       0.98759823       0.25337655 </v>
   <v>       0.24647971       0.99827734       0.25464357 </v>
   <v>       0.50400764       0.99415592       0.24217516 </v>
   <v>       0.74179391       0.00994527       0.25047640 </v>
   <v>       0.00150057       0.24445299       0.24331144 </v>
   <v>       0.24842818       0.23860493       0.26141353 </v>
   <v>       0.50405783       0.24621856       0.24252004 </v>
   <v>       0.75098601       0.23162632       0.26139150 </v>
   <v>       0.99815482       0.49946083       0.24318043 </v>
   <v>       0.24932776       0.49724110       0.23618917 </v>
   <v>       0.49523510       0.49897041       0.24883765 </v>
   <v>       0.75393419       0.49266788       0.24417334 </v>
   <v>       0.99574225       0.75635981       0.24910476 </v>
   <v>       0.25691507       0.74203477       0.25164283 </v>
   <v>       0.50098517       0.74670349       0.25831566 </v>
   <v>       0.75248415       0.73353603       0.25619772 </v>
   <v>       0.98691121       0.00658302       0.50274365 </v>
   <v>       0.24243532       0.99660198       0.50829371 </v>
   <v>       0.49584413       0.99908929       0.50776000 </v>
   <v>       0.73641693       0.01385253       0.50207510 </v>
   <v>       0.99974718       0.24892530       0.49385480 </v>
   <v>       0.24032891       0.25572881       0.49830552 </v>
   <v>       0.49481020       0.25971823       0.49340402 </v>
   <v>       0.74692607       0.26436739       0.49346640 </v>
   <v>       0.00319075       0.49627122       0.50155202 </v>
   <v>       0.25179074       0.49724316       0.50677360 </v>
   <v>       0.50003015       0.50535992       0.48716175 </v>
   <v>       0.75033906       0.49635423       0.50266766 </v>
   <v>       0.00521458       0.74412123       0.49777744 </v>
   <v>       0.24197492       0.75010041       0.49932403 </v>
   <v>       0.49828540       0.75225259       0.49350086 </v>
   <v>       0.74647094       0.74763676       0.50282493 </v>
   <v>       0.00323015       0.99284670       0.75593655 </v>
   <v>       0.24090380       0.99214087       0.75905804 </v>
   <v>       0.50234325       0.01001878       0.74980082 </v>
   <v>       0.75237806       0.01213790       0.74048065 </v>
   <v>       0.99154328       0.24767381       0.76575610 </v>
   <v>       0.25389695       0.24332900       0.75053002 </v>
   <v>       0.50233936       0.25027638       0.74469337 </v>
   <v>       0.76244586       0.24585963       0.74400941 </v>
   <v>       0.00377109       0.49685800       0.75884859 </v>
   <v>       0.24532839       0.50698517       0.75079877 </v>
   <v>       0.50719371       0.50029906       0.74254538 </v>
   <v>       0.74185900       0.49480147       0.75668440 </v>
   <v>       0.99407890       0.75236380       0.74184138 </v>
   <v>       0.25628178       0.75255665       0.74655029 </v>
   <v>       0.49753774       0.74842131       0.75175979 </v>
   <v>       0.75133225       0.74948827       0.74418128 </v>
   <v>       0.06813983       0.06776169       0.05813394 </v>
   <v>       0.32195954       0.06899465       0.04875174 </v>
   <v>       0.56287104       0.06232780       0.06459143 </v>
   <v>       0.82433220       0.04962731       0.06078968 </v>
   <v>       0.06141295       0.31850971       0.06732194 </v>
   <v>       0.30778495       0.31520656       0.06074878 </v>
   <v>       0.55846082       0.32094041       0.04836350 </v>
   <v>       0.80883956       0.31983732       0.06515456 </v>
   <v>       0.05843987       0.56369681       0.05320782 </v>
   <v>       0.32459944       0.55522874       0.06733016 </v>
   <v>       0.56795519       0.57155372       0.05605225 </v>
   <v>       0.81399785       0.55261309       0.06512252 </v>
   <v>       0.05409142       0.81380990       0.07006443 </v>
   <v>       0.31775180       0.80944465       0.07198197 </v>
   <v>       0.55227885       0.82327696       0.06241657 </v>
   <v>       0.80049051       0.82192745       0.06041014 </v>
   <v>       0.06860066       0.06073156       0.30518761 </v>
   <v>       0.32423068       0.05364297       0.30233522 </v>
   <v>       0.56355572       0.06248546       0.32375008 </v>
   <v>       0.81267044       0.05670059       0.31290275 </v>
   <v>       0.07517380       0.32320588       0.29802352 </v>
   <v>       0.31344549       0.29492481       0.32170233 </v>
   <v>       0.56652963       0.30973121       0.30808421 </v>
   <v>       0.80498453       0.31831111       0.32107929 </v>
   <v>       0.05552619       0.56130315       0.30921664 </v>
   <v>       0.31074858       0.56323723       0.28894405 </v>
   <v>       0.58235048       0.54156113       0.31177068 </v>
   <v>       0.80530916       0.55214031       0.32060919 </v>
   <v>       0.05299295       0.81582909       0.31438266 </v>
   <v>       0.32122797       0.81168864       0.30722696 </v>
   <v>       0.55618594       0.81262684       0.31832389 </v>
   <v>       0.79865671       0.81009949       0.31720453 </v>
   <v>       0.05925245       0.07039288       0.56506416 </v>
   <v>       0.31451802       0.06238612       0.56797227 </v>
   <v>       0.55866062       0.06266804       0.56316794 </v>
   <v>       0.81233537       0.05866932       0.56159755 </v>
   <v>       0.06604514       0.30099167       0.56387693 </v>
   <v>       0.31339750       0.31329770       0.56637454 </v>
   <v>       0.56369667       0.30521092       0.55800257 </v>
   <v>       0.81093522       0.30528572       0.56501356 </v>
   <v>       0.06539120       0.56084604       0.56400823 </v>
   <v>       0.32002870       0.56953680       0.55680279 </v>
   <v>       0.56042094       0.56570780       0.55393246 </v>
   <v>       0.82322770       0.54665193       0.57355024 </v>
   <v>       0.05764626       0.81687880       0.56268940 </v>
   <v>       0.31554900       0.80271499       0.55860414 </v>
   <v>       0.55556887       0.80279754       0.56699368 </v>
   <v>       0.81696764       0.80546170       0.56926880 </v>
   <v>       0.07058919       0.05734724       0.80990244 </v>
   <v>       0.31600405       0.05731265       0.81112023 </v>
   <v>       0.56744310       0.04789091       0.82030558 </v>
   <v>       0.80086490       0.06599974       0.81721380 </v>
   <v>       0.05262211       0.32401549       0.81783617 </v>
   <v>       0.31191616       0.32013935       0.81796411 </v>
   <v>       0.56189533       0.32001537       0.81687270 </v>
   <v>       0.81084525       0.32286149       0.80663443 </v>
   <v>       0.06598062       0.55960545       0.81883614 </v>
   <v>       0.31669216       0.56151887       0.80764776 </v>
   <v>       0.55836050       0.55993279       0.81717593 </v>
   <v>       0.80655570       0.56170572       0.81223443 </v>
   <v>       0.06183994       0.80844323       0.81744528 </v>
   <v>       0.30827521       0.81657156       0.80962761 </v>
   <v>       0.56801157       0.81281765       0.80432026 </v>
   <v>       0.81767475       0.80937530       0.81598641 </v>
  </varray>
 </structure>
 <calculation>
  <scstep>
   <time name="dav">   69.31   69.34</time>
   <time name="total">   70.31   70.35</time>
   <energy>
    <i name="alphaZ">    210.77028614 </i>
    <i name="ewald"> -14472.30428037 </i>
    <i name="hartreedc">   -753.59189481 </i>
    <i name="XCdc">  -1195.32324482 </i>
    <i name="pawpsdc">   4221.13331941 </i>
    <i name="pawaedc">  -1969.18571412 </i>
    <i name="eentropy">     -0.00286519 </i>
    <i name="bandstr">   2150.01537689 </i>
    <i name="atom">  13192.48085998 </i>
    <i name="e_fr_energy">   1383.99184312 </i>
    <i name="e_wo_entrp">   1383.99470831 </i>
    <i name="e_0_energy">   1383.99327572 </i>
   </energy>
  </scstep>
  <scstep>
   <time name="dav">   78.75   78.79</time>
   <time name="total">   78.76   78.80</time>
   <energy>
    <i name="e_fr_energy">   -535.83540552 </i>
    <i name="e_wo_entrp">   -535.83535213 </i>
    <i name="e_0_energy">   -535.83537883 </i>
   </energy>
  </scstep>
  <scstep>
   <time name="dav">   80.52   80.57</time>
   <time name="total">   80.52   80.57</time>
   <energy>
    <i name="e_fr_energy">   -685.36856720 </i>
    <i name="e_wo_entrp">   -685.36856720 </i>
    <i name="e_0_energy">   -685.36856720 </i>
   </energy>
  </scstep>
  <scstep>
   <time name="dav">   79.45   79.49</time>
   <time name="total">   79.45   79.49</time>
   <energy>
    <i name="e_fr_energy">   -689.65516224 </i>
    <i name="e_wo_entrp">   -689.65516224 </i>
    <i name="e_0_energy">   -689.65516224 </i>
   </energy>
  </scstep>
  <scstep>
   <time name="dav">   81.33   81.38</time>
   <time name="total">   84.63   84.68</time>
   <energy>
    <i name="e_fr_energy">   -689.80470600 </i>
    <i name="e_wo_entrp">   -689.80470600 </i>
    <i name="e_0_energy">   -689.80470600 </i>
   </energy>
  </scstep>
  <scstep>
   <time name="dav">   76.82   76.84</time>
   <time name="total">   81.10   81.13</time>
   <energy>
    <i name="e_fr_energy">   -681.32470093 </i>
    <i name="e_wo_entrp">   -681.32470093 </i>
    <i name="e_0_energy">   -681.32470093 </i>
   </energy>
  </scstep>
  <scstep>
   <time name="dav">   76.10   76.12</time>
   <time name="total">   80.38   80.40</time>
   <energy>
    <i name="e_fr_energy">   -677.77204781 </i>
    <i name="e_wo_entrp">   -677.77204781 </i>
    <i name="e_0_energy">   -677.77204781 </i>
   </energy>
  </scstep>
  <scstep>
   <time name="dav">   75.99   76.01</time>
   <time name="total">   80.22   80.25</time>
   <energy>
    <i name="e_fr_energy">   -677.83037744 </i>
    <i name="e_wo_entrp">   -677.83037744 </i>
    <i name="e_0_energy">   -677.83037744 </i>
   </energy>
  </scstep>
  <scstep>
   <time name="dav">   78.93   78.96</time>
   <time name="total">   83.15   83.19</time>
   <energy>
    <i name="e_fr_energy">   -677.85268978 </i>
    <i name="e_wo_entrp">   -677.85268978 </i>
    <i name="e_0_energy">   -677.85268978 </i>
   </energy>
  </scstep>
  <scstep>
   <time name="dav">   77.47   77.51</time>
   <time name="total">   81.71   81.75</time>
   <energy>
    <i name="e_fr_energy">   -677.85517032 </i>
    <i name="e_wo_entrp">   -677.85517032 </i>
    <i name="e_0_energy">   -677.85517032 </i>
   </energy>
  </scstep>
  <scstep>
   <time name="dav">   75.76   75.80</time>
   <time name="total">   79.92   79.96</time>
   <energy>
    <i name="e_fr_energy">   -677.85663121 </i>
    <i name="e_wo_entrp">   -677.85663121 </i>
    <i name="e_0_energy">   -677.85663121 </i>
   </energy>
  </scstep>
  <scstep>
   <time name="dav">   79.04   79.08</time>
   <time name="total">   83.21   83.25</time>
   <energy>
    <i name="e_fr_energy">   -677.85670385 </i>
    <i name="e_wo_entrp">   -677.85670385 </i>
    <i name="e_0_energy">   -677.85670385 </i>
   </energy>
  </scstep>
  <scstep>
   <time name="dav">   75.23   75.26</time>
   <time name="total">   79.39   79.43</time>
   <energy>
    <i name="e_fr_energy">   -677.85673223 </i>
    <i name="e_wo_entrp">   -677.85673223 </i>
    <i name="e_0_energy">   -677.85673223 </i>
   </energy>
  </scstep>
  <scstep>
   <time name="dav">   79.39   79.42</time>
   <time name="total">   83.55   83.58</time>
   <energy>
    <i name="e_fr_energy">   -677.85673783 </i>
    <i name="e_wo_entrp">   -677.85673783 </i>
    <i name="e_0_energy">   -677.85673783 </i>
   </energy>
  </scstep>
  <scstep>
   <time name="dav">   79.60   79.62</time>
   <time name="total">   83.75   83.78</time>
   <energy>
    <i name="e_fr_energy">   -677.85674090 </i>
    <i name="e_wo_entrp">   -677.85674090 </i>
    <i name="e_0_energy">   -677.85674090 </i>
   </energy>
  </scstep>
  <scstep>
   <time name="dav">   77.83   77.85</time>
   <time name="total">   82.05   82.08</time>
   <energy>
    <i name="e_fr_energy">   -677.85674036 </i>
    <i name="e_wo_entrp">   -677.85674036 </i>
    <i name="e_0_energy">   -677.85674036 </i>
   </energy>
  </scstep>
  <scstep>
   <time name="dav">   57.98   58.00</time>
   <time name="total">   62.18   62.19</time>
   <energy>
    <i name="e_fr_energy">   -677.85674032 </i>
    <i name="e_wo_entrp">   -677.85674032 </i>
    <i name="e_0_energy">   -677.85674032 </i>
   </energy>
  </scstep>
  <scstep>
   <time name="dav">   51.43   51.44</time>
   <time name="total">   55.62   55.63</time>
   <energy>
    <i name="e_fr_energy">   -677.85674046 </i>
    <i name="e_wo_entrp">   -677.85674046 </i>
    <i name="e_0_energy">   -677.85674046 </i>
   </energy>
  </scstep>
  <scstep>
   <time name="dav">   50.71   50.74</time>
   <time name="total">   54.91   54.94</time>
   <energy>
    <i name="e_fr_energy">   -677.85674040 </i>
    <i name="e_wo_entrp">   -677.85674040 </i>
    <i name="e_0_energy">   -677.85674040 </i>
   </energy>
  </scstep>
  <scstep>
   <time name="dav">   49.78   49.80</time>
   <time name="total">   50.78   50.80</time>
   <energy>
    <i name="alphaZ">    210.77028614 </i>
    <i name="ewald"> -14472.30428037 </i>
    <i name="hartreedc">   -998.66090117 </i>
    <i name="XCdc">  -1155.83076177 </i>
    <i name="pawpsdc">   4732.76671671 </i>
    <i name="pawaedc">  -2494.54754862 </i>
    <i name="eentropy">     -0.00000000 </i>
    <i name="bandstr">    307.46888869 </i>
    <i name="atom">  13192.48085998 </i>
    <i name="e_fr_energy">   -677.85674041 </i>
    <i name="e_wo_entrp">   -677.85674041 </i>
    <i name="e_0_energy">   -677.85674041 </i>
   </energy>
  </scstep>
  <structure>
   <crystal>
    <varray name="basis" >
     <v>       0.00000000      10.93733369      10.93733369 </v>
     <v>      10.93733369       0.00000000      10.93733369 </v>
     <v>      10.93733369      10.93733369       0.00000000 </v>
    </varray>
    <i name="volume">   2616.76295363 </i>
    <varray name="rec_basis" >
     <v>      -0.04571498       0.04571498       0.04571498 </v>
     <v>       0.04571498      -0.04571498       0.04571498 </v>
     <v>       0.04571498       0.04571498      -0.04571498 </v>
    </varray>
   </crystal>
   <varray name="positions" >
    <v>       0.99482174       0.99633383       0.99228731 </v>
    <v>       0.25423932       0.99738178       0.99638954 </v>
    <v>       0.50062741       0.00443794       0.99783207 </v>
    <v>       0.76237361       0.00278539       0.99166965 </v>
    <v>       0.00713600       0.24930992       0.98858844 </v>
    <v>       0.24297880       0.25769621       0.99336747 </v>
    <v>       0.49537092       0.25719689       0.99628295 </v>
    <v>       0.75016475       0.24704541       0.00259343 </v>
    <v>       0.99406824       0.49769441       0.00725561 </v>
    <v>       0.25284991       0.50759762       0.99371548 </v>
    <v>       0.50028327       0.50118153       0.99669939 </v>
    <v>       0.75984419       0.50629951       0.99171670 </v>
    <v>       0.00574162       0.74659697       0.99143520 </v>
    <v>       0.24413895       0.76092320       0.99500905 </v>
    <v>       0.49683343       0.74483485       0.99266998 </v>
    <v>       0.74951917       0.75379604       0.00099023 </v>
    <v>       0.00902079       0.98759823       0.25337655 </v>
    <v>       0.24647971       0.99827734       0.25464357 </v>
    <v>       0.50400764       0.99415592       0.24217516 </v>
    <v>       0.74179391       0.00994527       0.25047640 </v>
    <v>       0.00150057       0.24445299       0.24331144 </v>
    <v>       0.24842818       0.23860493       0.26141353 </v>
    <v>       0.50405783       0.24621856       0.24252004 </v>
    <v>       0.75098601       0.23162632       0.26139150 </v>
    <v>       0.99815482       0.49946083       0.24318043 </v>
    <v>       0.24932776       0.49724110       0.23618917 </v>
    <v>       0.49523510       0.49897041       0.24883765 </v>
    <v>       0.75393419       0.49266788       0.24417334 </v>
    <v>       0.99574225       0.75635981       0.24910476 </v>
    <v>       0.25691507       0.74203477       0.25164283 </v>
    <v>       0.50098517       0.74670349       0.25831566 </v>
    <v>       0.75248415       0.73353603       0.25619772 </v>
    <v>       0.98691121       0.00658302       0.50274365 </v>
    <v>       0.24243532       0.99660198       0.50829371 </v>
    <v>       0.49584413       0.99908929       0.50776000 </v>
    <v>       0.73641693       0.01385253       0.50207510 </v>
    <v>       0.99974718       0.24892530       0.49385480 </v>
    <v>       0.24032891       0.25572881       0.49830552 </v>
    <v>       0.49481020       0.25971823       0.49340402 </v>
    <v>       0.74692607       0.26436739       0.49346640 </v>
    <v>       0.00319075       0.49627122       0.50155202 </v>
    <v>       0.25179074       0.49724316       0.50677360 </v>
    <v>       0.50003015       0.50535992       0.48716175 </v>
    <v>       0.75033906       0.49635423       0.50266766 </v>
    <v>       0.00521458       0.74412123       0.49777744 </v>
    <v>       0.24197492       0.75010041       0.49932403 </v>
    <v>       0.49828540       0.75225259       0.49350086 </v>
    <v>       0.74647094       0.74763676       0.50282493 </v>
    <v>       0.00323015       0.99284670       0.75593655 </v>
    <v>       0.24090380       0.99214087       0.75905804 </v>
    <v>       0.50234325       0.01001878       0.74980082 </v>
    <v>       0.75237806       0.01213790       0.74048065 </v>
    <v>       0.99154328       0.24767381       0.76575610 </v>
    <v>       0.25389695       0.24332900       0.75053002 </v>
    <v>       0.50233936       0.25027638       0.74469337 </v>
    <v>       0.76244586       0.24585963       0.74400941 </v>
    <v>       0.00377109       0.49685800       0.75884859 </v>
    <v>       0.24532839       0.50698517       0.75079877 </v>
    <v>       0.50719371       0.50029906       0.74254538 </v>
    <v>       0.74185900       0.49480147       0.75668440 </v>
    <v>       0.99407890       0.75236380       0.74184138 </v>
    <v>       0.25628178       0.75255665       0.74655029 </v>
    <v>       0.49753774       0.74842131       0.75175979 </v>
    <v>       0.75133225       0.74948827       0.74418128 </v>
    <v>       0.06813983       0.06776169       0.05813394 </v>
    <v>       0.32195954       0.06899465       0.04875174 </v>
    <v>       0.56287104       0.06232780       0.06459143 </v>
    <v>       0.82433220       0.04962731       0.06078968 </v>
    <v>       0.06141295       0.31850971       0.06732194 </v>
    <v>       0.30778495       0.31520656       0.06074878 </v>
    <v>       0.55846082       0.32094041       0.04836350 </v>
    <v>       0.80883956       0.31983732       0.06515456 </v>
    <v>       0.05843987       0.56369681       0.05320782 </v>
    <v>       0.32459944       0.55522874       0.06733016 </v>
    <v>       0.56795519       0.57155372       0.05605225 </v>
    <v>       0.81399785       0.55261309       0.06512252 </v>
    <v>       0.05409142       0.81380990       0.07006443 </v>
    <v>       0.31775180       0.80944465       0.07198197 </v>
    <v>       0.55227885       0.82327696       0.06241657 </v>
    <v>       0.80049051       0.82192745       0.06041014 </v>
    <v>       0.06860066       0.06073156       0.30518761 </v>
    <v>       0.32423068       0.05364297       0.30233522 </v>
    <v>       0.56355572       0.06248546       0.32375008 </v>
    <v>       0.81267044       0.05670059       0.31290275 </v>
    <v>       0.07517380       0.32320588       0.29802352 </v>
    <v>       0.31344549       0.29492481       0.32170233 </v>
    <v>       0.56652963       0.30973121       0.30808421 </v>
    <v>       0.80498453       0.31831111       0.32107929 </v>
    <v>       0.05552619       0.56130315       0.30921664 </v>
    <v>       0.31074858       0.56323723       0.28894405 </v>
    <v>       0.58235048       0.54156113       0.31177068 </v>
    <v>       0.80530916       0.55214031       0.32060919 </v>
    <v>       0.05299295       0.81582909       0.31438266 </v>
    <v>       0.32122797       0.81168864       0.30722696 </v>
    <v>       0.55618594       0.81262684       0.31832389 </v>
    <v>       0.79865671       0.81009949       0.31720453 </v>
    <v>       0.05925245       0.07039288       0.56506416 </v>
    <v>       0.31451802       0.06238612       0.56797227 </v>
    <v>       0.55866062       0.06266804       0.56316794 </v>
    <v>       0.81233537       0.05866932       0.56159755 </v>
    <v>       0.06604514       0.30099167       0.56387693 </v>
    <v>       0.31339750       0.31329770       0.56637454 </v>
    <v>       0.56369667       0.30521092       0.55800257 </v>
    <v>       0.81093522       0.30528572       0.56501356 </v>
    <v>       0.06539120       0.56084604       0.56400823 </v>
    <v>       0.32002870       0.56953680       0.55680279 </v>
    <v>       0.56042094       0.56570780       0.55393246 </v>
    <v>       0.82322770       0.54665193       0.57355024 </v>
    <v>       0.05764626       0.81687880       0.56268940 </v>
    <v>       0.31554900       0.80271499       0.55860414 </v>
    <v>       0.55556887       0.80279754       0.56699368 </v>
    <v>       0.81696764       0.80546170       0.56926880 </v>
    <v>       0.07058919       0.05734724       0.80990244 </v>
    <v>       0.31600405       0.05731265       0.81112023 </v>
    <v>       0.56744310       0.04789091       0.82030558 </v>
    <v>       0.80086490       0.06599974       0.81721380 </v>
    <v>       0.05262211       0.32401549       0.81783617 </v>
    <v>       0.31191616       0.32013935       0.81796411 </v>
    <v>       0.56189533       0.32001537       0.81687270 </v>
    <v>       0.81084525       0.32286149       0.80663443 </v>
    <v>       0.06598062       0.55960545       0.81883614 </v>
    <v>       0.31669216       0.56151887       0.80764776 </v>
    <v>       0.55836050       0.55993279       0.81717593 </v>
    <v>       0.80655570       0.56170572       0.81223443 </v>
    <v>       0.06183994       0.80844323       0.81744528 </v>
    <v>       0.30827521       0.81657156       0.80962761 </v>
    <v>       0.56801157       0.81281765       0.80432026 </v>
    <v>       0.81767475       0.80937530       0.81598641 </v>
   </varray>
  </structure>
  <varray name="forces" >
   <v>      -0.11608145       2.53160589       2.12913704 </v>
   <v>       0.33220217       0.65382257       0.43867372 </v>
   <v>       0.36825374       0.84827276       0.20885789 </v>
   <v>       1.23397686      -0.66114902      -2.26831475 </v>
   <v>       3.06001076       1.18202098      -0.95896840 </v>
   <v>       0.57518817       1.82696465      -0.22295851 </v>
   <v>      -0.21923466       0.25388833      -1.44349443 </v>
   <v>      -0.19264166      -0.39878791       0.33245635 </v>
   <v>      -0.79448832      -0.56708002       0.58338333 </v>
   <v>      -0.10087911       0.44001143      -0.74719958 </v>
   <v>       0.43751159       1.40644401       1.09777133 </v>
   <v>      -0.13540916      -0.97507651      -1.96745432 </v>
   <v>       2.51056735       0.44739559      -1.39226920 </v>
   <v>       0.28822506       1.67359978      -0.61903374 </v>
   <v>       1.41662037      -0.00678119       2.10191038 </v>
   <v>      -0.37088574      -0.52197418      -1.44935443 </v>
   <v>       1.30482173      -2.30201951       1.41282535 </v>
   <v>      -1.81420413      -0.16883869       1.36799143 </v>
   <v>       1.42138396       1.56315624       0.68928065 </v>
   <v>      -2.07394223       0.72868364      -0.69824019 </v>
   <v>       2.10926788       0.81258822       0.10967143 </v>
   <v>      -1.73677812      -0.23459195       1.41876850 </v>
   <v>       0.74360992      -0.20692477       0.06352142 </v>
   <v>       1.44630092      -1.23125150       2.53965492 </v>
   <v>       0.84078053      -1.01113528       0.47511531 </v>
   <v>       0.94674883       1.41354553      -2.78480871 </v>
   <v>      -0.60610702       0.33365880       0.95852737 </v>
   <v>       0.25973365       0.88532887       1.27346783 </v>
   <v>       0.12172092       0.01533549      -1.92699725 </v>
   <v>       1.26734205      -0.61137997      -0.39777663 </v>
   <v>      -1.89180998       0.00713686       0.10510587 </v>
   <v>       0.81458824      -1.73413585       0.65878610 </v>
   <v>      -1.34224826       1.40184206       1.89717371 </v>
   <v>      -1.29664019       0.49028412       1.35324713 </v>
   <v>      -0.97373581       0.63798605      -0.60787784 </v>
   <v>      -2.18076968       1.15517628      -0.39033274 </v>
   <v>       0.51923046      -0.69235649       1.05608558 </v>
   <v>      -0.18980084       2.68188669       0.58842894 </v>
   <v>      -1.36200158       0.38659244      -0.85279844 </v>
   <v>      -0.31884239       1.40559720      -2.43280060 </v>
   <v>      -1.01713742       0.69993905       0.17673440 </v>
   <v>      -0.58768513      -0.99742882       0.93931766 </v>
   <v>      -0.07937428       2.03288004      -0.75071921 </v>
   <v>       0.46459309       0.71831048      -0.42323213 </v>
   <v>       1.02132594      -0.08627291       0.00269130 </v>
   <v>      -0.11931999      -0.08867188       1.05835926 </v>
   <v>       0.51138012       0.75014237      -0.99190556 </v>
   <v>      -0.05364562       0.91502859      -0.45262283 </v>
   <v>       0.47603799      -1.33424181       0.01301585 </v>
   <v>      -0.69742768       0.81232665       3.36590948 </v>
   <v>      -1.78363747      -0.70149730      -1.73515092 </v>
   <v>      -0.49992578       0.85660512      -2.05514521 </v>
   <v>      -1.16412789      -0.19168808       1.44048292 </v>
   <v>       1.60174096      -0.07114095       0.10348813 </v>
   <v>       0.66595117       1.10891346      -0.30735610 </v>
   <v>       1.96109753      -0.36418017      -0.68987822 </v>
   <v>       0.75779273      -2.33037040       0.81088065 </v>
   <v>      -1.22836867       0.40255694       0.73654782 </v>
   <v>       0.57036194      -0.83912541      -0.20428960 </v>
   <v>       0.97852286      -0.53023806       1.48867376 </v>
   <v>       0.25422235       2.43954643       0.23799375 </v>
   <v>      -0.82292236      -0.76498049      -1.36051411 </v>
   <v>       0.12844356      -0.03233422       0.02097552 </v>
   <v>       1.15170555       1.64482800      -0.45750924 </v>
   <v>      -0.94063020      -0.01548748      -1.70084861 </v>
   <v>       1.21520014      -0.65500793      -1.77241508 </v>
   <v>      -0.80226900      -0.51121166       1.77006516 </v>
   <v>       2.99327600      -1.39583352      -0.32588522 </v>
   <v>      -1.93279046      -1.15673820      -0.78255181 </v>
   <v>       0.58923727       0.21848137      -0.05817450 </v>
   <v>       0.10930433       2.14208673      -0.29971050 </v>
   <v>      -1.04392632       0.70567816      -0.60401569 </v>
   <v>       0.72097377       1.60719902       1.00718844 </v>
   <v>      -0.17759501      -3.75880265       0.80230755 </v>
   <v>      -1.27624660       1.29701670      -1.62666849 </v>
   <v>       1.48508228      -0.67768388       1.84998072 </v>
   <v>      -1.70875399      -0.53604574       0.47244312 </v>
   <v>      -0.71657289      -2.20269543      -0.22966191 </v>
   <v>      -1.36550264       1.00588728      -0.93985338 </v>
   <v>      -0.65285722       2.19494509       0.38294271 </v>
   <v>       1.21253000       0.07615974      -1.40309444 </v>
   <v>       2.04232571       0.23711061      -1.29119237 </v>
   <v>      -0.75521355      -1.89630409      -0.77756828 </v>
   <v>      -0.51144084       1.85183356      -0.05382705 </v>
   <v>      -0.32566856      -0.14919856      -3.24688869 </v>
   <v>      -0.11594158      -0.91775319       2.02833954 </v>
   <v>      -0.07853887      -0.77056593      -0.37321520 </v>
   <v>      -3.60732316      -0.12081673      -0.02424761 </v>
   <v>       0.51817521       0.29915376       0.93388447 </v>
   <v>       1.44622736       2.25976377      -0.63043120 </v>
   <v>       1.63719202      -3.52266427      -0.68816838 </v>
   <v>      -1.12098280       0.36033169       0.69098019 </v>
   <v>      -1.88985752       1.99534849      -0.10550147 </v>
   <v>       0.64553300      -0.29905055      -1.45510042 </v>
   <v>      -1.61106169       0.15619206       1.29867213 </v>
   <v>       0.14314100       0.51874031       1.41238951 </v>
   <v>      -0.94506436       0.06732263      -1.63425115 </v>
   <v>       0.36086502      -1.37415226      -1.04774450 </v>
   <v>       1.47458160      -0.48126053       0.36007497 </v>
   <v>       1.44778262      -1.86466617       0.73952339 </v>
   <v>       2.08124904      -0.90114007      -0.98012656 </v>
   <v>      -0.27490987      -0.99544759      -0.76605391 </v>
   <v>       1.53997077      -0.16443355       0.91971605 </v>
   <v>       0.36287116      -0.08610722       1.49461618 </v>
   <v>      -0.15167424       0.62747455      -0.52323838 </v>
   <v>       0.09629870      -0.58906204      -1.71944719 </v>
   <v>      -0.22434505       0.67587713       0.14567226 </v>
   <v>       0.60733477      -2.30972830       0.12356356 </v>
   <v>      -0.60126613      -0.89961352       0.22064092 </v>
   <v>       1.48139888      -0.53674782       0.09678630 </v>
   <v>       0.57103171       0.27006969       1.30938099 </v>
   <v>      -0.60347426      -2.26327153       1.11355098 </v>
   <v>       1.91601618      -1.96356348      -1.40902858 </v>
   <v>       0.02841161      -0.15269883      -0.35579854 </v>
   <v>       0.92374574      -0.62389328       2.40697713 </v>
   <v>      -1.32933539       0.73656184       1.84920322 </v>
   <v>      -3.51370650       0.39673202       0.24159215 </v>
   <v>      -2.02172038      -1.33328605       0.30619440 </v>
   <v>      -2.65548610      -0.35247329       0.08945590 </v>
   <v>      -1.04481309       1.70559496      -2.32817765 </v>
   <v>       0.77127182      -1.19038090      -0.25854262 </v>
   <v>       0.65560418       0.30625140       0.67003847 </v>
   <v>      -0.16834958      -1.09271902       0.48110587 </v>
   <v>      -0.60010426       0.42362181       1.16465522 </v>
   <v>      -1.98058197      -1.16317340       1.12490065 </v>
   <v>      -0.48184689       1.48902380      -0.28561351 </v>
   <v>       0.83849064      -0.69973509      -0.07241746 </v>
   <v>       0.52354012      -1.90929268      -0.40329099 </v>
  </varray>
  <varray name="stress" >
   <v>      13.22823123      -0.26564027      -8.93516855 </v>
   <v>      -0.26564028      13.67026419      -3.05967210 </v>
   <v>      -8.93516855      -3.05967209      14.24879763 </v>
  </varray>
  <energy>
   <i name="e_fr_energy">   -677.85674041 </i>
   <i name="e_wo_entrp">   -677.85674041 </i>
   <i name="e_0_energy">     -0.00000000 </i>
  </energy>
  <time name="totalsc"> 1631.87 1632.56</time>
  <eigenvalues>
   <array>
    <dimension dim="1">band</dimension>
    <dimension dim="2">kpoint</dimension>
    <dimension dim="3">spin</dimension>
    <field>eigene</field>
    <field>occ</field>
    <set>
     <set comment="spin 1">
      <set comment="kpoint 1">
       <r>   -6.3057    1.0000 </r>
       <r>   -5.7611    1.0000 </r>
       <r>   -5.6375    1.0000 </r>
       <r>   -5.5885    1.0000 </r>
       <r>   -5.5339    1.0000 </r>
       <r>   -5.4950    1.0000 </r>
       <r>   -5.4613    1.0000 </r>
       <r>   -5.4481    1.0000 </r>
       <r>   -5.3966    1.0000 </r>
       <r>   -5.3752    1.0000 </r>
       <r>   -5.2715    1.0000 </r>
       <r>   -5.2203    1.0000 </r>
       <r>   -5.2099    1.0000 </r>
       <r>   -5.1333    1.0000 </r>
       <r>   -5.0742    1.0000 </r>
       <r>   -4.5700    1.0000 </r>
       <r>   -4.4763    1.0000 </r>
       <r>   -4.4027    1.0000 </r>
       <r>   -4.3917    1.0000 </r>
       <r>   -4.3817    1.0000 </r>
       <r>   -4.3289    1.0000 </r>
       <r>   -4.2887    1.0000 </r>
       <r>   -4.2661    1.0000 </r>
       <r>   -4.2488    1.0000 </r>
       <r>   -4.1756    1.0000 </r>
       <r>   -4.1528    1.0000 </r>
       <r>   -4.1324    1.0000 </r>
       <r>   -4.0777    1.0000 </r>
       <r>   -4.0457    1.0000 </r>
       <r>   -3.9884    1.0000 </r>
       <r>   -3.9566    1.0000 </r>
       <r>   -3.9063    1.0000 </r>
       <r>   -3.8830    1.0000 </r>
       <r>   -3.8300    1.0000 </r>
       <r>   -3.7854    1.0000 </r>
       <r>   -3.7482    1.0000 </r>
       <r>   -3.7136    1.0000 </r>
       <r>   -3.6603    1.0000 </r>
       <r>   -3.6483    1.0000 </r>
       <r>   -3.6247    1.0000 </r>
       <r>   -3.6166    1.0000 </r>
       <r>   -3.5978    1.0000 </r>
       <r>   -3.5686    1.0000 </r>
       <r>   -3.5593    1.0000 </r>
       <r>   -3.5506    1.0000 </r>
       <r>   -3.5212    1.0000 </r>
       <r>   -3.4898    1.0000 </r>
       <r>   -3.4660    1.0000 </r>
       <r>   -3.4365    1.0000 </r>
       <r>   -3.3802    1.0000 </r>
       <r>   -3.3471    1.0000 </r>
       <r>   -3.3237    1.0000 </r>
       <r>   -3.2937    1.0000 </r>
       <r>   -3.2414    1.0000 </r>
       <r>   -3.2038    1.0000 </r>
       <r>   -2.3661    1.0000 </r>
       <r>   -2.3165    1.0000 </r>
       <r>   -2.3004    1.0000 </r>
       <r>   -2.2865    1.0000 </r>
       <r>   -2.2190    1.0000 </r>
       <r>   -2.1502    1.0000 </r>
       <r>   -2.1337    1.0000 </r>
       <r>   -2.1275    1.0000 </r>
       <r>   -2.0966    1.0000 </r>
       <r>   -2.0618    1.0000 </r>
       <r>   -2.0456    1.0000 </r>
       <r>   -1.9856    1.0000 </r>
       <r>   -1.9532    1.0000 </r>
       <r>   -1.9194    1.0000 </r>
       <r>   -1.8933    1.0000 </r>
       <r>   -1.8435    1.0000 </r>
       <r>   -1.8304    1.0000 </r>
       <r>   -1.7960    1.0000 </r>
       <r>   -1.3798    1.0000 </r>
       <r>   -1.2856    1.0000 </r>
       <r>   -1.2577    1.0000 </r>
       <r>   -1.1908    1.0000 </r>
       <r>   -1.0987    1.0000 </r>
       <r>   -1.0642    1.0000 </r>
       <r>   -1.0274    1.0000 </r>
       <r>   -0.9441    1.0000 </r>
       <r>   -0.9132    1.0000 </r>
       <r>   -0.8747    1.0000 </r>
       <r>   -0.8603    1.0000 </r>
       <r>   -0.8427    1.0000 </r>
       <r>   -0.7956    1.0000 </r>
       <r>   -0.7704    1.0000 </r>
       <r>   -0.7382    1.0000 </r>
       <r>   -0.7290    1.0000 </r>
       <r>   -0.7090    1.0000 </r>
       <r>   -0.6761    1.0000 </r>
       <r>   -0.6440    1.0000 </r>
       <r>   -0.6179    1.0000 </r>
       <r>   -0.6142    1.0000 </r>
       <r>   -0.5814    1.0000 </r>
       <r>   -0.5613    1.0000 </r>
       <r>   -0.5016    1.0000 </r>
       <r>   -0.4665    1.0000 </r>
       <r>   -0.4297    1.0000 </r>
       <r>   -0.3973    1.0000 </r>
       <r>   -0.3466    1.0000 </r>
       <r>    0.0239    1.0000 </r>
       <r>    0.0284    1.0000 </r>
       <r>    0.0796    1.0000 </r>
       <r>    0.1061    1.0000 </r>
       <r>    0.1321    1.0000 </r>
       <r>    0.1507    1.0000 </r>
       <r>    0.1849    1.0000 </r>
       <r>    0.2275    1.0000 </r>
       <r>    0.2600    1.0000 </r>
       <r>    0.3125    1.0000 </r>
       <r>    0.3473    1.0000 </r>
       <r>    0.4100    1.0000 </r>
       <r>    1.3757    1.0000 </r>
       <r>    1.4219    1.0000 </r>
       <r>    1.4424    1.0000 </r>
       <r>    1.4668    1.0000 </r>
       <r>    1.4954    1.0000 </r>
       <r>    1.5302    1.0000 </r>
       <r>    1.5740    1.0000 </r>
       <r>    1.5874    1.0000 </r>
       <r>    1.6242    1.0000 </r>
       <r>    1.6333    1.0000 </r>
       <r>    1.6574    1.0000 </r>
       <r>    1.6691    1.0000 </r>
       <r>    1.6978    1.0000 </r>
       <r>    1.7168    1.0000 </r>
       <r>    1.7411    1.0000 </r>
       <r>    1.7474    1.0000 </r>
       <r>    1.7600    1.0000 </r>
       <r>    1.7719    1.0000 </r>
       <r>    1.7964    1.0000 </r>
       <r>    1.8116    1.0000 </r>
       <r>    1.8202    1.0000 </r>
       <r>    1.8431    1.0000 </r>
       <r>    1.8661    1.0000 </r>
       <r>    1.8762    1.0000 </r>
       <r>    1.8789    1.0000 </r>
       <r>    1.8997    1.0000 </r>
       <r>    1.9077    1.0000 </r>
       <r>    1.9172    1.0000 </r>
       <r>    1.9350    1.0000 </r>
       <r>    1.9605    1.0000 </r>
       <r>    1.9705    1.0000 </r>
       <r>    1.9891    1.0000 </r>
       <r>    2.0042    1.0000 </r>
       <r>    2.0190    1.0000 </r>
       <r>    2.0370    1.0000 </r>
       <r>    2.0544    1.0000 </r>
       <r>    2.0646    1.0000 </r>
       <r>    2.0689    1.0000 </r>
       <r>    2.0815    1.0000 </r>
       <r>    2.1135    1.0000 </r>
       <r>    2.1203    1.0000 </r>
       <r>    2.1349    1.0000 </r>
       <r>    2.1518    1.0000 </r>
       <r>    2.1610    1.0000 </r>
       <r>    2.1652    1.0000 </r>
       <r>    2.1881    1.0000 </r>
       <r>    2.1943    1.0000 </r>
       <r>    2.2091    1.0000 </r>
       <r>    2.2327    1.0000 </r>
       <r>    2.2488    1.0000 </r>
       <r>    2.2712    1.0000 </r>
       <r>    2.2788    1.0000 </r>
       <r>    2.2966    1.0000 </r>
       <r>    2.3153    1.0000 </r>
       <r>    2.3309    1.0000 </r>
       <r>    2.3517    1.0000 </r>
       <r>    2.3775    1.0000 </r>
       <r>    2.4061    1.0000 </r>
       <r>    2.4571    1.0000 </r>
       <r>    2.4749    1.0000 </r>
       <r>    2.4917    1.0000 </r>
       <r>    2.5507    1.0000 </r>
       <r>    2.7627    1.0000 </r>
       <r>    2.7667    1.0000 </r>
       <r>    2.8085    1.0000 </r>
       <r>    2.8280    1.0000 </r>
       <r>    2.8661    1.0000 </r>
       <r>    2.9052    1.0000 </r>
       <r>    3.1294    1.0000 </r>
       <r>    3.1663    1.0000 </r>
       <r>    3.2053    1.0000 </r>
       <r>    3.2269    1.0000 </r>
       <r>    3.2661    1.0000 </r>
       <r>    3.2906    1.0000 </r>
       <r>    3.3345    1.0000 </r>
       <r>    3.3574    1.0000 </r>
       <r>    3.3691    1.0000 </r>
       <r>    3.3833    1.0000 </r>
       <r>    3.3922    1.0000 </r>
       <r>    3.4319    1.0000 </r>
       <r>    3.4372    1.0000 </r>
       <r>    3.4615    1.0000 </r>
       <r>    3.4751    1.0000 </r>
       <r>    3.4995    1.0000 </r>
       <r>    3.5131    1.0000 </r>
       <r>    3.5249    1.0000 </r>
       <r>    3.5447    1.0000 </r>
       <r>    3.5512    1.0000 </r>
       <r>    3.5718    1.0000 </r>
       <r>    3.5759    1.0000 </r>
       <r>    3.6085    1.0000 </r>
       <r>    3.6257    1.0000 </r>
       <r>    3.6406    1.0000 </r>
       <r>    3.6899    1.0000 </r>
       <r>    3.7101    1.0000 </r>
       <r>    3.7271    1.0000 </r>
       <r>    3.7768    1.0000 </r>
       <r>    3.8060    1.0000 </r>
       <r>    3.8143    1.0000 </r>
       <r>    3.8664    1.0000 </r>
       <r>    3.8819    1.0000 </r>
       <r>    3.9382    1.0000 </r>
       <r>    3.9767    1.0000 </r>
       <r>    3.9928    1.0000 </r>
       <r>    4.1366    1.0000 </r>
       <r>    4.1470    1.0000 </r>
       <r>    4.1696    1.0000 </r>
       <r>    4.2183    1.0000 </r>
       <r>    4.2512    1.0000 </r>
       <r>    4.2760    1.0000 </r>
       <r>    4.3072    1.0000 </r>
       <r>    4.3143    1.0000 </r>
       <r>    4.3533    1.0000 </r>
       <r>    4.3652    1.0000 </r>
       <r>    4.4061    1.0000 </r>
       <r>    4.4187    1.0000 </r>
       <r>    4.4320    1.0000 </r>
       <r>    4.4752    1.0000 </r>
       <r>    4.4994    1.0000 </r>
       <r>    4.5219    1.0000 </r>
       <r>    4.5522    1.0000 </r>
       <r>    4.5998    1.0000 </r>
       <r>    4.6266    1.0000 </r>
       <r>    4.6446    1.0000 </r>
       <r>    4.7072    1.0000 </r>
       <r>    4.7513    1.0000 </r>
       <r>    4.7882    1.0000 </r>
       <r>    4.8398    1.0000 </r>
       <r>    4.8647    1.0000 </r>
       <r>    4.9054    1.0000 </r>
       <r>    4.9464    1.0000 </r>
       <r>    4.9936    1.0000 </r>
       <r>    5.0496    1.0000 </r>
       <r>    5.0718    1.0000 </r>
       <r>    5.0871    1.0000 </r>
       <r>    5.1511    1.0000 </r>
       <r>    5.2161    1.0000 </r>
       <r>    5.2409    1.0000 </r>
       <r>    5.2843    1.0000 </r>
       <r>    5.3039    1.0000 </r>
       <r>    5.7014    1.0000 </r>
       <r>    5.7828    1.0000 </r>
       <r>    5.8754    1.0000 </r>
       <r>    6.0718    0.0000 </r>
       <r>    6.1736    0.0000 </r>
       <r>    6.2352    0.0000 </r>
       <r>    6.2547    0.0000 </r>
       <r>    6.3249    0.0000 </r>
       <r>    6.4159    0.0000 </r>
       <r>    6.5104    0.0000 </r>
       <r>    6.5651    0.0000 </r>
       <r>    6.5774    0.0000 </r>
       <r>    6.6120    0.0000 </r>
       <r>    6.6509    0.0000 </r>
       <r>    6.6898    0.0000 </r>
       <r>    6.7407    0.0000 </r>
       <r>    6.7675    0.0000 </r>
       <r>    6.8435    0.0000 </r>
       <r>    6.8645    0.0000 </r>
       <r>    6.8858    0.0000 </r>
       <r>    6.8952    0.0000 </r>
       <r>    6.9201    0.0000 </r>
       <r>    6.9330    0.0000 </r>
       <r>    6.9621    0.0000 </r>
       <r>    6.9814    0.0000 </r>
       <r>    6.9908    0.0000 </r>
       <r>    6.9990    0.0000 </r>
       <r>    7.0144    0.0000 </r>
       <r>    7.0305    0.0000 </r>
       <r>    7.0632    0.0000 </r>
       <r>    7.0820    0.0000 </r>
       <r>    7.0992    0.0000 </r>
       <r>    7.1415    0.0000 </r>
       <r>    7.1485    0.0000 </r>
       <r>    7.1611    0.0000 </r>
       <r>    7.1920    0.0000 </r>
       <r>    7.2229    0.0000 </r>
       <r>    7.2324    0.0000 </r>
       <r>    7.2607    0.0000 </r>
       <r>    7.2702    0.0000 </r>
       <r>    7.2829    0.0000 </r>
       <r>    7.3294    0.0000 </r>
       <r>    7.3573    0.0000 </r>
       <r>    7.4555    0.0000 </r>
       <r>    7.4760    0.0000 </r>
       <r>    7.4909    0.0000 </r>
       <r>    7.5190    0.0000 </r>
       <r>    7.5386    0.0000 </r>
       <r>    7.5542    0.0000 </r>
       <r>    7.5902    0.0000 </r>
       <r>    7.6284    0.0000 </r>
       <r>    7.7459    0.0000 </r>
       <r>    7.8134    0.0000 </r>
       <r>    7.8756    0.0000 </r>
       <r>    7.9139    0.0000 </r>
       <r>    7.9261    0.0000 </r>
       <r>    7.9642    0.0000 </r>
       <r>    8.0000    0.0000 </r>
       <r>    8.0188    0.0000 </r>
       <r>    8.0435    0.0000 </r>
       <r>    8.0537    0.0000 </r>
       <r>    8.0736    0.0000 </r>
       <r>    8.1233    0.0000 </r>
       <r>    8.1528    0.0000 </r>
       <r>    8.1994    0.0000 </r>
       <r>    8.2335    0.0000 </r>
       <r>    8.4958    0.0000 </r>
       <r>    8.5480    0.0000 </r>
       <r>    8.5980    0.0000 </r>
      </set>
      <set comment="kpoint 2">
       <r>   -6.1695    1.0000 </r>
       <r>   -6.0432    1.0000 </r>
       <r>   -5.7448    1.0000 </r>
       <r>   -5.6569    1.0000 </r>
       <r>   -5.6236    1.0000 </r>
       <r>   -5.5649    1.0000 </r>
       <r>   -5.5090    1.0000 </r>
       <r>   -5.4823    1.0000 </r>
       <r>   -5.1434    1.0000 </r>
       <r>   -5.1225    1.0000 </r>
       <r>   -5.0818    1.0000 </r>
       <r>   -5.0526    1.0000 </r>
       <r>   -5.0214    1.0000 </r>
       <r>   -5.0090    1.0000 </r>
       <r>   -4.8197    1.0000 </r>
[...]
       <r>    -3.1163    25.7976    99.9032 </r>
       <r>    -3.0616    50.1168   102.6419 </r>
       <r>    -3.0070    50.4909   105.4011 </r>
       <r>    -2.9523    44.8215   107.8504 </r>
       <r>    -2.8977    43.8761   110.2481 </r>
       <r>    -2.8430    25.9665   111.6671 </r>
       <r>    -2.7884    31.1625   113.3700 </r>
       <r>    -2.7337    33.7026   115.2118 </r>
       <r>    -2.6791    41.4128   117.4749 </r>
       <r>    -2.6245    30.7476   119.1552 </r>
       <r>    -2.5698    28.7199   120.7246 </r>
       <r>    -2.5152    26.5888   122.1776 </r>
       <r>    -2.4605     1.4145   122.2549 </r>
       <r>    -2.4059     8.5983   122.7248 </r>
       <r>    -2.3512     4.9548   122.9956 </r>
       <r>    -2.2966     8.2147   123.4445 </r>
       <r>    -2.2419    14.5761   124.2410 </r>
       <r>    -2.1873    16.4268   125.1387 </r>
       <r>    -2.1326    33.5192   126.9704 </r>
       <r>    -2.0780    32.9677   128.7720 </r>
       <r>    -2.0233    22.9054   130.0237 </r>
       <r>    -1.9687    20.9078   131.1662 </r>
       <r>    -1.9140    18.8113   132.1942 </r>
       <r>    -1.8594     5.6498   132.5030 </r>
       <r>    -1.8048     9.5828   133.0267 </r>
       <r>    -1.7501     4.0858   133.2500 </r>
       <r>    -1.6955     3.2810   133.4293 </r>
       <r>    -1.6408    15.2665   134.2636 </r>
       <r>    -1.5862    27.2691   135.7538 </r>
       <r>    -1.5315    36.3010   137.7375 </r>
       <r>    -1.4769    41.8041   140.0220 </r>
       <r>    -1.4222    40.1684   142.2170 </r>
       <r>    -1.3676    34.5880   144.1072 </r>
       <r>    -1.3129    59.8137   147.3758 </r>
       <r>    -1.2583    53.2079   150.2835 </r>
       <r>    -1.2036    68.0486   154.0021 </r>
       <r>    -1.1490    66.2970   157.6251 </r>
       <r>    -1.0943    52.1128   160.4729 </r>
       <r>    -1.0397    65.6587   164.0610 </r>
       <r>    -0.9851    61.3566   167.4139 </r>
       <r>    -0.9304    48.8923   170.0858 </r>
       <r>    -0.8758    67.2284   173.7596 </r>
       <r>    -0.8211    61.3640   177.1130 </r>
       <r>    -0.7665    48.1826   179.7460 </r>
       <r>    -0.7118    66.8783   183.4007 </r>
       <r>    -0.6572    43.1254   185.7574 </r>
       <r>    -0.6025    35.6879   187.7076 </r>
       <r>    -0.5479    20.9592   188.8530 </r>
       <r>    -0.4932    18.9987   189.8912 </r>
       <r>    -0.4386    24.6739   191.2396 </r>
       <r>    -0.3839    31.7237   192.9732 </r>
       <r>    -0.3293    42.0243   195.2697 </r>
       <r>    -0.2746    53.2121   198.1775 </r>
       <r>    -0.2200    52.5895   201.0514 </r>
       <r>    -0.1654    51.5727   203.8697 </r>
       <r>    -0.1107    35.3877   205.8035 </r>
       <r>    -0.0561    51.0620   208.5939 </r>
       <r>    -0.0014    39.4629   210.7504 </r>
       <r>     0.0532    35.6148   212.6967 </r>
       <r>     0.1079    12.8683   213.3999 </r>
       <r>     0.1625    15.3463   214.2385 </r>
       <r>     0.2172    13.5351   214.9782 </r>
       <r>     0.2718    11.3866   215.6004 </r>
       <r>     0.3265    25.6586   217.0026 </r>
       <r>     0.3811    19.9208   218.0912 </r>
       <r>     0.4358    25.7664   219.4993 </r>
       <r>     0.4904    25.1227   220.8722 </r>
       <r>     0.5451    25.4946   222.2654 </r>
       <r>     0.5997    25.2029   223.6426 </r>
       <r>     0.6543    14.1473   224.4157 </r>
       <r>     0.7090    27.2345   225.9040 </r>
       <r>     0.7636     8.7276   226.3810 </r>
       <r>     0.8183    24.4832   227.7189 </r>
       <r>     0.8729     4.7904   227.9807 </r>
       <r>     0.9276    21.4796   229.1545 </r>
       <r>     0.9822    14.3022   229.9360 </r>
       <r>     1.0369    28.2820   231.4815 </r>
       <r>     1.0915    44.5630   233.9168 </r>
       <r>     1.1462    22.1827   235.1290 </r>
       <r>     1.2008    18.7100   236.1514 </r>
       <r>     1.2555    19.3782   237.2104 </r>
       <r>     1.3101    29.2419   238.8083 </r>
       <r>     1.3648    33.9411   240.6631 </r>
       <r>     1.4194    42.0641   242.9618 </r>
       <r>     1.4740    60.5689   246.2717 </r>
       <r>     1.5287    78.7626   250.5758 </r>
       <r>     1.5833    96.3066   255.8387 </r>
       <r>     1.6380    73.9822   259.8816 </r>
       <r>     1.6926    73.6340   263.9055 </r>
       <r>     1.7473    63.9838   267.4020 </r>
       <r>     1.8019    46.4546   269.9406 </r>
       <r>     1.8566    32.7182   271.7285 </r>
       <r>     1.9112    26.8068   273.1934 </r>
       <r>     1.9659    25.7732   274.6019 </r>
       <r>     2.0205    31.8913   276.3446 </r>
       <r>     2.0752    63.2158   279.7992 </r>
       <r>     2.1298    94.0959   284.9412 </r>
       <r>     2.1845   109.8697   290.9453 </r>
       <r>     2.2391   127.2189   297.8974 </r>
       <r>     2.2938   108.1640   303.8083 </r>
       <r>     2.3484   105.5945   309.5788 </r>
       <r>     2.4030    94.1365   314.7230 </r>
       <r>     2.4577    82.4371   319.2281 </r>
       <r>     2.5123    54.0370   322.1810 </r>
       <r>     2.5670    37.3914   324.2243 </r>
       <r>     2.6216    37.0940   326.2514 </r>
       <r>     2.6763    67.3913   329.9341 </r>
       <r>     2.7309    77.2526   334.1557 </r>
       <r>     2.7856   103.0731   339.7884 </r>
       <r>     2.8402    98.9526   345.1958 </r>
       <r>     2.8949    80.4150   349.5903 </r>
       <r>     2.9495   102.2506   355.1780 </r>
       <r>     3.0042    88.2515   360.0007 </r>
       <r>     3.0588    92.3274   365.0461 </r>
       <r>     3.1135    87.8905   369.8490 </r>
       <r>     3.1681    67.5397   373.5399 </r>
       <r>     3.2227    94.6160   378.7103 </r>
       <r>     3.2774    87.3707   383.4849 </r>
       <r>     3.3320    94.8722   388.6694 </r>
       <r>     3.3867    84.9247   393.3102 </r>
       <r>     3.4413   100.7681   398.8169 </r>
       <r>     3.4960    81.3937   403.2648 </r>
       <r>     3.5506    94.9534   408.4538 </r>
       <r>     3.6053    79.1972   412.7817 </r>
       <r>     3.6599    69.0609   416.5557 </r>
       <r>     3.7146    64.5203   420.0815 </r>
       <r>     3.7692    86.9205   424.8315 </r>
       <r>     3.8239    80.1575   429.2118 </r>
       <r>     3.8785    81.2358   433.6511 </r>
       <r>     3.9332    79.1405   437.9759 </r>
       <r>     3.9878    70.0457   441.8037 </r>
       <r>     4.0424    63.0353   445.2484 </r>
       <r>     4.0971    60.3938   448.5488 </r>
       <r>     4.1517    65.0078   452.1012 </r>
       <r>     4.2064    74.7514   456.1862 </r>
       <r>     4.2610    76.2927   460.3553 </r>
       <r>     4.3157    79.3622   464.6923 </r>
       <r>     4.3703    64.0627   468.1931 </r>
       <r>     4.4250    69.2482   471.9773 </r>
       <r>     4.4796    69.7041   475.7864 </r>
       <r>     4.5343    68.4367   479.5263 </r>
       <r>     4.5889    50.7862   482.3016 </r>
       <r>     4.6436    58.5096   485.4990 </r>
       <r>     4.6982    51.5786   488.3176 </r>
       <r>     4.7529    42.6046   490.6458 </r>
       <r>     4.8075    27.1984   492.1321 </r>
       <r>     4.8621    18.4780   493.1419 </r>
       <r>     4.9168    39.2858   495.2887 </r>
       <r>     4.9714    21.9795   496.4898 </r>
       <r>     5.0261    29.4543   498.0994 </r>
       <r>     5.0807    39.8698   500.2782 </r>
       <r>     5.1354    27.3712   501.7739 </r>
       <r>     5.1900    21.8001   502.9652 </r>
       <r>     5.2447    11.1508   503.5746 </r>
       <r>     5.2993     8.9069   504.0613 </r>
       <r>     5.3540    15.9468   504.9327 </r>
       <r>     5.4086     7.7179   505.3545 </r>
       <r>     5.4633    27.0874   506.8347 </r>
       <r>     5.5179    30.7540   508.5154 </r>
       <r>     5.5726    14.2619   509.2947 </r>
       <r>     5.6272    20.2076   510.3990 </r>
       <r>     5.6818    15.5832   511.2506 </r>
       <r>     5.7365     4.5639   511.5000 </r>
       <r>     5.7911     4.0285   511.7201 </r>
       <r>     5.8458     0.5464   511.7500 </r>
       <r>     5.9004     4.5739   512.0000 </r>
       <r>     5.9551     0.0009   512.0000 </r>
       <r>     6.0097     0.0000   512.0000 </r>
       <r>     6.0644     0.6751   512.0369 </r>
       <r>     6.1190     8.4655   512.4995 </r>
       <r>     6.1737    15.3346   513.3375 </r>
       <r>     6.2283    12.8619   514.0404 </r>
       <r>     6.2830    13.0744   514.7549 </r>
       <r>     6.3376    24.4492   516.0909 </r>
       <r>     6.3923    22.7047   517.3317 </r>
       <r>     6.4469    26.4081   518.7748 </r>
       <r>     6.5016    14.9666   519.5927 </r>
       <r>     6.5562    21.6261   520.7745 </r>
       <r>     6.6108    27.6245   522.2841 </r>
       <r>     6.6655    17.5058   523.2407 </r>
       <r>     6.7201    29.4419   524.8496 </r>
       <r>     6.7748    35.7968   526.8058 </r>
       <r>     6.8294    29.1944   528.4012 </r>
       <r>     6.8841    33.6879   530.2422 </r>
       <r>     6.9387    37.4395   532.2881 </r>
       <r>     6.9934    43.8496   534.6844 </r>
       <r>     7.0480    41.6705   536.9616 </r>
       <r>     7.1027    26.2171   538.3942 </r>
       <r>     7.1573    25.9178   539.8106 </r>
       <r>     7.2120    31.4545   541.5295 </r>
       <r>     7.2666    66.4824   545.1625 </r>
       <r>     7.3213    69.9366   548.9843 </r>
       <r>     7.3759    75.3467   553.1018 </r>
       <r>     7.4305    83.9773   557.6909 </r>
       <r>     7.4852    88.1953   562.5105 </r>
       <r>     7.5398    83.9394   567.0975 </r>
       <r>     7.5945    80.3416   571.4880 </r>
       <r>     7.6491    86.2473   576.2011 </r>
       <r>     7.7038    88.1833   581.0201 </r>
       <r>     7.7584    88.9396   585.8804 </r>
       <r>     7.8131    91.5159   590.8814 </r>
       <r>     7.8677    98.7547   596.2781 </r>
       <r>     7.9224   100.8301   601.7881 </r>
       <r>     7.9770    77.5383   606.0254 </r>
       <r>     8.0317    87.8191   610.8244 </r>
       <r>     8.0863    83.3667   615.3802 </r>
       <r>     8.1410    90.7942   620.3418 </r>
       <r>     8.1956    75.4467   624.4647 </r>
       <r>     8.2502    78.2823   628.7426 </r>
       <r>     8.3049    81.8972   633.2180 </r>
       <r>     8.3595    93.6290   638.3346 </r>
       <r>     8.4142    68.2334   642.0633 </r>
       <r>     8.4688    21.7042   643.2494 </r>
       <r>     8.5235     4.5866   643.5001 </r>
       <r>     8.5781     4.5849   643.7506 </r>
       <r>     8.6328     4.5635   644.0000 </r>
       <r>     8.6874     0.0000   644.0000 </r>
       <r>     8.7421     0.0000   644.0000 </r>
       <r>     8.7967     0.0000   644.0000 </r>
       <r>     8.8514     0.0000   644.0000 </r>
       <r>     8.9060     0.0000   644.0000 </r>
       <r>     8.9607     0.0000   644.0000 </r>
       <r>     9.0153     0.0000   644.0000 </r>
       <r>     9.0699     0.0000   644.0000 </r>
       <r>     9.1246     0.0000   644.0000 </r>
       <r>     9.1792     0.0000   644.0000 </r>
       <r>     9.2339     0.0000   644.0000 </r>
       <r>     9.2885     0.0000   644.0000 </r>
       <r>     9.3432     0.0000   644.0000 </r>
      </set>
     </set>
    </array>
   </total>
  </dos>
 </calculation>
 <structure name="finalpos" >
  <crystal>
   <varray name="basis" >
    <v>       0.00000000      10.93733369      10.93733369 </v>
    <v>      10.93733369       0.00000000      10.93733369 </v>
    <v>      10.93733369      10.93733369       0.00000000 </v>
   </varray>
   <i name="volume">   2616.76295363 </i>
   <varray name="rec_basis" >
    <v>      -0.04571498       0.04571498       0.04571498 </v>
    <v>       0.04571498      -0.04571498       0.04571498 </v>
    <v>       0.04571498       0.04571498      -0.04571498 </v>
   </varray>
  </crystal>
  <varray name="positions" >
   <v>       0.99482174       0.99633383       0.99228731 </v>
   <v>       0.25423932       0.99738178       0.99638954 </v>
   <v>       0.50062741       0.00443794       0.99783207 </v>
   <v>       0.76237361       0.00278539       0.99166965 </v>
   <v>       0.00713600       0.24930992       0.98858844 </v>
   <v>       0.24297880       0.25769621       0.99336747 </v>
   <v>       0.49537092       0.25719689       0.99628295 </v>
   <v>       0.75016475       0.24704541       0.00259343 </v>
   <v>       0.99406824       0.49769441       0.00725561 </v>
   <v>       0.25284991       0.50759762       0.99371548 </v>
   <v>       0.50028327       0.50118153       0.99669939 </v>
   <v>       0.75984419       0.50629951       0.99171670 </v>
   <v>       0.00574162       0.74659697       0.99143520 </v>
   <v>       0.24413895       0.76092320       0.99500905 </v>
   <v>       0.49683343       0.74483485       0.99266998 </v>
   <v>       0.74951917       0.75379604       0.00099023 </v>
   <v>       0.00902079       0.98759823       0.25337655 </v>
   <v>       0.24647971       0.99827734       0.25464357 </v>
   <v>       0.50400764       0.99415592       0.24217516 </v>
   <v>       0.74179391       0.00994527       0.25047640 </v>
   <v>       0.00150057       0.24445299       0.24331144 </v>
   <v>       0.24842818       0.23860493       0.26141353 </v>
   <v>       0.50405783       0.24621856       0.24252004 </v>
   <v>       0.75098601       0.23162632       0.26139150 </v>
   <v>       0.99815482       0.49946083       0.24318043 </v>
   <v>       0.24932776       0.49724110       0.23618917 </v>
   <v>       0.49523510       0.49897041       0.24883765 </v>
   <v>       0.75393419       0.49266788       0.24417334 </v>
   <v>       0.99574225       0.75635981       0.24910476 </v>
   <v>       0.25691507       0.74203477       0.25164283 </v>
   <v>       0.50098517       0.74670349       0.25831566 </v>
   <v>       0.75248415       0.73353603       0.25619772 </v>
   <v>       0.98691121       0.00658302       0.50274365 </v>
   <v>       0.24243532       0.99660198       0.50829371 </v>
   <v>       0.49584413       0.99908929       0.50776000 </v>
   <v>       0.73641693       0.01385253       0.50207510 </v>
   <v>       0.99974718       0.24892530       0.49385480 </v>
   <v>       0.24032891       0.25572881       0.49830552 </v>
   <v>       0.49481020       0.25971823       0.49340402 </v>
   <v>       0.74692607       0.26436739       0.49346640 </v>
   <v>       0.00319075       0.49627122       0.50155202 </v>
   <v>       0.25179074       0.49724316       0.50677360 </v>
   <v>       0.50003015       0.50535992       0.48716175 </v>
   <v>       0.75033906       0.49635423       0.50266766 </v>
   <v>       0.00521458       0.74412123       0.49777744 </v>
   <v>       0.24197492       0.75010041       0.49932403 </v>
   <v>       0.49828540       0.75225259       0.49350086 </v>
   <v>       0.74647094       0.74763676       0.50282493 </v>
   <v>       0.00323015       0.99284670       0.75593655 </v>
   <v>       0.24090380       0.99214087       0.75905804 </v>
   <v>       0.50234325       0.01001878       0.74980082 </v>
   <v>       0.75237806       0.01213790       0.74048065 </v>
   <v>       0.99154328       0.24767381       0.76575610 </v>
   <v>       0.25389695       0.24332900       0.75053002 </v>
   <v>       0.50233936       0.25027638       0.74469337 </v>
   <v>       0.76244586       0.24585963       0.74400941 </v>
   <v>       0.00377109       0.49685800       0.75884859 </v>
   <v>       0.24532839       0.50698517       0.75079877 </v>
   <v>       0.50719371       0.50029906       0.74254538 </v>
   <v>       0.74185900       0.49480147       0.75668440 </v>
   <v>       0.99407890       0.75236380       0.74184138 </v>
   <v>       0.25628178       0.75255665       0.74655029 </v>
   <v>       0.49753774       0.74842131       0.75175979 </v>
   <v>       0.75133225       0.74948827       0.74418128 </v>
   <v>       0.06813983       0.06776169       0.05813394 </v>
   <v>       0.32195954       0.06899465       0.04875174 </v>
   <v>       0.56287104       0.06232780       0.06459143 </v>
   <v>       0.82433220       0.04962731       0.06078968 </v>
   <v>       0.06141295       0.31850971       0.06732194 </v>
   <v>       0.30778495       0.31520656       0.06074878 </v>
   <v>       0.55846082       0.32094041       0.04836350 </v>
   <v>       0.80883956       0.31983732       0.06515456 </v>
   <v>       0.05843987       0.56369681       0.05320782 </v>
   <v>       0.32459944       0.55522874       0.06733016 </v>
   <v>       0.56795519       0.57155372       0.05605225 </v>
   <v>       0.81399785       0.55261309       0.06512252 </v>
   <v>       0.05409142       0.81380990       0.07006443 </v>
   <v>       0.31775180       0.80944465       0.07198197 </v>
   <v>       0.55227885       0.82327696       0.06241657 </v>
   <v>       0.80049051       0.82192745       0.06041014 </v>
   <v>       0.06860066       0.06073156       0.30518761 </v>
   <v>       0.32423068       0.05364297       0.30233522 </v>
   <v>       0.56355572       0.06248546       0.32375008 </v>
   <v>       0.81267044       0.05670059       0.31290275 </v>
   <v>       0.07517380       0.32320588       0.29802352 </v>
   <v>       0.31344549       0.29492481       0.32170233 </v>
   <v>       0.56652963       0.30973121       0.30808421 </v>
   <v>       0.80498453       0.31831111       0.32107929 </v>
   <v>       0.05552619       0.56130315       0.30921664 </v>
   <v>       0.31074858       0.56323723       0.28894405 </v>
   <v>       0.58235048       0.54156113       0.31177068 </v>
   <v>       0.80530916       0.55214031       0.32060919 </v>
   <v>       0.05299295       0.81582909       0.31438266 </v>
   <v>       0.32122797       0.81168864       0.30722696 </v>
   <v>       0.55618594       0.81262684       0.31832389 </v>
   <v>       0.79865671       0.81009949       0.31720453 </v>
   <v>       0.05925245       0.07039288       0.56506416 </v>
   <v>       0.31451802       0.06238612       0.56797227 </v>
   <v>       0.55866062       0.06266804       0.56316794 </v>
   <v>       0.81233537       0.05866932       0.56159755 </v>
   <v>       0.06604514       0.30099167       0.56387693 </v>
   <v>       0.31339750       0.31329770       0.56637454 </v>
   <v>       0.56369667       0.30521092       0.55800257 </v>
   <v>       0.81093522       0.30528572       0.56501356 </v>
   <v>       0.06539120       0.56084604       0.56400823 </v>
   <v>       0.32002870       0.56953680       0.55680279 </v>
   <v>       0.56042094       0.56570780       0.55393246 </v>
   <v>       0.82322770       0.54665193       0.57355024 </v>
   <v>       0.05764626       0.81687880       0.56268940 </v>
   <v>       0.31554900       0.80271499       0.55860414 </v>
   <v>       0.55556887       0.80279754       0.56699368 </v>
   <v>       0.81696764       0.80546170       0.56926880 </v>
   <v>       0.07058919       0.05734724       0.80990244 </v>
   <v>       0.31600405       0.05731265       0.81112023 </v>
   <v>       0.56744310       0.04789091       0.82030558 </v>
   <v>       0.80086490       0.06599974       0.81721380 </v>
   <v>       0.05262211       0.32401549       0.81783617 </v>
   <v>       0.31191616       0.32013935       0.81796411 </v>
   <v>       0.56189533       0.32001537       0.81687270 </v>
   <v>       0.81084525       0.32286149       0.80663443 </v>
   <v>       0.06598062       0.55960545       0.81883614 </v>
   <v>       0.31669216       0.56151887       0.80764776 </v>
   <v>       0.55836050       0.55993279       0.81717593 </v>
   <v>       0.80655570       0.56170572       0.81223443 </v>
   <v>       0.06183994       0.80844323       0.81744528 </v>
   <v>       0.30827521       0.81657156       0.80962761 </v>
   <v>       0.56801157       0.81281765       0.80432026 </v>
   <v>       0.81767475       0.80937530       0.81598641 </v>
  </varray>
 </structure>
</modeling>
