potpaw_PBE@./ARUN.APL1ZEROSTATE         
           1
     0.000000   10.937334   10.937334
    10.937334    0.000000   10.937334
    10.937334   10.937334    0.000000
   Si
 128
Direct configuration=     1
   0.99482174  0.99633383  0.99228731
   0.25423932  0.99738178  0.99638954
   0.50062741  0.00443794  0.99783207
   0.76237361  0.00278539  0.99166965
   0.00713600  0.24930992  0.98858844
   0.24297880  0.25769621  0.99336747
   0.49537092  0.25719689  0.99628295
   0.75016475  0.24704541  0.00259343
   0.99406824  0.49769441  0.00725561
   0.25284991  0.50759762  0.99371548
   0.50028327  0.50118153  0.99669939
   0.75984419  0.50629951  0.99171670
   0.00574162  0.74659697  0.99143520
   0.24413895  0.76092320  0.99500905
   0.49683343  0.74483485  0.99266998
   0.74951917  0.75379604  0.00099023
   0.00902079  0.98759823  0.25337655
   0.24647971  0.99827734  0.25464357
   0.50400764  0.99415592  0.24217516
   0.74179391  0.00994527  0.25047640
   0.00150057  0.24445299  0.24331144
   0.24842818  0.23860493  0.26141353
   0.50405783  0.24621856  0.24252004
   0.75098601  0.23162632  0.26139150
   0.99815482  0.49946083  0.24318043
   0.24932776  0.49724110  0.23618917
   0.49523510  0.49897041  0.24883765
   0.75393419  0.49266788  0.24417334
   0.99574225  0.75635981  0.24910476
   0.25691507  0.74203477  0.25164283
   0.50098517  0.74670349  0.25831566
   0.75248415  0.73353603  0.25619772
   0.98691121  0.00658302  0.50274365
   0.24243532  0.99660198  0.50829371
   0.49584413  0.99908929  0.50776000
   0.73641693  0.01385253  0.50207510
   0.99974718  0.24892530  0.49385480
   0.24032891  0.25572881  0.49830552
   0.49481020  0.25971823  0.49340402
   0.74692607  0.26436739  0.49346640
   0.00319075  0.49627122  0.50155202
   0.25179074  0.49724316  0.50677360
   0.50003015  0.50535992  0.48716175
   0.75033906  0.49635423  0.50266766
   0.00521458  0.74412123  0.49777744
   0.24197492  0.75010041  0.49932403
   0.49828540  0.75225259  0.49350086
   0.74647094  0.74763676  0.50282493
   0.00323015  0.99284670  0.75593655
   0.24090380  0.99214087  0.75905804
   0.50234325  0.01001878  0.74980082
   0.75237806  0.01213790  0.74048065
   0.99154328  0.24767381  0.76575610
   0.25389695  0.24332900  0.75053002
   0.50233936  0.25027638  0.74469337
   0.76244586  0.24585963  0.74400941
   0.00377109  0.49685800  0.75884859
   0.24532839  0.50698517  0.75079877
   0.50719371  0.50029906  0.74254538
   0.74185900  0.49480147  0.75668440
   0.99407890  0.75236380  0.74184138
   0.25628178  0.75255665  0.74655029
   0.49753774  0.74842131  0.75175979
   0.75133225  0.74948827  0.74418128
   0.06813983  0.06776169  0.05813394
   0.32195954  0.06899465  0.04875174
   0.56287104  0.06232780  0.06459143
   0.82433220  0.04962731  0.06078968
   0.06141295  0.31850971  0.06732194
   0.30778495  0.31520656  0.06074878
   0.55846082  0.32094041  0.04836350
   0.80883956  0.31983732  0.06515456
   0.05843987  0.56369681  0.05320782
   0.32459944  0.55522874  0.06733016
   0.56795519  0.57155372  0.05605225
   0.81399785  0.55261309  0.06512252
   0.05409142  0.81380990  0.07006443
   0.31775180  0.80944465  0.07198197
   0.55227885  0.82327696  0.06241657
   0.80049051  0.82192745  0.06041014
   0.06860066  0.06073156  0.30518761
   0.32423068  0.05364297  0.30233522
   0.56355572  0.06248546  0.32375008
   0.81267044  0.05670059  0.31290275
   0.07517380  0.32320588  0.29802352
   0.31344549  0.29492481  0.32170233
   0.56652963  0.30973121  0.30808421
   0.80498453  0.31831111  0.32107929
   0.05552619  0.56130315  0.30921664
   0.31074858  0.56323723  0.28894405
   0.58235048  0.54156113  0.31177068
   0.80530916  0.55214031  0.32060919
   0.05299295  0.81582909  0.31438266
   0.32122797  0.81168864  0.30722696
   0.55618594  0.81262684  0.31832389
   0.79865671  0.81009949  0.31720453
   0.05925245  0.07039288  0.56506416
   0.31451802  0.06238612  0.56797227
   0.55866062  0.06266804  0.56316794
   0.81233537  0.05866932  0.56159755
   0.06604514  0.30099167  0.56387693
   0.31339750  0.31329770  0.56637454
   0.56369667  0.30521092  0.55800257
   0.81093522  0.30528572  0.56501356
   0.06539120  0.56084604  0.56400823
   0.32002870  0.56953680  0.55680279
   0.56042094  0.56570780  0.55393246
   0.82322770  0.54665193  0.57355024
   0.05764626  0.81687880  0.56268940
   0.31554900  0.80271499  0.55860414
   0.55556887  0.80279754  0.56699368
   0.81696764  0.80546170  0.56926880
   0.07058919  0.05734724  0.80990244
   0.31600405  0.05731265  0.81112023
   0.56744310  0.04789091  0.82030558
   0.80086490  0.06599974  0.81721380
   0.05262211  0.32401549  0.81783617
   0.31191616  0.32013935  0.81796411
   0.56189533  0.32001537  0.81687270
   0.81084525  0.32286149  0.80663443
   0.06598062  0.55960545  0.81883614
   0.31669216  0.56151887  0.80764776
   0.55836050  0.55993279  0.81717593
   0.80655570  0.56170572  0.81223443
   0.06183994  0.80844323  0.81744528
   0.30827521  0.81657156  0.80962761
   0.56801157  0.81281765  0.80432026
   0.81767475  0.80937530  0.81598641
