 128 128   0   0
  0.2044346E+02  0.1546773E-08  0.1546773E-08  0.1546773E-08  0.5000000E-15
  1.000000000000000E-004
  CAR 
 potpaw_PBE@./ARUN.APL1ZEROSTATE         
      9.32850690     -7.04166259  301      5.90441311      1.00000000
     -7.042  0.0000E+00  0.0000E+00
     -6.987  0.0000E+00  0.0000E+00
     -6.933  0.0000E+00  0.0000E+00
     -6.878  0.0000E+00  0.0000E+00
     -6.823  0.0000E+00  0.0000E+00
     -6.769  0.0000E+00  0.0000E+00
     -6.714  0.0000E+00  0.0000E+00
     -6.660  0.0000E+00  0.0000E+00
     -6.605  0.0000E+00  0.0000E+00
     -6.551  0.0000E+00  0.0000E+00
     -6.496  0.0000E+00  0.0000E+00
     -6.441  0.0000E+00  0.0000E+00
     -6.387  0.0000E+00  0.0000E+00
     -6.332  0.2078E-05  0.1134E-06
     -6.278  0.4570E+01  0.2494E+00
     -6.223  0.1148E-01  0.2500E+00
     -6.169  0.1615E-03  0.2500E+00
     -6.114  0.1500E+02  0.1068E+01
     -6.059  0.3026E+02  0.2720E+01
     -6.005  0.1429E+02  0.3499E+01
     -5.950  0.4591E+01  0.3750E+01
     -5.896  0.4832E-11  0.3750E+01
     -5.841  0.7146E+01  0.4140E+01
     -5.787  0.2217E+02  0.5350E+01
     -5.732  0.1560E+02  0.6201E+01
     -5.677  0.2222E+02  0.7414E+01
     -5.623  0.3586E+02  0.9371E+01
     -5.568  0.3790E+02  0.1144E+02
     -5.514  0.3225E+02  0.1320E+02
     -5.459  0.1473E+02  0.1400E+02
     -5.405  0.9659E+01  0.1453E+02
     -5.350  0.4046E+01  0.1475E+02
     -5.296  0.8664E+01  0.1522E+02
     -5.241  0.1128E+01  0.1528E+02
     -5.186  0.3024E+02  0.1693E+02
     -5.132  0.4265E+02  0.1926E+02
     -5.077  0.5061E+02  0.2202E+02
     -5.023  0.4500E+02  0.2448E+02
     -4.968  0.2991E+02  0.2611E+02
     -4.914  0.2327E+02  0.2738E+02
     -4.859  0.2851E+02  0.2894E+02
     -4.804  0.1843E+02  0.2994E+02
     -4.750  0.1383E+02  0.3070E+02
     -4.695  0.4317E+02  0.3305E+02
     -4.641  0.4825E+02  0.3569E+02
     -4.586  0.3641E+02  0.3767E+02
     -4.532  0.3644E+02  0.3966E+02
     -4.477  0.3376E+02  0.4150E+02
     -4.422  0.1812E+02  0.4249E+02
     -4.368  0.1887E+02  0.4352E+02
     -4.313  0.3146E+02  0.4524E+02
     -4.259  0.3419E+02  0.4710E+02
     -4.204  0.4453E+02  0.4953E+02
     -4.150  0.5964E+02  0.5279E+02
     -4.095  0.5118E+02  0.5558E+02
     -4.040  0.5304E+02  0.5848E+02
     -3.986  0.5353E+02  0.6140E+02
     -3.931  0.6019E+02  0.6468E+02
     -3.877  0.4917E+02  0.6736E+02
     -3.822  0.5524E+02  0.7038E+02
     -3.768  0.4523E+02  0.7285E+02
     -3.713  0.4852E+02  0.7549E+02
     -3.658  0.4433E+02  0.7791E+02
     -3.604  0.3389E+02  0.7976E+02
     -3.549  0.2680E+02  0.8123E+02
     -3.495  0.2976E+02  0.8285E+02
     -3.440  0.6318E+02  0.8630E+02
     -3.386  0.5325E+02  0.8920E+02
     -3.331  0.5553E+02  0.9223E+02
     -3.277  0.4916E+02  0.9492E+02
     -3.222  0.3647E+02  0.9691E+02
     -3.167  0.2681E+02  0.9837E+02
     -3.113  0.3929E+02  0.1005E+03
     -3.058  0.4615E+02  0.1030E+03
     -3.004  0.5541E+02  0.1061E+03
     -2.949  0.3320E+02  0.1079E+03
     -2.895  0.3509E+02  0.1098E+03
     -2.840  0.3052E+02  0.1114E+03
     -2.785  0.3154E+02  0.1132E+03
     -2.731  0.3666E+02  0.1152E+03
     -2.676  0.4232E+02  0.1175E+03
     -2.622  0.3218E+02  0.1192E+03
     -2.567  0.3068E+02  0.1209E+03
     -2.513  0.2459E+02  0.1222E+03
     -2.458  0.8933E+01  0.1227E+03
     -2.403  0.2426E+00  0.1228E+03
     -2.349  0.4556E+01  0.1230E+03
     -2.294  0.5935E+01  0.1233E+03
     -2.240  0.1342E+02  0.1241E+03
     -2.185  0.2595E+02  0.1255E+03
     -2.131  0.2250E+02  0.1267E+03
     -2.076  0.3097E+02  0.1284E+03
     -2.021  0.2477E+02  0.1297E+03
     -1.967  0.2090E+02  0.1309E+03
     -1.912  0.1815E+02  0.1319E+03
     -1.858  0.1557E+02  0.1327E+03
     -1.803  0.9142E+01  0.1332E+03
     -1.749  0.5551E+00  0.1332E+03
     -1.694  0.1982E-02  0.1333E+03
     -1.640  0.1003E+02  0.1338E+03
     -1.585  0.4033E+02  0.1360E+03
     -1.530  0.2592E+02  0.1374E+03
     -1.476  0.3357E+02  0.1392E+03
     -1.421  0.4080E+02  0.1415E+03
     -1.367  0.3940E+02  0.1436E+03
     -1.312  0.4672E+02  0.1462E+03
     -1.258  0.6442E+02  0.1497E+03
     -1.203  0.6032E+02  0.1530E+03
     -1.148  0.6104E+02  0.1563E+03
     -1.094  0.5967E+02  0.1596E+03
     -1.039  0.6461E+02  0.1631E+03
     -0.985  0.6762E+02  0.1668E+03
     -0.930  0.6487E+02  0.1703E+03
     -0.876  0.7038E+02  0.1742E+03
     -0.821  0.5784E+02  0.1773E+03
     -0.766  0.6498E+02  0.1809E+03
     -0.712  0.4298E+02  0.1832E+03
     -0.657  0.3240E+02  0.1850E+03
     -0.603  0.3702E+02  0.1870E+03
     -0.548  0.4171E+02  0.1893E+03
     -0.494  0.2669E+02  0.1907E+03
     -0.439  0.1434E+02  0.1915E+03
     -0.384  0.3246E+02  0.1933E+03
     -0.330  0.3492E+02  0.1952E+03
     -0.275  0.6303E+02  0.1986E+03
     -0.221  0.5253E+02  0.2015E+03
     -0.166  0.4922E+02  0.2042E+03
     -0.112  0.4182E+02  0.2065E+03
     -0.057  0.3903E+02  0.2086E+03
     -0.002  0.3342E+02  0.2104E+03
      0.052  0.4358E+02  0.2128E+03
      0.107  0.1503E+02  0.2136E+03
      0.161  0.9686E+01  0.2141E+03
      0.216  0.9912E+01  0.2147E+03
      0.270  0.5118E+01  0.2150E+03
      0.325  0.3735E+02  0.2170E+03
      0.379  0.2317E+02  0.2183E+03
      0.434  0.3048E+02  0.2199E+03
      0.489  0.2861E+02  0.2215E+03
      0.543  0.1767E+02  0.2224E+03
      0.598  0.2189E+02  0.2236E+03
      0.652  0.1683E+02  0.2246E+03
      0.707  0.2309E+02  0.2258E+03
      0.761  0.1659E+02  0.2267E+03
      0.816  0.6760E+01  0.2271E+03
      0.871  0.1199E+02  0.2277E+03
      0.925  0.1584E+02  0.2286E+03
      0.980  0.2191E+02  0.2298E+03
      1.034  0.2999E+02  0.2314E+03
      1.089  0.3527E+02  0.2334E+03
      1.143  0.2493E+02  0.2347E+03
      1.198  0.1393E+02  0.2355E+03
      1.253  0.3140E+02  0.2372E+03
      1.307  0.2121E+02  0.2384E+03
      1.362  0.3488E+02  0.2403E+03
      1.416  0.2980E+02  0.2419E+03
      1.471  0.7503E+02  0.2460E+03
      1.525  0.8492E+02  0.2506E+03
      1.580  0.8387E+02  0.2552E+03
      1.635  0.7886E+02  0.2595E+03
      1.689  0.7766E+02  0.2637E+03
      1.744  0.5009E+02  0.2665E+03
      1.798  0.5959E+02  0.2697E+03
      1.853  0.3900E+02  0.2718E+03
      1.907  0.2240E+02  0.2731E+03
      1.962  0.2006E+02  0.2742E+03
      2.016  0.2435E+02  0.2755E+03
      2.071  0.6303E+02  0.2789E+03
      2.126  0.9037E+02  0.2839E+03
      2.180  0.1086E+03  0.2898E+03
      2.235  0.1278E+03  0.2968E+03
      2.289  0.1149E+03  0.3030E+03
      2.344  0.1229E+03  0.3097E+03
      2.398  0.1073E+03  0.3156E+03
      2.453  0.7419E+02  0.3196E+03
      2.508  0.3922E+02  0.3218E+03
      2.562  0.3825E+02  0.3239E+03
      2.617  0.3030E+02  0.3255E+03
      2.671  0.6600E+02  0.3291E+03
      2.726  0.7590E+02  0.3333E+03
      2.780  0.9052E+02  0.3382E+03
      2.835  0.9773E+02  0.3435E+03
      2.890  0.9164E+02  0.3485E+03
      2.944  0.9642E+02  0.3538E+03
      2.999  0.9215E+02  0.3588E+03
      3.053  0.1059E+03  0.3646E+03
      3.108  0.8268E+02  0.3691E+03
      3.162  0.6438E+02  0.3726E+03
      3.217  0.8480E+02  0.3773E+03
      3.272  0.1025E+03  0.3829E+03
      3.326  0.9492E+02  0.3880E+03
      3.381  0.9501E+02  0.3932E+03
      3.435  0.7860E+02  0.3975E+03
      3.490  0.8742E+02  0.4023E+03
      3.544  0.9847E+02  0.4077E+03
      3.599  0.6959E+02  0.4115E+03
      3.654  0.6606E+02  0.4151E+03
      3.708  0.6683E+02  0.4187E+03
      3.763  0.9758E+02  0.4240E+03
      3.817  0.8529E+02  0.4287E+03
      3.872  0.1006E+03  0.4342E+03
      3.926  0.8319E+02  0.4387E+03
      3.981  0.4833E+02  0.4413E+03
      4.035  0.6126E+02  0.4447E+03
      4.090  0.5368E+02  0.4476E+03
      4.145  0.8187E+02  0.4521E+03
      4.199  0.7349E+02  0.4561E+03
      4.254  0.6306E+02  0.4595E+03
      4.308  0.7400E+02  0.4636E+03
      4.363  0.7877E+02  0.4679E+03
      4.417  0.7008E+02  0.4717E+03
      4.472  0.7517E+02  0.4758E+03
      4.527  0.7472E+02  0.4799E+03
      4.581  0.7107E+02  0.4838E+03
      4.636  0.5546E+02  0.4868E+03
      4.690  0.5154E+02  0.4896E+03
      4.745  0.1769E+02  0.4906E+03
      4.799  0.3065E+02  0.4922E+03
      4.854  0.1771E+02  0.4932E+03
      4.909  0.3579E+02  0.4952E+03
      4.963  0.4814E+02  0.4978E+03
      5.018  0.3844E+02  0.4999E+03
      5.072  0.3834E+02  0.5020E+03
      5.127  0.2386E+02  0.5033E+03
      5.181  0.8950E+01  0.5038E+03
      5.236  0.7213E+01  0.5042E+03
      5.291  0.6329E+01  0.5045E+03
      5.345  0.6623E+01  0.5049E+03
      5.400  0.2546E+02  0.5063E+03
      5.454  0.3115E+02  0.5080E+03
      5.509  0.2663E+02  0.5094E+03
      5.563  0.6439E+01  0.5098E+03
      5.618  0.1045E+02  0.5103E+03
      5.673  0.1698E+02  0.5113E+03
      5.727  0.4558E+01  0.5115E+03
      5.782  0.4581E+01  0.5117E+03
      5.836  0.4329E+01  0.5120E+03
      5.891  0.2521E+00  0.5120E+03
      5.945  0.0000E+00  0.5120E+03
      6.000  0.0000E+00  0.5120E+03
      6.054  0.0000E+00  0.5120E+03
      6.109  0.3038E-04  0.5120E+03
      6.164  0.1644E+02  0.5129E+03
      6.218  0.1990E+02  0.5140E+03
      6.273  0.5513E+01  0.5143E+03
      6.327  0.2094E+02  0.5154E+03
      6.382  0.1822E+02  0.5164E+03
      6.436  0.2714E+02  0.5179E+03
      6.491  0.3383E+02  0.5197E+03
      6.546  0.3052E+02  0.5214E+03
      6.600  0.5427E+01  0.5217E+03
      6.655  0.1724E+02  0.5227E+03
      6.709  0.2219E+02  0.5239E+03
      6.764  0.3372E+02  0.5257E+03
      6.818  0.4108E+02  0.5279E+03
      6.873  0.2595E+02  0.5294E+03
      6.928  0.3587E+02  0.5313E+03
      6.982  0.3675E+02  0.5333E+03
      7.037  0.4690E+02  0.5359E+03
      7.091  0.3852E+02  0.5380E+03
      7.146  0.2323E+02  0.5393E+03
      7.200  0.2494E+02  0.5406E+03
      7.255  0.5641E+02  0.5437E+03
      7.310  0.6941E+02  0.5475E+03
      7.364  0.8322E+02  0.5520E+03
      7.419  0.7599E+02  0.5562E+03
      7.473  0.8837E+02  0.5610E+03
      7.528  0.8163E+02  0.5654E+03
      7.582  0.7725E+02  0.5697E+03
      7.637  0.8240E+02  0.5742E+03
      7.691  0.7949E+02  0.5785E+03
      7.746  0.9303E+02  0.5836E+03
      7.801  0.8773E+02  0.5884E+03
      7.855  0.1034E+03  0.5940E+03
      7.910  0.9831E+02  0.5994E+03
      7.964  0.9046E+02  0.6043E+03
      8.019  0.1038E+03  0.6100E+03
      8.073  0.8872E+02  0.6148E+03
      8.128  0.5276E+02  0.6177E+03
      8.183  0.8190E+02  0.6222E+03
      8.237  0.8829E+02  0.6270E+03
      8.292  0.8942E+02  0.6318E+03
      8.346  0.7019E+02  0.6357E+03
      8.401  0.8195E+02  0.6402E+03
      8.455  0.4874E+02  0.6428E+03
      8.510  0.8049E+01  0.6432E+03
      8.565  0.4998E+01  0.6435E+03
      8.619  0.8747E+01  0.6440E+03
      8.674  0.0000E+00  0.6440E+03
      8.728  0.0000E+00  0.6440E+03
      8.783  0.0000E+00  0.6440E+03
      8.837  0.0000E+00  0.6440E+03
      8.892  0.0000E+00  0.6440E+03
      8.947  0.0000E+00  0.6440E+03
      9.001  0.0000E+00  0.6440E+03
      9.056  0.0000E+00  0.6440E+03
      9.110  0.0000E+00  0.6440E+03
      9.165  0.0000E+00  0.6440E+03
      9.219  0.0000E+00  0.6440E+03
      9.274  0.0000E+00  0.6440E+03
      9.329  0.0000E+00  0.6440E+03
