 vasp.5.4.4.18Apr17-6-g9f103f2a35 (build Nov 08 2017 09:05:29) complex          
  
 executed on          Intel_17.33 date 2020.07.18  23:04:35
 running on   32 total cores
 distrk:  each k-point on   32 cores,    1 groups
 distr:  one band on NCORES_PER_BAND=  16 cores,    2 groups


--------------------------------------------------------------------------------------------------------


 INCAR:
 POTCAR:   PAW_PBE Si 05Jan2001                   

 ----------------------------------------------------------------------------- 
|                                                                             |
|           W    W    AA    RRRRR   N    N  II  N    N   GGGG   !!!           |
|           W    W   A  A   R    R  NN   N  II  NN   N  G    G  !!!           |
|           W    W  A    A  R    R  N N  N  II  N N  N  G       !!!           |
|           W WW W  AAAAAA  RRRRR   N  N N  II  N  N N  G  GGG   !            |
|           WW  WW  A    A  R   R   N   NN  II  N   NN  G    G                |
|           W    W  A    A  R    R  N    N  II  N    N   GGGG   !!!           |
|                                                                             |
|      For optimal performance we recommend to set                            |
|        NCORE= 4 - approx SQRT( number of cores)                             |
|      NCORE specifies how many cores store one orbital (NPAR=cpu/NCORE).     |
|      This setting can  greatly improve the performance of VASP for DFT.     |
|      The default,   NCORE=1            might be grossly inefficient         |
|      on modern multi-core architectures or massively parallel machines.     |
|      Do your own testing !!!!                                               |
|      Unfortunately you need to use the default for GW and RPA calculations. |
|      (for HF NCORE is supported but not extensively tested yet)             |
|                                                                             |
 ----------------------------------------------------------------------------- 

 POTCAR:   PAW_PBE Si 05Jan2001                   
   VRHFIN =Si: s2p2                                                             
   LEXCH  = PE                                                                  
   EATOM  =   103.0669 eV,    7.5752 Ry                                         
                                                                                
   TITEL  = PAW_PBE Si 05Jan2001                                                
   LULTRA =        F    use ultrasoft PP ?                                      
   IUNSCR =        1    unscreen: 0-lin 1-nonlin 2-no                           
   RPACOR =    1.500    partial core radius                                     
   POMASS =   28.085; ZVAL   =    4.000    mass and valenz                      
   RCORE  =    1.900    outmost cutoff radius                                   
   RWIGS  =    2.480; RWIGS  =    1.312    wigner-seitz radius (au A)           
   ENMAX  =  245.345; ENMIN  =  184.009 eV                                      
   ICORE  =        2    local potential                                         
   LCOR   =        T    correct aug charges                                     
   LPAW   =        T    paw PP                                                  
   EAUG   =  322.069                                                            
   DEXC   =    -.007                                                            
   RMAX   =    2.944    core radius for proj-oper                               
   RAUG   =    1.300    factor for augmentation sphere                          
   RDEP   =    1.993    radius for radial grids                                 
   QCUT   =   -4.246; QGAM   =    8.493    optimization parameters              
                                                                                
   Description                                                                  
     l     E      TYP  RCUT    TYP  RCUT                                        
     0   .000     23  1.900                                                     
     0   .000     23  1.900                                                     
     1   .000     23  1.900                                                     
     1   .000     23  1.900                                                     
     2   .000      7  1.900                                                     
  local pseudopotential read in
  partial core-charges read in
  atomic valenz-charges read in
  non local Contribution for L=           0  read in
    real space projection operators read in
  non local Contribution for L=           0  read in
    real space projection operators read in
  non local Contribution for L=           1  read in
    real space projection operators read in
  non local Contribution for L=           1  read in
    real space projection operators read in
    PAW grid and wavefunctions read in
 
   number of l-projection  operators is LMAX  =           4
   number of lm-projection operators is LMMAX =           8
 

 ----------------------------------------------------------------------------- 
|                                                                             |
|  ADVICE TO THIS USER RUNNING 'VASP/VAMP'   (HEAR YOUR MASTER'S VOICE ...):  |
|                                                                             |
|      You have a (more or less) 'large supercell' and for larger cells       |
|      it might be more efficient to use real space projection operators      |
|      So try LREAL= Auto  in the INCAR   file.                               |
|      Mind: If you want to do a very accurate calculations keep the          |
|      reciprocal projection scheme          (i.e. LREAL=.FALSE.)             |
|                                                                             |
 ----------------------------------------------------------------------------- 

 PAW_PBE Si 05Jan2001                   :
 energy of atom  1       EATOM= -103.0669
 kinetic energy error for atom=    0.0006 (will be added to EATOM!!)
 
 
 POSCAR: kk                                      
  positions in direct lattice
  No initial velocities read in
 exchange correlation table for  LEXCH =        8
   RHO(1)=    0.500       N(1)  =     2000
   RHO(2)=  100.500       N(2)  =     4000
 


--------------------------------------------------------------------------------------------------------


 ion  position               nearest neighbor table
   1  0.995  0.000  1.000-  68 2.23  77 2.29 113 2.39  65 2.40
   2  0.251  0.993  0.986- 114 2.24  65 2.26  78 2.31  66 2.56
   3  0.497  0.000  0.009-  66 2.25  79 2.28  67 2.32 115 2.36
   4  0.760  0.998  0.998-  68 2.30  67 2.38 116 2.39  80 2.39
   5  0.995  0.246  0.008-  72 2.32  69 2.44 117 2.45  65 2.53
   6  0.253  0.257  0.992-  70 2.25 118 2.32  69 2.35  66 2.52
   7  0.506  0.256  0.995-  71 2.31 119 2.34  67 2.51  70 2.56
   8  0.746  0.260  0.985- 120 2.22  71 2.33  72 2.35  68 2.50
   9  0.003  0.505  0.993- 121 2.19  73 2.38  69 2.39  76 2.42
  10  0.243  0.497  0.003-  70 2.29  73 2.32 122 2.34  74 2.42
  11  0.495  0.511  0.987- 123 2.23  74 2.33  71 2.43  75 2.46
  12  0.742  0.499  0.005-  75 2.24  72 2.37  76 2.37 124 2.46
  13  0.004  0.751  0.991- 125 2.20  73 2.40  80 2.45  77 2.59
  14  0.247  0.750  0.004-  77 2.31  74 2.35  78 2.36 126 2.44
  15  0.510  0.746  0.997- 127 2.26  79 2.33  75 2.34  78 2.44
  16  0.741  0.756  0.997-  79 2.21  76 2.41  80 2.45 128 2.47
  17  1.000  0.997  0.241-  65 2.23  93 2.25  84 2.40  81 2.43
  18  0.265  0.005  0.234-  66 2.25  82 2.33  94 2.45  81 2.64
  19  0.499  0.002  0.251-  83 2.33  95 2.37  67 2.41  82 2.47
  20  0.752  0.005  0.239-  68 2.31  84 2.33  83 2.47  96 2.50
  21  0.001  0.242  0.247-  81 2.32  69 2.38  88 2.51  85 2.59
  22  0.249  0.260  0.254-  85 2.27  82 2.28  86 2.35  70 2.47
  23  0.490  0.247  0.266-  86 2.14  87 2.38  83 2.41  71 2.60
  24  0.752  0.246  0.254-  84 2.25  87 2.31  88 2.35  72 2.53
  25  0.999  0.510  0.248-  73 2.25  85 2.36  89 2.39  92 2.39
  26  0.250  0.502  0.261-  90 2.19  89 2.34  86 2.36  74 2.55
  27  0.513  0.493  0.243-  91 2.27  75 2.30  87 2.32  90 2.52
  28  0.758  0.502  0.236-  88 2.24  76 2.27  92 2.36  91 2.42
  29  0.006  0.737  0.257-  89 2.21  96 2.29  77 2.41  93 2.43
  30  0.253  0.758  0.252-  94 2.28  78 2.43  93 2.47  90 2.56
  31  0.499  0.751  0.249-  94 2.25  95 2.31  91 2.40  79 2.51
  32  0.750  0.753  0.248-  80 2.27  96 2.39  92 2.42  95 2.46
  33  1.000  0.000  0.509-  97 2.23 109 2.36 100 2.45  81 2.45
  34  0.257  0.998  0.488-  98 2.34  82 2.36 110 2.40  97 2.53
  35  0.497  0.992  0.514- 111 2.17  98 2.24  99 2.35  83 2.42
  36  0.754  0.002  0.487-  99 2.26  84 2.33 112 2.37 100 2.47
  37  0.997  0.247  0.504- 104 2.41 101 2.44  97 2.49  85 2.57
  38  0.248  0.262  0.499- 102 2.32  86 2.36 101 2.43  98 2.68
  39  0.498  0.261  0.489-  87 2.26 103 2.43 102 2.52  99 2.55
  40  0.750  0.239  0.499- 103 2.25 100 2.25  88 2.42 104 2.53
  41  0.990  0.501  0.493- 108 2.21  89 2.22 101 2.25 105 2.61
  42  0.249  0.504  0.501- 105 2.16 102 2.27 106 2.30  90 2.32
  43  0.515  0.501  0.491- 107 2.30 103 2.30  91 2.41 106 2.51
  44  0.746  0.504  0.495- 104 2.32  92 2.32 107 2.40 108 2.43
  45  0.986  0.758  0.501- 112 2.21  93 2.36 109 2.40 105 2.51
  46  0.251  0.753  0.494-  94 2.33 110 2.35 109 2.39 106 2.45
  47  0.511  0.757  0.489-  95 2.26 111 2.35 110 2.54 107 2.58
  48  0.760  0.749  0.504- 112 2.30 108 2.39 111 2.42  96 2.49
  49  0.994  0.011  0.752- 116 2.22  97 2.22 113 2.25 125 2.58
  50  0.237  0.011  0.752- 113 2.27 114 2.33 126 2.37  98 2.48
  51  0.484  0.009  0.758- 114 2.15 115 2.37 127 2.50  99 2.61
  52  0.739  0.010  0.746- 100 2.24 128 2.36 115 2.38 116 2.39
  53  0.006  0.254  0.738- 101 2.23 113 2.35 120 2.38 117 2.60
  54  0.246  0.261  0.752- 117 2.17 118 2.22 102 2.33 114 2.54
  55  0.504  0.245  0.743- 115 2.31 118 2.37 119 2.47 103 2.47
  56  0.748  0.244  0.757- 119 2.37 120 2.40 116 2.40 104 2.49
  57  0.002  0.504  0.751- 124 2.38 117 2.41 105 2.55 121 2.57
  58  0.256  0.495  0.747- 121 2.32 118 2.34 106 2.35 122 2.40
  59  0.515  0.489  0.745- 107 2.16 119 2.20 123 2.37 122 2.64
  60  0.752  0.487  0.751- 120 2.23 123 2.36 108 2.41 124 2.58
  61  0.018  0.741  0.747- 125 2.17 121 2.25 109 2.39 128 2.45
  62  0.252  0.743  0.752- 122 2.27 110 2.36 126 2.52 125 2.53
  63  0.497  0.753  0.753- 127 2.23 126 2.35 123 2.43 111 2.53
  64  0.748  0.759  0.747- 112 2.27 124 2.38 127 2.50 128 2.55
  65  0.073  0.046  0.065-  17 2.23   2 2.26   1 2.40   5 2.53
  66  0.320  0.057  0.057-  18 2.25   3 2.25   6 2.52   2 2.56
  67  0.571  0.058  0.061-   3 2.32   4 2.38  19 2.41   7 2.51
  68  0.819  0.062  0.056-   1 2.23   4 2.30  20 2.31   8 2.50
  69  0.067  0.316  0.059-   6 2.35  21 2.38   9 2.39   5 2.44
  70  0.304  0.316  0.059-   6 2.25  10 2.29  22 2.47   7 2.56
  71  0.562  0.319  0.060-   7 2.31   8 2.33  11 2.43  23 2.60
  72  0.812  0.311  0.054-   5 2.32   8 2.35  12 2.37  24 2.53
  73  0.059  0.561  0.070-  25 2.25  10 2.32   9 2.38  13 2.40
  74  0.311  0.564  0.059-  11 2.33  14 2.35  10 2.42  26 2.55
  75  0.565  0.561  0.061-  12 2.24  27 2.30  15 2.34  11 2.46
  76  0.812  0.566  0.056-  28 2.27  12 2.37  16 2.41   9 2.42
  77  0.064  0.819  0.067-   1 2.29  14 2.31  29 2.41  13 2.59
  78  0.317  0.811  0.059-   2 2.31  14 2.36  30 2.43  15 2.44
  79  0.565  0.820  0.050-  16 2.21   3 2.28  15 2.33  31 2.51
  80  0.811  0.809  0.068-  32 2.27   4 2.39  13 2.45  16 2.45
  81  0.057  0.058  0.316-  21 2.32  17 2.43  33 2.45  18 2.64
  82  0.303  0.081  0.303-  22 2.28  18 2.33  34 2.36  19 2.47
  83  0.557  0.056  0.323-  19 2.33  23 2.41  35 2.42  20 2.47
  84  0.810  0.068  0.302-  24 2.25  36 2.33  20 2.33  17 2.40
  85  0.070  0.323  0.301-  22 2.27  25 2.36  37 2.57  21 2.59
  86  0.321  0.315  0.313-  23 2.14  22 2.35  38 2.36  26 2.36
  87  0.569  0.310  0.311-  39 2.26  24 2.31  27 2.32  23 2.38
  88  0.803  0.325  0.309-  28 2.24  24 2.35  40 2.42  21 2.51
  89  0.065  0.562  0.319-  29 2.21  41 2.22  26 2.34  25 2.39
  90  0.314  0.555  0.317-  26 2.19  42 2.32  27 2.52  30 2.56
  91  0.567  0.561  0.301-  27 2.27  31 2.40  43 2.41  28 2.42
  92  0.810  0.561  0.311-  44 2.32  28 2.36  25 2.39  32 2.42
  93  0.057  0.820  0.314-  17 2.25  45 2.36  29 2.43  30 2.47
  94  0.320  0.812  0.310-  31 2.25  30 2.28  46 2.33  18 2.45
  95  0.556  0.814  0.311-  47 2.26  31 2.31  19 2.37  32 2.46
  96  0.826  0.807  0.307-  29 2.29  32 2.39  48 2.49  20 2.50
  97  0.058  0.050  0.578-  49 2.22  33 2.23  37 2.49  34 2.53
  98  0.320  0.051  0.558-  35 2.24  34 2.34  50 2.48  38 2.68
  99  0.575  0.060  0.553-  36 2.26  35 2.35  39 2.55  51 2.61
 100  0.806  0.062  0.569-  52 2.24  40 2.25  33 2.45  36 2.47
 101  0.055  0.324  0.562-  53 2.23  41 2.25  38 2.43  37 2.44
 102  0.300  0.325  0.568-  42 2.27  38 2.32  54 2.33  39 2.52
 103  0.573  0.319  0.548-  40 2.25  43 2.30  39 2.43  55 2.47
 104  0.807  0.321  0.561-  44 2.32  37 2.41  56 2.49  40 2.53
 105  0.079  0.562  0.549-  42 2.16  45 2.51  57 2.55  41 2.61
 106  0.316  0.560  0.561-  42 2.30  58 2.35  46 2.45  43 2.51
 107  0.557  0.555  0.575-  59 2.16  43 2.30  44 2.40  47 2.58
 108  0.816  0.561  0.561-  41 2.21  48 2.39  60 2.41  44 2.43
 109  0.062  0.814  0.559-  33 2.36  61 2.39  46 2.39  45 2.40
 110  0.311  0.809  0.565-  46 2.35  62 2.36  34 2.40  47 2.54
 111  0.569  0.821  0.553-  35 2.17  47 2.35  48 2.42  63 2.53
 112  0.812  0.816  0.567-  45 2.21  64 2.27  48 2.30  36 2.37
 113  0.058  0.068  0.810-  49 2.25  50 2.27  53 2.35   1 2.39
 114  0.314  0.060  0.810-  51 2.15   2 2.24  50 2.33  54 2.54
 115  0.551  0.064  0.823-  55 2.31   3 2.36  51 2.37  52 2.38
 116  0.820  0.054  0.809-  49 2.22   4 2.39  52 2.39  56 2.40
 117  0.075  0.314  0.816-  54 2.17  57 2.41   5 2.45  53 2.60
 118  0.316  0.310  0.809-  54 2.22   6 2.32  58 2.34  55 2.37
 119  0.561  0.316  0.810-  59 2.20   7 2.34  56 2.37  55 2.47
 120  0.818  0.310  0.810-   8 2.22  60 2.23  53 2.38  56 2.40
 121  0.074  0.564  0.821-   9 2.19  61 2.25  58 2.32  57 2.57
 122  0.306  0.563  0.818-  62 2.27  10 2.34  58 2.40  59 2.64
 123  0.566  0.560  0.811-  11 2.23  60 2.36  59 2.37  63 2.43
 124  0.813  0.570  0.810-  64 2.38  57 2.38  12 2.46  60 2.58
 125  0.051  0.807  0.817-  61 2.17  13 2.20  62 2.53  49 2.58
 126  0.311  0.824  0.811-  63 2.35  50 2.37  14 2.44  62 2.52
 127  0.550  0.811  0.819-  63 2.23  15 2.26  51 2.50  64 2.50
 128  0.825  0.825  0.804-  52 2.36  61 2.45  16 2.47  64 2.55
 
  LATTYP: Found a face centered cubic cell.
 ALAT       =    21.8746673814
  
  Lattice vectors:
  
 A1 = (   0.0000000000,  10.9373336907,  10.9373336907)
 A2 = (  10.9373336907,   0.0000000000,  10.9373336907)
 A3 = (  10.9373336907,  10.9373336907,   0.0000000000)


Analysis of symmetry for initial positions (statically):
=====================================================================
 Subroutine PRICEL returns:
 Original cell was already a primitive cell.
 

 Routine SETGRP: Setting up the symmetry group for a 
 face centered cubic supercell.


 Subroutine GETGRP returns: Found  1 space group operations
 (whereof  1 operations were pure point group operations)
 out of a pool of 48 trial point group operations.


The static configuration has the point symmetry C_1 .


Analysis of symmetry for dynamics (positions and initial velocities):
=====================================================================
 Subroutine PRICEL returns:
 Original cell was already a primitive cell.
 

 Routine SETGRP: Setting up the symmetry group for a 
 face centered cubic supercell.


 Subroutine GETGRP returns: Found  1 space group operations
 (whereof  1 operations were pure point group operations)
 out of a pool of 48 trial point group operations.


The dynamic configuration has the point symmetry C_1 .


 Subroutine INISYM returns: Found  1 space group operations
 (whereof  1 operations are pure point group operations),
 and found     1 'primitive' translations

 
 
 KPOINTS: KPOINTS File, automatically generated by

Automatic generation of k-mesh.
Space group operators:
 irot       det(A)        alpha          n_x          n_y          n_z        tau_x        tau_y        tau_z
    1     1.000000     0.000001     1.000000     0.000000     0.000000     0.000000     0.000000     0.000000
 
 Subroutine IBZKPT returns following result:
 ===========================================
 
 Found      8 irreducible k-points:
 
 Following reciprocal coordinates:
            Coordinates               Weight
  0.000000  0.000000  0.000000      1.000000
  0.500000  0.000000  0.000000      1.000000
  0.000000  0.500000  0.000000      1.000000
  0.500000  0.500000  0.000000      1.000000
  0.000000  0.000000  0.500000      1.000000
  0.500000  0.000000  0.500000      1.000000
  0.000000  0.500000  0.500000      1.000000
  0.500000  0.500000  0.500000      1.000000
 
 Following cartesian coordinates:
            Coordinates               Weight
  0.000000  0.000000  0.000000      1.000000
 -0.022857  0.022857  0.022857      1.000000
  0.022857 -0.022857  0.022857      1.000000
  0.000000  0.000000  0.045715      1.000000
  0.022857  0.022857 -0.022857      1.000000
  0.000000  0.045715  0.000000      1.000000
  0.045715  0.000000  0.000000      1.000000
  0.022857  0.022857  0.022857      1.000000
 


--------------------------------------------------------------------------------------------------------




 Dimension of arrays:
   k-points           NKPTS =      8   k-points in BZ     NKDIM =      8   number of bands    NBANDS=    322
   number of dos      NEDOS =    301   number of ions     NIONS =    128
   non local maximal  LDIM  =      4   non local SUM 2l+1 LMDIM =      8
   total plane-waves  NPLWV = ******
   max r-space proj   IRMAX =      1   max aug-charges    IRDMAX= 176811
   dimension x,y,z NGX =   120 NGY =  120 NGZ =  120
   dimension x,y,z NGXF=   240 NGYF=  240 NGZF=  240
   support grid    NGXF=   480 NGYF=  480 NGZF=  480
   ions per type =             128
   NGX,Y,Z   is equivalent  to a cutoff of  12.90, 12.90, 12.90 a.u.
   NGXF,Y,Z  is equivalent  to a cutoff of  25.80, 25.80, 25.80 a.u.

 SYSTEM =  potpaw_PBE@./ARUN.APL1ZEROSTATE         
 POSCAR =  kk                                      

 Startparameter for this run:
   NWRITE =      2    write-flag & timer
   PREC   = accura    normal or accurate (medium, high low for compatibility)
   ISTART =      0    job   : 0-new  1-cont  2-samecut
   ICHARG =      2    charge: 1-file 2-atom 10-const
   ISPIN  =      1    spin polarized calculation?
   LNONCOLLINEAR =      F non collinear calculations
   LSORBIT =      F    spin-orbit coupling
   INIWAV =      1    electr: 0-lowe 1-rand  2-diag
   LASPH  =      F    aspherical Exc in radial PAW
   METAGGA=      F    non-selfconsistent MetaGGA calc.

 Electronic Relaxation 1
   ENCUT  =  500.0 eV  36.75 Ry    6.06 a.u.  28.20 28.20 28.20*2*pi/ulx,y,z
   ENINI  =  500.0     initial cutoff
   ENAUG  =  322.1 eV  augmentation charge cutoff
   NELM   =    120;   NELMIN=  4; NELMDL= -5     # of ELM steps 
   EDIFF  = 0.1E-07   stopping-criterion for ELM
   LREAL  =      F    real-space projection
   NLSPLINE    = F    spline interpolate recip. space projectors
   LCOMPAT=      F    compatible to vasp.4.4
   GGA_COMPAT  = T    GGA compatible to vasp.4.4-vasp.4.6
   LMAXPAW     = -100 max onsite density
   LMAXMIX     =    2 max onsite mixed and CHGCAR
   VOSKOWN=      0    Vosko Wilk Nusair interpolation
   ROPT   =    0.00000
 Ionic relaxation
   EDIFFG = 0.1E-06   stopping-criterion for IOM
   NSW    =      0    number of steps for IOM
   NBLOCK =      1;   KBLOCK =      1    inner block; outer block 
   IBRION =     -1    ionic relax: 0-MD 1-quasi-New 2-CG
   NFREE  =      0    steps in history (QN), initial steepest desc. (CG)
   ISIF   =      2    stress and relaxation
   IWAVPR =     10    prediction:  0-non 1-charg 2-wave 3-comb
   ISYM   =      2    0-nonsym 1-usesym 2-fastsym
   LCORR  =      T    Harris-Foulkes like correction to forces

   POTIM  = 0.5000    time-step for ionic-motion
   TEIN   =    0.0    initial temperature
   TEBEG  =    0.0;   TEEND  =   0.0 temperature during run
   SMASS  =  -3.00    Nose mass-parameter (am)
   estimated Nose-frequenzy (Omega)   =  0.10E-29 period in steps =****** mass=  -0.547E-26a.u.
   SCALEE = 1.0000    scale energy and forces
   NPACO  =    256;   APACO  = 16.0  distance and # of slots for P.C.
   PSTRESS=    0.0 pullay stress

  Mass of Ions in am
   POMASS =  28.09
  Ionic Valenz
   ZVAL   =   4.00
  Atomic Wigner-Seitz radii
   RWIGS  =  -1.00
  virtual crystal weights 
   VCA    =   1.00
   NELECT =     512.0000    total number of electrons
   NUPDOWN=      -1.0000    fix difference up-down

 DOS related values:
   EMIN   =  10.00;   EMAX   =-10.00  energy-range for DOS
   EFERMI =   0.00
   ISMEAR =     0;   SIGMA  =   0.01  broadening in eV -4-tet -1-fermi 0-gaus

 Electronic relaxation 2 (details)
   IALGO  =     38    algorithm
   LDIAG  =      T    sub-space diagonalisation (order eigenvalues)
   LSUBROT=      F    optimize rotation matrix (better conditioning)
   TURBO    =      0    0=normal 1=particle mesh
   IRESTART =      0    0=no restart 2=restart with 2 vectors
   NREBOOT  =      0    no. of reboots
   NMIN     =      0    reboot dimension
   EREF     =   0.00    reference energy to select bands
   IMIX   =      4    mixing-type and parameters
     AMIX     =   0.40;   BMIX     =  1.00
     AMIX_MAG =   1.60;   BMIX_MAG =  1.00
     AMIN     =   0.10
     WC   =   100.;   INIMIX=   1;  MIXPRE=   1;  MAXMIX= -45

 Intra band minimization:
   WEIMIN = 0.0000     energy-eigenvalue tresh-hold
   EBREAK =  0.78E-11  absolut break condition
   DEPER  =   0.30     relativ break condition  

   TIME   =   0.40     timestep for ELM

  volume/ion in A,a.u.               =      20.44       137.96
  Fermi-wavevector in a.u.,A,eV,Ry     =   0.950408  1.796010 12.289804  0.903275
  Thomas-Fermi vector in A             =   2.078782
 
 Write flags
   LWAVE        =      F    write WAVECAR
   LDOWNSAMPLE  =      F    k-point downsampling of WAVECAR
   LCHARG       =      F    write CHGCAR
   LVTOT        =      F    write LOCPOT, total local potential
   LVHAR        =      F    write LOCPOT, Hartree potential only
   LELF         =      F    write electronic localiz. function (ELF)
   LORBIT       =      0    0 simple, 1 ext, 2 COOP (PROOUT), +10 PAW based schemes


 Dipole corrections
   LMONO  =      F    monopole corrections only (constant potential shift)
   LDIPOL =      F    correct potential (dipole corrections)
   IDIPOL =      0    1-x, 2-y, 3-z, 4-all directions 
   EPSILON=  1.0000000 bulk dielectric constant

 Exchange correlation treatment:
   GGA     =    --    GGA type
   LEXCH   =     8    internal setting for exchange type
   VOSKOWN=      0    Vosko Wilk Nusair interpolation
   LHFCALC =     F    Hartree Fock is set to
   LHFONE  =     F    Hartree Fock one center treatment
   AEXX    =    0.0000 exact exchange contribution

 Linear response parameters
   LEPSILON=     F    determine dielectric tensor
   LRPA    =     F    only Hartree local field effects (RPA)
   LNABLA  =     F    use nabla operator in PAW spheres
   LVEL    =     F    velocity operator in full k-point grid
   LINTERFAST=   F  fast interpolation
   KINTER  =     0    interpolate to denser k-point grid
   CSHIFT  =0.1000    complex shift for real part using Kramers Kronig
   OMEGAMAX=  -1.0    maximum frequency
   DEG_THRESHOLD= 0.2000000E-02 threshold for treating states as degnerate
   RTIME   =   -0.100 relaxation time in fs
  (WPLASMAI=    0.000 imaginary part of plasma frequency in eV, 0.658/RTIME)
   DFIELD  = 0.0000000 0.0000000 0.0000000 field for delta impulse in time
 
 Orbital magnetization related:
   ORBITALMAG=     F  switch on orbital magnetization
   LCHIMAG   =     F  perturbation theory with respect to B field
   DQ        =  0.001000  dq finite difference perturbation B field
   LLRAUG    =     F  two centre corrections for induced B field



--------------------------------------------------------------------------------------------------------


 Static calculation
 charge density and potential will be updated during run
 non-spin polarized calculation
 Variant of blocked Davidson
 Davidson routine will perform the subspace rotation
 perform sub-space diagonalisation
    after iterative eigenvector-optimisation
 modified Broyden-mixing scheme, WC =      100.0
 initial mixing is a Kerker type mixing with AMIX =  0.4000 and BMIX =      1.0000
 Hartree-type preconditioning will be used
 using additional bands           66
 reciprocal scheme for non local part
 use partial core corrections
 calculate Harris-corrections to forces 
   (improved forces if not selfconsistent)
 use gradient corrections 
 use of overlap-Matrix (Vanderbilt PP)
 Gauss-broadening in eV      SIGMA  =   0.01


--------------------------------------------------------------------------------------------------------


  energy-cutoff  :      500.00
  volume of cell :     2616.76
      direct lattice vectors                 reciprocal lattice vectors
     0.000000000 10.937333691 10.937333691    -0.045714981  0.045714981  0.045714981
    10.937333691  0.000000000 10.937333691     0.045714981 -0.045714981  0.045714981
    10.937333691 10.937333691  0.000000000     0.045714981  0.045714981 -0.045714981

  length of vectors
    15.467725642 15.467725642 15.467725642     0.079180669  0.079180669  0.079180669


 
 k-points in units of 2pi/SCALE and weight: KPOINTS File, automatically generated by
   0.00000000  0.00000000  0.00000000       0.125
  -0.02285749  0.02285749  0.02285749       0.125
   0.02285749 -0.02285749  0.02285749       0.125
   0.00000000  0.00000000  0.04571498       0.125
   0.02285749  0.02285749 -0.02285749       0.125
   0.00000000  0.04571498  0.00000000       0.125
   0.04571498  0.00000000  0.00000000       0.125
   0.02285749  0.02285749  0.02285749       0.125
 
 k-points in reciprocal lattice and weights: KPOINTS File, automatically generated by
   0.00000000  0.00000000  0.00000000       0.125
   0.50000000  0.00000000  0.00000000       0.125
   0.00000000  0.50000000  0.00000000       0.125
   0.50000000  0.50000000  0.00000000       0.125
   0.00000000  0.00000000  0.50000000       0.125
   0.50000000  0.00000000  0.50000000       0.125
   0.00000000  0.50000000  0.50000000       0.125
   0.50000000  0.50000000  0.50000000       0.125
 
 position of ions in fractional coordinates (direct lattice) 
   0.99513387  0.00007243  0.99958073
   0.25079890  0.99337314  0.98643069
   0.49702633  0.00006957  0.00931113
   0.75950130  0.99769087  0.99761774
   0.99506783  0.24603044  0.00824050
   0.25272314  0.25650524  0.99203517
   0.50634004  0.25627942  0.99546403
   0.74623176  0.25982078  0.98516886
   0.00343697  0.50533737  0.99338386
   0.24264527  0.49719623  0.00322554
   0.49497144  0.51078829  0.98711978
   0.74219943  0.49859428  0.00476947
   0.00398982  0.75066358  0.99061308
   0.24657372  0.75012896  0.00403860
   0.50952715  0.74579235  0.99664284
   0.74069529  0.75602652  0.99732650
   0.99978327  0.99746214  0.24123300
   0.26548406  0.00484161  0.23445280
   0.49858519  0.00175414  0.25144004
   0.75187301  0.00487893  0.23903340
   0.00059484  0.24201399  0.24654707
   0.24878583  0.26042533  0.25403673
   0.48997273  0.24675234  0.26577030
   0.75206687  0.24579821  0.25440038
   0.99945191  0.51006073  0.24791611
   0.25014988  0.50174918  0.26092440
   0.51299099  0.49302012  0.24293978
   0.75815392  0.50226923  0.23570649
   0.00630698  0.73661005  0.25670945
   0.25273392  0.75782908  0.25150983
   0.49864763  0.75050781  0.24876373
   0.75013785  0.75267742  0.24795562
   0.99969858  0.00048690  0.50930751
   0.25730308  0.99840428  0.48846974
   0.49671454  0.99155038  0.51413439
   0.75369126  0.00222933  0.48664777
   0.99734187  0.24679534  0.50369962
   0.24776228  0.26206645  0.49937168
   0.49819734  0.26095309  0.48929787
   0.74966504  0.23946033  0.49938661
   0.99018090  0.50083991  0.49339700
   0.24941192  0.50446127  0.50070929
   0.51516600  0.50118659  0.49066589
   0.74580870  0.50448197  0.49465779
   0.98635962  0.75834314  0.50108542
   0.25133272  0.75325379  0.49423537
   0.51090034  0.75744463  0.48895217
   0.75983240  0.74917119  0.50386742
   0.99448333  0.01124586  0.75208446
   0.23731850  0.01091136  0.75217432
   0.48376782  0.00857704  0.75774614
   0.73878909  0.00972085  0.74641086
   0.00622992  0.25360702  0.73790900
   0.24647545  0.26123404  0.75193494
   0.50388544  0.24512078  0.74331916
   0.74822790  0.24377711  0.75712059
   0.00162904  0.50354389  0.75070894
   0.25641357  0.49492380  0.74684569
   0.51532956  0.48925402  0.74540302
   0.75233957  0.48671637  0.75121267
   0.01783676  0.74077338  0.74689774
   0.25152137  0.74337431  0.75167317
   0.49705222  0.75250382  0.75329474
   0.74752286  0.75854866  0.74660874
   0.07290101  0.04620061  0.06497827
   0.31956951  0.05686738  0.05696549
   0.57069239  0.05773169  0.06126042
   0.81871119  0.06191254  0.05643773
   0.06685503  0.31603873  0.05912119
   0.30413509  0.31587705  0.05931029
   0.56239489  0.31879409  0.05995887
   0.81178429  0.31123424  0.05395696
   0.05880439  0.56110372  0.06998344
   0.31106896  0.56445735  0.05933059
   0.56497987  0.56057796  0.06143719
   0.81170243  0.56560712  0.05582592
   0.06381021  0.81937186  0.06685748
   0.31662714  0.81117814  0.05936709
   0.56549311  0.82040345  0.04996371
   0.81075092  0.80865235  0.06806343
   0.05691337  0.05823166  0.31564643
   0.30343435  0.08107198  0.30336775
   0.55718657  0.05597520  0.32275629
   0.81025236  0.06824735  0.30201520
   0.06975202  0.32320331  0.30065220
   0.32099348  0.31485431  0.31296712
   0.56924958  0.30973645  0.31106129
   0.80297417  0.32538821  0.30914860
   0.06498079  0.56175034  0.31936745
   0.31377736  0.55520403  0.31742525
   0.56650840  0.56092119  0.30099135
   0.81041543  0.56116605  0.31068139
   0.05708714  0.81973643  0.31419550
   0.32039486  0.81156353  0.31005748
   0.55572346  0.81447011  0.31076767
   0.82565930  0.80724087  0.30657430
   0.05845200  0.04965162  0.57755217
   0.32049649  0.05061322  0.55809800
   0.57495097  0.05961864  0.55253912
   0.80607002  0.06183512  0.56905309
   0.05516870  0.32371939  0.56166675
   0.29950820  0.32504252  0.56790590
   0.57310814  0.31887493  0.54814039
   0.80712910  0.32064638  0.56060911
   0.07860414  0.56203195  0.54911353
   0.31622227  0.55962810  0.56070579
   0.55699334  0.55497180  0.57492733
   0.81552055  0.56065639  0.56091335
   0.06196969  0.81414275  0.55897517
   0.31079599  0.80867569  0.56491979
   0.56913695  0.82088070  0.55293641
   0.81194786  0.81591450  0.56711971
   0.05775488  0.06795258  0.81039238
   0.31378105  0.06027989  0.80986801
   0.55107876  0.06360347  0.82269719
   0.82015739  0.05381404  0.80881076
   0.07459984  0.31351506  0.81559210
   0.31638113  0.30981383  0.80889453
   0.56107466  0.31589429  0.81046300
   0.81816704  0.31039045  0.81009859
   0.07447731  0.56369807  0.82079092
   0.30634934  0.56339558  0.81767105
   0.56618624  0.56023766  0.81108306
   0.81323239  0.57033736  0.81021223
   0.05140602  0.80725054  0.81694200
   0.31095446  0.82352731  0.81131388
   0.54982108  0.81082835  0.81870738
   0.82531290  0.82491364  0.80374339
 
 position of ions in cartesian coordinates  (Angst):
  10.93354021 21.81685916 10.88490336
  21.65377515 13.53199288 13.60792473
   0.10259986  5.53798172  5.43690377
  21.82335607 19.21819732 19.21899712
   2.78104610 10.97351806 13.57430594
  13.65570316 13.61433707  5.56960077
  13.69073590 16.42573231  8.34102358
  13.61686713 18.93690638 11.00353236
  16.39201427 10.90256207  5.56463471
   5.47327992  2.68917107  8.09189336
  16.38312046 16.21012628 11.00032979
   5.50545727  8.16984816 13.57097488
  19.04492395 10.87830389  8.25389611
   8.24858233  2.74103064 10.90126985
  19.05759507 16.47348379 13.72984824
  19.17700702 19.00932425 16.37014590
  13.54802205 13.57340899 21.84453951
   2.61724276  5.46797623  2.95664199
   2.76926926  8.20327629  5.47237821
   2.66775059 10.83787411  8.27684854
   5.34355537  2.70307358  2.65349371
   5.62684323  5.49953816  5.56941231
   5.60563116  8.26581369  8.05780798
   5.47083892 11.00806816 10.91398339
   8.29024558 13.64288030 16.51004347
   8.34161543  5.58978992  8.22377087
   8.04943906  8.26786707 11.00307921
   8.07148675 10.87018296 13.78566865
  10.86426692  2.87669849  8.12553149
  11.03947649  5.51508225 11.05286477
  10.92936619  8.17468741 13.66242986
  10.94425744 10.91648134 16.43679210
   5.57579149 16.50450313 10.93936234
  16.26243740  8.15676628 13.73409049
  16.46817676 11.05599197 16.27765006
   5.34701198 13.56600181  8.26775575
   8.20841376 16.41739161 13.60754375
   8.32810294  8.17165343  5.57616698
   8.20574506 10.80056458  8.30308159
   8.08101556 13.66129468 10.81839418
  10.87430080 16.22638651 16.30779216
  10.99388581  8.20432593  8.24536258
  10.84822147 11.00111894 11.11618738
  10.92792502 13.56739594 13.67484632
  13.77479044 16.26868280 19.08239627
  13.64420516  8.15452699 10.98749784
  13.63225769 10.93572059 13.87231219
  13.70490138 13.82150660 16.50447573
   8.34879845 19.10279471 10.99999577
   8.34612273 10.82241312  2.71497281
   8.38153231 13.57885243  5.38494005
   8.27006473 16.24412738  8.18670292
  10.84454159  8.13889562  2.84192329
  11.08136728 10.91994761  5.55298811
  10.81089745 13.64109295  8.19213093
  10.94715223 16.46449885 10.84988991
  13.71818168  8.22857150  5.52524491
  13.58164726 10.97298128  8.21762748
  13.50385612 13.78905291 10.98746582
  13.53964301 16.44485265 13.55196827
  16.27115551  8.36415644  8.29717223
  16.35183313 10.97227341 10.88150599
  16.46942138 13.67546192 13.66681134
  16.46240872 16.34181580 16.47240674
   1.21600041  1.50803160  1.30265406
   1.24502816  4.11828902  4.11721596
   1.30145643  6.91187880  6.87328386
   1.29443630  9.57179568  9.63167551
   4.10324923  1.37784393  4.18783679
   4.10354921  3.97512344  6.78127973
   4.14254743  6.80689066  9.63785785
   3.99421799  9.46890089 12.28282839
   6.90241092  1.40859551  6.78014185
   6.82257687  4.05118351  9.57592348
   6.80318720  6.85133239 12.31060150
   6.79682051  9.48844698 15.06409416
   9.69298602  1.42915613  9.65965700
   9.52144374  4.11237435 12.33518266
   9.51949613  6.73145663 15.15801316
   9.58893301  9.61188580 17.71195392
   4.08922942  4.07481085  1.25937953
   4.20474564  6.63679710  4.20547408
   4.14231270  9.62422873  6.70635487
   4.04968502 12.16524136  9.60844444
   6.82331586  4.05123452  4.29788353
   6.86669251  6.93383864  6.95447939
   6.78987207  9.62825370  9.61376349
   6.94014081 12.16365783 12.34127591
   9.63707929  4.20374498  6.85476751
   9.54423765  6.90367360  9.50433950
   9.42702509  9.48813429 12.33107373
   9.53568639 12.26180998 15.00144428
  12.40219193  4.06084215  9.59011195
  12.26754325  6.89546768 12.38060661
  12.30710110  9.47710263 14.98626432
  12.18216820 12.38361673 17.85957412
   6.85993716  6.95618982  1.18236542
   6.65767769  9.60948116  4.05895074
   6.69537367 12.33173534  6.94049950
   6.90023491 15.04018038  9.49256812
   9.68376362  6.74653505  4.14402544
   9.76647490  9.48719750  6.83091969
   9.48283596 12.26346933  9.75591647
   9.63858531 14.95940915 12.33485671
  12.15296881  6.86555757  7.00685065
  12.25346561  9.59125476  9.57946779
  12.35808376 12.38019407 12.16193374
  12.26698251 15.05451698 15.05170642
  15.01824889  6.79148111  9.58233415
  15.02347208  9.57799561 12.24403527
  15.02589616 12.27249080 15.20308687
  15.12670670 15.08332215 17.80447384
   9.60675190  9.49521629  1.37490437
   9.51709796 12.28972471  4.09122934
   9.69376611 15.02544599  6.72298463
   9.43481538 17.81656831  9.55891725
  12.34942172  9.73632629  4.24494218
  12.23568669 12.30751541  6.84890322
  12.31934558 15.00096505  9.59170206
  12.25516257 17.80888456 12.34340994
  15.14261813  9.79184746  6.97993713
  15.10518656 12.29378614  9.51269040
  14.99859226 15.06365389 12.32007399
  15.09953150 17.75615548 15.13256399
  17.76433575  9.49741204  9.39141333
  17.88080362 12.27462323 12.40820567
  17.82277604 14.96805249 14.88187690
  17.81316543 17.81753220 18.04907832
 


--------------------------------------------------------------------------------------------------------


 k-point  1 :   0.0000 0.0000 0.0000  plane waves:   66299
 k-point  2 :   0.5000 0.0000 0.0000  plane waves:   66394
 k-point  3 :   0.0000 0.5000 0.0000  plane waves:   66394
 k-point  4 :   0.5000 0.5000 0.0000  plane waves:   66552
 k-point  5 :   0.0000 0.0000 0.5000  plane waves:   66394
 k-point  6 :   0.5000 0.0000 0.5000  plane waves:   66552
 k-point  7 :   0.0000 0.5000 0.5000  plane waves:   66552
 k-point  8 :   0.5000 0.5000 0.5000  plane waves:   66394

 maximum and minimum number of plane-waves per node :      4207     4110

 maximum number of plane-waves:     66552
 maximum index in each direction: 
   IXMAX=   28   IYMAX=   28   IZMAX=   28
   IXMIN=  -28   IYMIN=  -28   IZMIN=  -28


 parallel 3D FFT for wavefunctions:
    minimum data exchange during FFTs selected (reduces bandwidth)
 parallel 3D FFT for charge:
    minimum data exchange during FFTs selected (reduces bandwidth)


 total amount of memory used by VASP MPI-rank0   221701. kBytes
=======================================================================

   base      :      30000. kBytes
   nonl-proj :      10690. kBytes
   fftplans  :      66746. kBytes
   grid      :      26864. kBytes
   one-center:         24. kBytes
   wavefun   :      87377. kBytes
 
     INWAV:  cpu time    0.0000: real time    0.0002
 Broyden mixing: mesh for mixing (old mesh)
   NGX = 57   NGY = 57   NGZ = 57
  (NGX  =240   NGY  =240   NGZ  =240)
  gives a total of 185193 points

 initial charge density was supplied:
 charge density of overlapping atoms calculated
 number of electron     512.0000000 magnetization 
 keeping initial charge density in first step


--------------------------------------------------------------------------------------------------------


 Maximum index for augmentation-charges         5612 (set IRDMAX)


--------------------------------------------------------------------------------------------------------


 First call to EWALD:  gamma=   0.129
 Maximum number of real-space cells 3x 3x 3
 Maximum number of reciprocal cells 3x 3x 3

    FEWALD:  cpu time    0.0061: real time    0.0061


--------------------------------------- Iteration      1(   1)  ---------------------------------------


    POTLOK:  cpu time    0.4928: real time    0.4982
    SETDIJ:  cpu time    0.5087: real time    0.5087
     EDDAV:  cpu time   70.4466: real time   70.4697
       DOS:  cpu time    0.0031: real time    0.0031
    --------------------------------------------
      LOOP:  cpu time   71.4512: real time   71.4798

 eigenvalue-minimisations  :  5152
 total energy-change (2. order) : 0.1384333E+04  (-0.1908236E+05)
 number of electron     512.0000000 magnetization 
 augmentation part      512.0000000 magnetization 

 Free energy of the ion-electron system (eV)
  ---------------------------------------------------
  alpha Z        PSCENC =       210.77028614
  Ewald energy   TEWEN  =    -14469.53952038
  -Hartree energ DENC   =      -757.42320592
  -exchange      EXHF   =         0.00000000
  -V(xc)+E(xc)   XCENC  =     -1195.30159980
  PAW double counting   =      4221.13331941    -1969.18571412
  entropy T*S    EENTRO =        -0.00040850
  eigenvalues    EBANDS =      2151.39921624
  atomic energy  EATOM  =     13192.48085998
  Solvation  Ediel_sol  =         0.00000000
  ---------------------------------------------------
  free energy    TOTEN  =      1384.33323306 eV

  energy without entropy =     1384.33364155  energy(sigma->0) =     1384.33343731


--------------------------------------------------------------------------------------------------------




--------------------------------------- Iteration      1(   2)  ---------------------------------------


     EDDAV:  cpu time   80.3508: real time   80.3790
       DOS:  cpu time    0.0010: real time    0.0010
    --------------------------------------------
      LOOP:  cpu time   80.3518: real time   80.3800

 eigenvalue-minimisations  :  6120
 total energy-change (2. order) :-0.1921340E+04  (-0.1827380E+04)
 number of electron     512.0000000 magnetization 
 augmentation part      512.0000000 magnetization 

 Free energy of the ion-electron system (eV)
  ---------------------------------------------------
  alpha Z        PSCENC =       210.77028614
  Ewald energy   TEWEN  =    -14469.53952038
  -Hartree energ DENC   =      -757.42320592
  -exchange      EXHF   =         0.00000000
  -V(xc)+E(xc)   XCENC  =     -1195.30159980
  PAW double counting   =      4221.13331941    -1969.18571412
  entropy T*S    EENTRO =        -0.00000000
  eigenvalues    EBANDS =       230.05896524
  atomic energy  EATOM  =     13192.48085998
  Solvation  Ediel_sol  =         0.00000000
  ---------------------------------------------------
  free energy    TOTEN  =      -537.00660944 eV

  energy without entropy =     -537.00660944  energy(sigma->0) =     -537.00660944


--------------------------------------------------------------------------------------------------------




--------------------------------------- Iteration      1(   3)  ---------------------------------------


     EDDAV:  cpu time   81.8914: real time   81.9017
       DOS:  cpu time    0.0010: real time    0.0010
    --------------------------------------------
      LOOP:  cpu time   81.8924: real time   81.9027

 eigenvalue-minimisations  :  6264
 total energy-change (2. order) :-0.1496174E+03  (-0.1466107E+03)
 number of electron     512.0000000 magnetization 
 augmentation part      512.0000000 magnetization 

 Free energy of the ion-electron system (eV)
  ---------------------------------------------------
  alpha Z        PSCENC =       210.77028614
  Ewald energy   TEWEN  =    -14469.53952038
  -Hartree energ DENC   =      -757.42320592
  -exchange      EXHF   =         0.00000000
  -V(xc)+E(xc)   XCENC  =     -1195.30159980
  PAW double counting   =      4221.13331941    -1969.18571412
  entropy T*S    EENTRO =        -0.00000000
  eigenvalues    EBANDS =        80.44157908
  atomic energy  EATOM  =     13192.48085998
  Solvation  Ediel_sol  =         0.00000000
  ---------------------------------------------------
  free energy    TOTEN  =      -686.62399561 eV

  energy without entropy =     -686.62399561  energy(sigma->0) =     -686.62399561


--------------------------------------------------------------------------------------------------------




--------------------------------------- Iteration      1(   4)  ---------------------------------------


     EDDAV:  cpu time   81.0662: real time   81.0863
       DOS:  cpu time    0.0017: real time    0.0017
    --------------------------------------------
      LOOP:  cpu time   81.0679: real time   81.0880

 eigenvalue-minimisations  :  6184
 total energy-change (2. order) :-0.4316755E+01  (-0.4280376E+01)
 number of electron     512.0000000 magnetization 
 augmentation part      512.0000000 magnetization 

 Free energy of the ion-electron system (eV)
  ---------------------------------------------------
  alpha Z        PSCENC =       210.77028614
  Ewald energy   TEWEN  =    -14469.53952038
  -Hartree energ DENC   =      -757.42320592
  -exchange      EXHF   =         0.00000000
  -V(xc)+E(xc)   XCENC  =     -1195.30159980
  PAW double counting   =      4221.13331941    -1969.18571412
  entropy T*S    EENTRO =        -0.00000000
  eigenvalues    EBANDS =        76.12482367
  atomic energy  EATOM  =     13192.48085998
  Solvation  Ediel_sol  =         0.00000000
  ---------------------------------------------------
  free energy    TOTEN  =      -690.94075102 eV

  energy without entropy =     -690.94075102  energy(sigma->0) =     -690.94075102


--------------------------------------------------------------------------------------------------------




--------------------------------------- Iteration      1(   5)  ---------------------------------------


     EDDAV:  cpu time   82.7085: real time   82.7304
       DOS:  cpu time    0.0010: real time    0.0010
    CHARGE:  cpu time    3.2312: real time    3.2314
    MIXING:  cpu time    0.0327: real time    0.0328
    --------------------------------------------
      LOOP:  cpu time   85.9734: real time   85.9957

 eigenvalue-minimisations  :  6352
 total energy-change (2. order) :-0.1532726E+00  (-0.1528789E+00)
 number of electron     511.9999998 magnetization 
 augmentation part      -30.1837348 magnetization 

 Broyden mixing:
  rms(total) = 0.24004E+01    rms(broyden)= 0.24004E+01
  rms(prec ) = 0.29107E+01
  weight for this iteration     100.00

 Free energy of the ion-electron system (eV)
  ---------------------------------------------------
  alpha Z        PSCENC =       210.77028614
  Ewald energy   TEWEN  =    -14469.53952038
  -Hartree energ DENC   =      -757.42320592
  -exchange      EXHF   =         0.00000000
  -V(xc)+E(xc)   XCENC  =     -1195.30159980
  PAW double counting   =      4221.13331941    -1969.18571412
  entropy T*S    EENTRO =        -0.00000000
  eigenvalues    EBANDS =        75.97155109
  atomic energy  EATOM  =     13192.48085998
  Solvation  Ediel_sol  =         0.00000000
  ---------------------------------------------------
  free energy    TOTEN  =      -691.09402359 eV

  energy without entropy =     -691.09402359  energy(sigma->0) =     -691.09402359


--------------------------------------------------------------------------------------------------------




--------------------------------------- Iteration      1(   6)  ---------------------------------------


    POTLOK:  cpu time    0.4929: real time    0.4937
    SETDIJ:  cpu time    0.5108: real time    0.5108
     EDDAV:  cpu time   77.6989: real time   77.7149
       DOS:  cpu time    0.0011: real time    0.0011
    CHARGE:  cpu time    3.2288: real time    3.2290
    MIXING:  cpu time    0.0305: real time    0.0305
    --------------------------------------------
      LOOP:  cpu time   81.9629: real time   81.9800

 eigenvalue-minimisations  :  5880
 total energy-change (2. order) : 0.8561680E+01  (-0.6121394E+00)
 number of electron     511.9999998 magnetization 
 augmentation part      -29.8428246 magnetization 

 Broyden mixing:
  rms(total) = 0.14257E+01    rms(broyden)= 0.14257E+01
  rms(prec ) = 0.17183E+01
  weight for this iteration     100.00

 eigenvalues of (default mixing * dielectric matrix)
  average eigenvalue GAMMA=   2.4275
  2.4275

 Free energy of the ion-electron system (eV)
  ---------------------------------------------------
  alpha Z        PSCENC =       210.77028614
  Ewald energy   TEWEN  =    -14469.53952038
  -Hartree energ DENC   =      -853.03227695
  -exchange      EXHF   =         0.00000000
  -V(xc)+E(xc)   XCENC  =     -1180.64379090
  PAW double counting   =      4466.23643635    -2221.07303119
  entropy T*S    EENTRO =        -0.00000000
  eigenvalues    EBANDS =       172.26869365
  atomic energy  EATOM  =     13192.48085998
  Solvation  Ediel_sol  =         0.00000000
  ---------------------------------------------------
  free energy    TOTEN  =      -682.53234329 eV

  energy without entropy =     -682.53234329  energy(sigma->0) =     -682.53234329


--------------------------------------------------------------------------------------------------------




--------------------------------------- Iteration      1(   7)  ---------------------------------------


    POTLOK:  cpu time    0.4907: real time    0.4914
    SETDIJ:  cpu time    0.5123: real time    0.5123
     EDDAV:  cpu time   77.5783: real time   77.5966
       DOS:  cpu time    0.0011: real time    0.0011
    CHARGE:  cpu time    3.2565: real time    3.2567
    MIXING:  cpu time    0.0255: real time    0.0255
    --------------------------------------------
      LOOP:  cpu time   81.8644: real time   81.8836

 eigenvalue-minimisations  :  5872
 total energy-change (2. order) : 0.3528660E+01  (-0.1152185E+01)
 number of electron     511.9999998 magnetization 
 augmentation part      -29.3896520 magnetization 

 Broyden mixing:
  rms(total) = 0.15943E+00    rms(broyden)= 0.15943E+00
  rms(prec ) = 0.20831E+00
  weight for this iteration     100.00

 eigenvalues of (default mixing * dielectric matrix)
  average eigenvalue GAMMA=   2.0834
  2.0834  2.0834

 Free energy of the ion-electron system (eV)
  ---------------------------------------------------
  alpha Z        PSCENC =       210.77028614
  Ewald energy   TEWEN  =    -14469.53952038
  -Hartree energ DENC   =     -1003.25255086
  -exchange      EXHF   =         0.00000000
  -V(xc)+E(xc)   XCENC  =     -1156.79592896
  PAW double counting   =      4785.64896952    -2549.00512430
  entropy T*S    EENTRO =        -0.00000000
  eigenvalues    EBANDS =       310.68932565
  atomic energy  EATOM  =     13192.48085998
  Solvation  Ediel_sol  =         0.00000000
  ---------------------------------------------------
  free energy    TOTEN  =      -679.00368320 eV

  energy without entropy =     -679.00368320  energy(sigma->0) =     -679.00368320


--------------------------------------------------------------------------------------------------------




--------------------------------------- Iteration      1(   8)  ---------------------------------------


    POTLOK:  cpu time    0.4903: real time    0.4930
    SETDIJ:  cpu time    0.5049: real time    0.5115
     EDDAV:  cpu time   76.3724: real time   76.3801
       DOS:  cpu time    0.0011: real time    0.0011
    CHARGE:  cpu time    3.2597: real time    3.2599
    MIXING:  cpu time    0.0337: real time    0.0337
    --------------------------------------------
      LOOP:  cpu time   80.6622: real time   80.6793

 eigenvalue-minimisations  :  5744
 total energy-change (2. order) :-0.5122183E-01  (-0.1134790E+00)
 number of electron     511.9999998 magnetization 
 augmentation part      -29.4593919 magnetization 

 Broyden mixing:
  rms(total) = 0.64520E-01    rms(broyden)= 0.64520E-01
  rms(prec ) = 0.79739E-01
  weight for this iteration     100.00

 eigenvalues of (default mixing * dielectric matrix)
  average eigenvalue GAMMA=   2.0007
  2.6749  1.6636  1.6636

 Free energy of the ion-electron system (eV)
  ---------------------------------------------------
  alpha Z        PSCENC =       210.77028614
  Ewald energy   TEWEN  =    -14469.53952038
  -Hartree energ DENC   =      -997.04655836
  -exchange      EXHF   =         0.00000000
  -V(xc)+E(xc)   XCENC  =     -1156.84587934
  PAW double counting   =      4739.90868683    -2501.83795349
  entropy T*S    EENTRO =        -0.00000000
  eigenvalues    EBANDS =       303.05517359
  atomic energy  EATOM  =     13192.48085998
  Solvation  Ediel_sol  =         0.00000000
  ---------------------------------------------------
  free energy    TOTEN  =      -679.05490503 eV

  energy without entropy =     -679.05490503  energy(sigma->0) =     -679.05490503


--------------------------------------------------------------------------------------------------------




--------------------------------------- Iteration      1(   9)  ---------------------------------------


    POTLOK:  cpu time    0.4940: real time    0.4954
    SETDIJ:  cpu time    0.5073: real time    0.5074
     EDDAV:  cpu time   79.7620: real time   79.7776
       DOS:  cpu time    0.0010: real time    0.0010
    CHARGE:  cpu time    3.2518: real time    3.2520
    MIXING:  cpu time    0.0422: real time    0.0422
    --------------------------------------------
      LOOP:  cpu time   84.0582: real time   84.0756

 eigenvalue-minimisations  :  6096
 total energy-change (2. order) :-0.2312528E-01  (-0.1082000E-01)
 number of electron     511.9999998 magnetization 
 augmentation part      -29.4647511 magnetization 

 Broyden mixing:
  rms(total) = 0.28660E-01    rms(broyden)= 0.28659E-01
  rms(prec ) = 0.33336E-01
  weight for this iteration     100.00

 eigenvalues of (default mixing * dielectric matrix)
  average eigenvalue GAMMA=   1.7862
  2.5896  1.8263  1.8263  0.9027

 Free energy of the ion-electron system (eV)
  ---------------------------------------------------
  alpha Z        PSCENC =       210.77028614
  Ewald energy   TEWEN  =    -14469.53952038
  -Hartree energ DENC   =     -1003.73278238
  -exchange      EXHF   =         0.00000000
  -V(xc)+E(xc)   XCENC  =     -1155.66587273
  PAW double counting   =      4742.38054454    -2504.37321556
  entropy T*S    EENTRO =        -0.00000000
  eigenvalues    EBANDS =       308.60167007
  atomic energy  EATOM  =     13192.48085998
  Solvation  Ediel_sol  =         0.00000000
  ---------------------------------------------------
  free energy    TOTEN  =      -679.07803031 eV

  energy without entropy =     -679.07803031  energy(sigma->0) =     -679.07803031


--------------------------------------------------------------------------------------------------------




--------------------------------------- Iteration      1(  10)  ---------------------------------------


    POTLOK:  cpu time    0.4930: real time    0.4946
    SETDIJ:  cpu time    0.5117: real time    0.5118
     EDDAV:  cpu time   78.5458: real time   78.5563
       DOS:  cpu time    0.0011: real time    0.0011
    CHARGE:  cpu time    3.2647: real time    3.2648
    MIXING:  cpu time    0.0357: real time    0.0357
    --------------------------------------------
      LOOP:  cpu time   82.8520: real time   82.8643

 eigenvalue-minimisations  :  5976
 total energy-change (2. order) :-0.2589506E-02  (-0.9237113E-03)
 number of electron     511.9999998 magnetization 
 augmentation part      -29.4744928 magnetization 

 Broyden mixing:
  rms(total) = 0.11262E-01    rms(broyden)= 0.11262E-01
  rms(prec ) = 0.13625E-01
  weight for this iteration     100.00

 eigenvalues of (default mixing * dielectric matrix)
  average eigenvalue GAMMA=   1.8465
  2.6677  2.6677  1.4938  1.4938  0.9093

 Free energy of the ion-electron system (eV)
  ---------------------------------------------------
  alpha Z        PSCENC =       210.77028614
  Ewald energy   TEWEN  =    -14469.53952038
  -Hartree energ DENC   =     -1002.61533519
  -exchange      EXHF   =         0.00000000
  -V(xc)+E(xc)   XCENC  =     -1155.83382431
  PAW double counting   =      4735.21643428    -2497.03070041
  entropy T*S    EENTRO =        -0.00000000
  eigenvalues    EBANDS =       307.47118008
  atomic energy  EATOM  =     13192.48085998
  Solvation  Ediel_sol  =         0.00000000
  ---------------------------------------------------
  free energy    TOTEN  =      -679.08061981 eV

  energy without entropy =     -679.08061981  energy(sigma->0) =     -679.08061981


--------------------------------------------------------------------------------------------------------




--------------------------------------- Iteration      1(  11)  ---------------------------------------


    POTLOK:  cpu time    0.4901: real time    0.4906
    SETDIJ:  cpu time    0.5156: real time    0.5157
     EDDAV:  cpu time   77.0668: real time   77.0777
       DOS:  cpu time    0.0010: real time    0.0010
    CHARGE:  cpu time    3.2703: real time    3.2704
    MIXING:  cpu time    0.0348: real time    0.0348
    --------------------------------------------
      LOOP:  cpu time   81.3786: real time   81.3901

 eigenvalue-minimisations  :  5816
 total energy-change (2. order) :-0.1505802E-02  (-0.2362315E-03)
 number of electron     511.9999998 magnetization 
 augmentation part      -29.4769664 magnetization 

 Broyden mixing:
  rms(total) = 0.38225E-02    rms(broyden)= 0.38225E-02
  rms(prec ) = 0.54140E-02
  weight for this iteration     100.00

 eigenvalues of (default mixing * dielectric matrix)
  average eigenvalue GAMMA=   1.7675
  2.8344  2.0264  2.0264  1.5989  1.2490  0.8702

 Free energy of the ion-electron system (eV)
  ---------------------------------------------------
  alpha Z        PSCENC =       210.77028614
  Ewald energy   TEWEN  =    -14469.53952038
  -Hartree energ DENC   =     -1002.56752771
  -exchange      EXHF   =         0.00000000
  -V(xc)+E(xc)   XCENC  =     -1155.83864986
  PAW double counting   =      4731.03697324    -2492.75535131
  entropy T*S    EENTRO =        -0.00000000
  eigenvalues    EBANDS =       307.33080429
  atomic energy  EATOM  =     13192.48085998
  Solvation  Ediel_sol  =         0.00000000
  ---------------------------------------------------
  free energy    TOTEN  =      -679.08212562 eV

  energy without entropy =     -679.08212562  energy(sigma->0) =     -679.08212562


--------------------------------------------------------------------------------------------------------




--------------------------------------- Iteration      1(  12)  ---------------------------------------


    POTLOK:  cpu time    0.4882: real time    0.4915
    SETDIJ:  cpu time    0.5130: real time    0.5130
     EDDAV:  cpu time   80.4460: real time   80.4637
       DOS:  cpu time    0.0011: real time    0.0011
    CHARGE:  cpu time    3.2630: real time    3.2633
    MIXING:  cpu time    0.0438: real time    0.0438
    --------------------------------------------
      LOOP:  cpu time   84.7552: real time   84.7764

 eigenvalue-minimisations  :  6152
 total energy-change (2. order) :-0.7126548E-04  (-0.4611028E-04)
 number of electron     511.9999998 magnetization 
 augmentation part      -29.4751323 magnetization 

 Broyden mixing:
  rms(total) = 0.18571E-02    rms(broyden)= 0.18571E-02
  rms(prec ) = 0.22181E-02
  weight for this iteration     100.00

 eigenvalues of (default mixing * dielectric matrix)
  average eigenvalue GAMMA=   1.8326
  3.1715  2.6961  1.7750  1.7750  0.8936  1.2585  1.2585

 Free energy of the ion-electron system (eV)
  ---------------------------------------------------
  alpha Z        PSCENC =       210.77028614
  Ewald energy   TEWEN  =    -14469.53952038
  -Hartree energ DENC   =     -1003.17408644
  -exchange      EXHF   =         0.00000000
  -V(xc)+E(xc)   XCENC  =     -1155.77074876
  PAW double counting   =      4732.22604870    -2493.98549022
  entropy T*S    EENTRO =        -0.00000000
  eigenvalues    EBANDS =       307.91045411
  atomic energy  EATOM  =     13192.48085998
  Solvation  Ediel_sol  =         0.00000000
  ---------------------------------------------------
  free energy    TOTEN  =      -679.08219688 eV

  energy without entropy =     -679.08219688  energy(sigma->0) =     -679.08219688


--------------------------------------------------------------------------------------------------------




--------------------------------------- Iteration      1(  13)  ---------------------------------------


    POTLOK:  cpu time    0.4872: real time    0.4902
    SETDIJ:  cpu time    0.5088: real time    0.5088
     EDDAV:  cpu time   76.1466: real time   76.1717
       DOS:  cpu time    0.0011: real time    0.0011
    CHARGE:  cpu time    3.2368: real time    3.2370
    MIXING:  cpu time    0.0375: real time    0.0375
    --------------------------------------------
      LOOP:  cpu time   80.4180: real time   80.4463

 eigenvalue-minimisations  :  5720
 total energy-change (2. order) :-0.3247492E-04  (-0.1241420E-04)
 number of electron     511.9999998 magnetization 
 augmentation part      -29.4751197 magnetization 

 Broyden mixing:
  rms(total) = 0.64163E-03    rms(broyden)= 0.64161E-03
  rms(prec ) = 0.82531E-03
  weight for this iteration     100.00

 eigenvalues of (default mixing * dielectric matrix)
  average eigenvalue GAMMA=   1.7789
  3.1478  2.5476  1.9367  1.9367  1.3822  1.3822  0.9490  0.9490

 Free energy of the ion-electron system (eV)
  ---------------------------------------------------
  alpha Z        PSCENC =       210.77028614
  Ewald energy   TEWEN  =    -14469.53952038
  -Hartree energ DENC   =     -1003.16738399
  -exchange      EXHF   =         0.00000000
  -V(xc)+E(xc)   XCENC  =     -1155.78214399
  PAW double counting   =      4731.61485738    -2493.36218605
  entropy T*S    EENTRO =        -0.00000000
  eigenvalues    EBANDS =       307.90300154
  atomic energy  EATOM  =     13192.48085998
  Solvation  Ediel_sol  =         0.00000000
  ---------------------------------------------------
  free energy    TOTEN  =      -679.08222936 eV

  energy without entropy =     -679.08222936  energy(sigma->0) =     -679.08222936


--------------------------------------------------------------------------------------------------------




--------------------------------------- Iteration      1(  14)  ---------------------------------------


    POTLOK:  cpu time    0.4873: real time    0.4916
    SETDIJ:  cpu time    0.5123: real time    0.5124
     EDDAV:  cpu time   80.5947: real time   80.6098
       DOS:  cpu time    0.0011: real time    0.0011
    CHARGE:  cpu time    3.2365: real time    3.2366
    MIXING:  cpu time    0.0431: real time    0.0431
    --------------------------------------------
      LOOP:  cpu time   84.8750: real time   84.8945

 eigenvalue-minimisations  :  6168
 total energy-change (2. order) :-0.5116250E-05  (-0.9794336E-06)
 number of electron     511.9999998 magnetization 
 augmentation part      -29.4749582 magnetization 

 Broyden mixing:
  rms(total) = 0.18997E-03    rms(broyden)= 0.18991E-03
  rms(prec ) = 0.26119E-03
  weight for this iteration     100.00

 eigenvalues of (default mixing * dielectric matrix)
  average eigenvalue GAMMA=   1.7758
  3.2187  2.6148  2.2109  1.6794  1.6794  1.3202  1.3202  1.0146  0.9238

 Free energy of the ion-electron system (eV)
  ---------------------------------------------------
  alpha Z        PSCENC =       210.77028614
  Ewald energy   TEWEN  =    -14469.53952038
  -Hartree energ DENC   =     -1003.22391206
  -exchange      EXHF   =         0.00000000
  -V(xc)+E(xc)   XCENC  =     -1155.77420185
  PAW double counting   =      4731.79625723    -2493.54762328
  entropy T*S    EENTRO =        -0.00000000
  eigenvalues    EBANDS =       307.95561975
  atomic energy  EATOM  =     13192.48085998
  Solvation  Ediel_sol  =         0.00000000
  ---------------------------------------------------
  free energy    TOTEN  =      -679.08223447 eV

  energy without entropy =     -679.08223447  energy(sigma->0) =     -679.08223447


--------------------------------------------------------------------------------------------------------




--------------------------------------- Iteration      1(  15)  ---------------------------------------


    POTLOK:  cpu time    0.4918: real time    0.4930
    SETDIJ:  cpu time    0.5133: real time    0.5133
     EDDAV:  cpu time   80.2075: real time   80.2203
       DOS:  cpu time    0.0012: real time    0.0012
    CHARGE:  cpu time    3.2379: real time    3.2381
    MIXING:  cpu time    0.0351: real time    0.0351
    --------------------------------------------
      LOOP:  cpu time   84.4868: real time   84.5009

 eigenvalue-minimisations  :  6128
 total energy-change (2. order) :-0.3587375E-05  (-0.1824307E-06)
 number of electron     511.9999998 magnetization 
 augmentation part      -29.4748354 magnetization 

 Broyden mixing:
  rms(total) = 0.71647E-04    rms(broyden)= 0.71487E-04
  rms(prec ) = 0.94949E-04
  weight for this iteration     100.00

 eigenvalues of (default mixing * dielectric matrix)
  average eigenvalue GAMMA=   1.7225
  3.2614  2.6080  2.1036  1.7321  1.7321  1.4305  1.4305  1.0807  0.9230  0.9230

 Free energy of the ion-electron system (eV)
  ---------------------------------------------------
  alpha Z        PSCENC =       210.77028614
  Ewald energy   TEWEN  =    -14469.53952038
  -Hartree energ DENC   =     -1003.24814663
  -exchange      EXHF   =         0.00000000
  -V(xc)+E(xc)   XCENC  =     -1155.77287101
  PAW double counting   =      4731.86597187    -2493.61949924
  entropy T*S    EENTRO =        -0.00000000
  eigenvalues    EBANDS =       307.98068122
  atomic energy  EATOM  =     13192.48085998
  Solvation  Ediel_sol  =         0.00000000
  ---------------------------------------------------
  free energy    TOTEN  =      -679.08223806 eV

  energy without entropy =     -679.08223806  energy(sigma->0) =     -679.08223806


--------------------------------------------------------------------------------------------------------




--------------------------------------- Iteration      1(  16)  ---------------------------------------


    POTLOK:  cpu time    0.4899: real time    0.4932
    SETDIJ:  cpu time    0.5132: real time    0.5132
     EDDAV:  cpu time   79.3909: real time   79.4036
       DOS:  cpu time    0.0012: real time    0.0012
    CHARGE:  cpu time    3.0453: real time    3.0454
    MIXING:  cpu time    0.0385: real time    0.0385
    --------------------------------------------
      LOOP:  cpu time   83.4789: real time   83.4951

 eigenvalue-minimisations  :  6056
 total energy-change (2. order) : 0.5378170E-06  (-0.2547154E-07)
 number of electron     511.9999998 magnetization 
 augmentation part      -29.4748393 magnetization 

 Broyden mixing:
  rms(total) = 0.31997E-04    rms(broyden)= 0.31637E-04
  rms(prec ) = 0.42022E-04
  weight for this iteration     100.00

 eigenvalues of (default mixing * dielectric matrix)
  average eigenvalue GAMMA=   1.7012
  3.2793  2.6173  2.0629  2.0629  1.4260  1.4260  1.4425  1.4425  0.9065  1.0239
  1.0239

 Free energy of the ion-electron system (eV)
  ---------------------------------------------------
  alpha Z        PSCENC =       210.77028614
  Ewald energy   TEWEN  =    -14469.53952038
  -Hartree energ DENC   =     -1003.24667704
  -exchange      EXHF   =         0.00000000
  -V(xc)+E(xc)   XCENC  =     -1155.77294518
  PAW double counting   =      4731.85746171    -2493.61056072
  entropy T*S    EENTRO =        -0.00000000
  eigenvalues    EBANDS =       307.97885796
  atomic energy  EATOM  =     13192.48085998
  Solvation  Ediel_sol  =         0.00000000
  ---------------------------------------------------
  free energy    TOTEN  =      -679.08223752 eV

  energy without entropy =     -679.08223752  energy(sigma->0) =     -679.08223752


--------------------------------------------------------------------------------------------------------




--------------------------------------- Iteration      1(  17)  ---------------------------------------


    POTLOK:  cpu time    0.4892: real time    0.4904
    SETDIJ:  cpu time    0.5086: real time    0.5086
     EDDAV:  cpu time   63.8831: real time   63.9069
       DOS:  cpu time    0.0011: real time    0.0011
    CHARGE:  cpu time    3.0386: real time    3.0388
    MIXING:  cpu time    0.0339: real time    0.0339
    --------------------------------------------
      LOOP:  cpu time   67.9546: real time   67.9797

 eigenvalue-minimisations  :  4504
 total energy-change (2. order) : 0.6389746E-07  (-0.3654845E-08)
 number of electron     511.9999998 magnetization 
 augmentation part      -29.4748422 magnetization 

 Broyden mixing:
  rms(total) = 0.15694E-04    rms(broyden)= 0.14947E-04
  rms(prec ) = 0.19158E-04
  weight for this iteration     100.00

 eigenvalues of (default mixing * dielectric matrix)
  average eigenvalue GAMMA=   1.7044
  3.2939  2.6086  2.3516  1.9013  1.9013  1.4629  1.4629  0.9187  1.0308  1.0308
  1.2452  1.2452

 Free energy of the ion-electron system (eV)
  ---------------------------------------------------
  alpha Z        PSCENC =       210.77028614
  Ewald energy   TEWEN  =    -14469.53952038
  -Hartree energ DENC   =     -1003.24605426
  -exchange      EXHF   =         0.00000000
  -V(xc)+E(xc)   XCENC  =     -1155.77294794
  PAW double counting   =      4731.85954623    -2493.61255315
  entropy T*S    EENTRO =        -0.00000000
  eigenvalues    EBANDS =       307.97814592
  atomic energy  EATOM  =     13192.48085998
  Solvation  Ediel_sol  =         0.00000000
  ---------------------------------------------------
  free energy    TOTEN  =      -679.08223746 eV

  energy without entropy =     -679.08223746  energy(sigma->0) =     -679.08223746


--------------------------------------------------------------------------------------------------------




--------------------------------------- Iteration      1(  18)  ---------------------------------------


    POTLOK:  cpu time    0.4916: real time    0.4927
    SETDIJ:  cpu time    0.5068: real time    0.5068
     EDDAV:  cpu time   52.1190: real time   52.1239
       DOS:  cpu time    0.0012: real time    0.0012
    CHARGE:  cpu time    3.0347: real time    3.0349
    MIXING:  cpu time    0.0404: real time    0.0404
    --------------------------------------------
      LOOP:  cpu time   56.1937: real time   56.1998

 eigenvalue-minimisations  :  3328
 total energy-change (2. order) :-0.1824319E-06  (-0.1005622E-08)
 number of electron     511.9999998 magnetization 
 augmentation part      -29.4748358 magnetization 

 Broyden mixing:
  rms(total) = 0.75361E-05    rms(broyden)= 0.58230E-05
  rms(prec ) = 0.76502E-05
  weight for this iteration     100.00
  WARNING: grid for Broyden might be to small

 eigenvalues of (default mixing * dielectric matrix)
  average eigenvalue GAMMA=   1.7159
  3.2781  2.6892  2.4019  2.4019  1.7495  1.7495  1.2840  1.2840  0.9192  1.0017
  1.0017  1.2731  1.2731

 Free energy of the ion-electron system (eV)
  ---------------------------------------------------
  alpha Z        PSCENC =       210.77028614
  Ewald energy   TEWEN  =    -14469.53952038
  -Hartree energ DENC   =     -1003.24737977
  -exchange      EXHF   =         0.00000000
  -V(xc)+E(xc)   XCENC  =     -1155.77281059
  PAW double counting   =      4731.86508940    -2493.61821182
  entropy T*S    EENTRO =        -0.00000000
  eigenvalues    EBANDS =       307.97944940
  atomic energy  EATOM  =     13192.48085998
  Solvation  Ediel_sol  =         0.00000000
  ---------------------------------------------------
  free energy    TOTEN  =      -679.08223764 eV

  energy without entropy =     -679.08223764  energy(sigma->0) =     -679.08223764


--------------------------------------------------------------------------------------------------------




--------------------------------------- Iteration      1(  19)  ---------------------------------------


    POTLOK:  cpu time    0.4895: real time    0.4927
    SETDIJ:  cpu time    0.5031: real time    0.5031
     EDDAV:  cpu time   50.5585: real time   50.5644
       DOS:  cpu time    0.0011: real time    0.0011
    CHARGE:  cpu time    3.0340: real time    3.0348
    MIXING:  cpu time    0.0339: real time    0.0339
    --------------------------------------------
      LOOP:  cpu time   54.6201: real time   54.6301

 eigenvalue-minimisations  :  3176
 total energy-change (2. order) : 0.7431481E-07  (-0.2337580E-09)
 number of electron     511.9999998 magnetization 
 augmentation part      -29.4748380 magnetization 

 Broyden mixing:
  rms(total) = 0.54472E-05    rms(broyden)= 0.26050E-05
  rms(prec ) = 0.36002E-05
  weight for this iteration     100.00
  WARNING: grid for Broyden might be to small

 eigenvalues of (default mixing * dielectric matrix)
  average eigenvalue GAMMA=   1.6611
  3.3148  2.7058  2.3514  2.3514  1.7425  1.7425  1.3575  1.3575  1.3085  1.3085
  1.0059  1.0059  0.9093  0.7937

 Free energy of the ion-electron system (eV)
  ---------------------------------------------------
  alpha Z        PSCENC =       210.77028614
  Ewald energy   TEWEN  =    -14469.53952038
  -Hartree energ DENC   =     -1003.24684351
  -exchange      EXHF   =         0.00000000
  -V(xc)+E(xc)   XCENC  =     -1155.77285109
  PAW double counting   =      4731.86435860    -2493.61741897
  entropy T*S    EENTRO =        -0.00000000
  eigenvalues    EBANDS =       307.97889167
  atomic energy  EATOM  =     13192.48085998
  Solvation  Ediel_sol  =         0.00000000
  ---------------------------------------------------
  free energy    TOTEN  =      -679.08223757 eV

  energy without entropy =     -679.08223757  energy(sigma->0) =     -679.08223757


--------------------------------------------------------------------------------------------------------




--------------------------------------- Iteration      1(  20)  ---------------------------------------


    POTLOK:  cpu time    0.4910: real time    0.4921
    SETDIJ:  cpu time    0.5122: real time    0.5123
     EDDAV:  cpu time   50.5159: real time   50.5342
       DOS:  cpu time    0.0011: real time    0.0011
    --------------------------------------------
      LOOP:  cpu time   51.5202: real time   51.5396

 eigenvalue-minimisations  :  3152
 total energy-change (2. order) :-0.7035851E-08  (-0.4720143E-10)
 number of electron     511.9999998 magnetization 
 augmentation part      -29.4748380 magnetization 

 Free energy of the ion-electron system (eV)
  ---------------------------------------------------
  alpha Z        PSCENC =       210.77028614
  Ewald energy   TEWEN  =    -14469.53952038
  -Hartree energ DENC   =     -1003.24695936
  -exchange      EXHF   =         0.00000000
  -V(xc)+E(xc)   XCENC  =     -1155.77284035
  PAW double counting   =      4731.86446245    -2493.61752850
  entropy T*S    EENTRO =        -0.00000000
  eigenvalues    EBANDS =       307.97900244
  atomic energy  EATOM  =     13192.48085998
  Solvation  Ediel_sol  =         0.00000000
  ---------------------------------------------------
  free energy    TOTEN  =      -679.08223757 eV

  energy without entropy =     -679.08223757  energy(sigma->0) =     -679.08223757


--------------------------------------------------------------------------------------------------------




 average (electrostatic) potential at core
  the test charge radii are     0.9892
  (the norm of the test charge is              1.0000)
       1 -83.6554       2 -83.6666       3 -83.5359       4 -83.4725       5 -83.4755
       6 -83.5403       7 -83.4319       8 -83.5139       9 -83.5206      10 -83.4285
      11 -83.5988      12 -83.4530      13 -83.3718      14 -83.3973      15 -83.4907
      16 -83.5031      17 -83.5227      18 -83.5886      19 -83.5161      20 -83.6623
      21 -83.5014      22 -83.5089      23 -83.6017      24 -83.4805      25 -83.4681
      26 -83.6146      27 -83.5846      28 -83.5213      29 -83.5365      30 -83.6068
      31 -83.5498      32 -83.4509      33 -83.6234      34 -83.5732      35 -83.4619
      36 -83.6415      37 -83.3056      38 -83.5738      39 -83.4994      40 -83.4119
      41 -83.5273      42 -83.3956      43 -83.6377      44 -83.4137      45 -83.4600
      46 -83.4768      47 -83.5315      48 -83.5134      49 -83.5423      50 -83.6269
      51 -83.6778      52 -83.6609      53 -83.5573      54 -83.4489      55 -83.5512
      56 -83.3347      57 -83.4922      58 -83.4839      59 -83.4576      60 -83.5026
      61 -83.4905      62 -83.4624      63 -83.5352      64 -83.4395      65 -83.5988
      66 -83.5843      67 -83.5636      68 -83.5564      69 -83.4535      70 -83.4430
      71 -83.5686      72 -83.4986      73 -83.3314      74 -83.6150      75 -83.5441
      76 -83.5656      77 -83.5861      78 -83.4793      79 -83.5177      80 -83.3285
      81 -83.6560      82 -83.5741      83 -83.6093      84 -83.5859      85 -83.3950
      86 -83.5129      87 -83.4051      88 -83.5515      89 -83.5835      90 -83.5763
      91 -83.6308      92 -83.5205      93 -83.4776      94 -83.4479      95 -83.5248
      96 -83.5899      97 -83.4645      98 -83.6470      99 -83.7089     100 -83.6063
     101 -83.3956     102 -83.5341     103 -83.4176     104 -83.3078     105 -83.5766
     106 -83.5681     107 -83.5065     108 -83.5191     109 -83.5084     110 -83.4477
     111 -83.4905     112 -83.3814     113 -83.7209     114 -83.5966     115 -83.6460
     116 -83.5323     117 -83.3889     118 -83.4436     119 -83.3607     120 -83.3781
     121 -83.4264     122 -83.4760     123 -83.5775     124 -83.4881     125 -83.3757
     126 -83.5034     127 -83.4801     128 -83.5854
 
 
 
 E-fermi :   5.9044     XC(G=0):  -9.3321     alpha+bet :-11.7321


 k-point     1 :       0.0000    0.0000    0.0000
  band No.  band energies     occupation 
      1      -6.2976      2.00000
      2      -5.6938      2.00000
      3      -5.6433      2.00000
      4      -5.6001      2.00000
      5      -5.5730      2.00000
      6      -5.5174      2.00000
      7      -5.4955      2.00000
      8      -5.4371      2.00000
      9      -5.3962      2.00000
     10      -5.3147      2.00000
     11      -5.3044      2.00000
     12      -5.2331      2.00000
     13      -5.2046      2.00000
     14      -5.1445      2.00000
     15      -5.0935      2.00000
     16      -4.5305      2.00000
     17      -4.4681      2.00000
     18      -4.4343      2.00000
     19      -4.3959      2.00000
     20      -4.3841      2.00000
     21      -4.3256      2.00000
     22      -4.2923      2.00000
     23      -4.2806      2.00000
     24      -4.2382      2.00000
     25      -4.1909      2.00000
     26      -4.1254      2.00000
     27      -4.0884      2.00000
     28      -4.0485      2.00000
     29      -3.9951      2.00000
     30      -3.9788      2.00000
     31      -3.9316      2.00000
     32      -3.9064      2.00000
     33      -3.8534      2.00000
     34      -3.8004      2.00000
     35      -3.7974      2.00000
     36      -3.7319      2.00000
     37      -3.7156      2.00000
     38      -3.6915      2.00000
     39      -3.6785      2.00000
     40      -3.6504      2.00000
     41      -3.6191      2.00000
     42      -3.5851      2.00000
     43      -3.5717      2.00000
     44      -3.5218      2.00000
     45      -3.5074      2.00000
     46      -3.4799      2.00000
     47      -3.4566      2.00000
     48      -3.4334      2.00000
     49      -3.4248      2.00000
     50      -3.3772      2.00000
     51      -3.3697      2.00000
     52      -3.3024      2.00000
     53      -3.2914      2.00000
     54      -3.2606      2.00000
     55      -3.2392      2.00000
     56      -2.3668      2.00000
     57      -2.3201      2.00000
     58      -2.2904      2.00000
     59      -2.2728      2.00000
     60      -2.2156      2.00000
     61      -2.1792      2.00000
     62      -2.1464      2.00000
     63      -2.1041      2.00000
     64      -2.0822      2.00000
     65      -2.0374      2.00000
     66      -1.9990      2.00000
     67      -1.9453      2.00000
     68      -1.9273      2.00000
     69      -1.9124      2.00000
     70      -1.8691      2.00000
     71      -1.8648      2.00000
     72      -1.8511      2.00000
     73      -1.8115      2.00000
     74      -1.3556      2.00000
     75      -1.3060      2.00000
     76      -1.2425      2.00000
     77      -1.2357      2.00000
     78      -1.0444      2.00000
     79      -0.9876      2.00000
     80      -0.9670      2.00000
     81      -0.9394      2.00000
     82      -0.8851      2.00000
     83      -0.8779      2.00000
     84      -0.8392      2.00000
     85      -0.8177      2.00000
     86      -0.7880      2.00000
     87      -0.7838      2.00000
     88      -0.7636      2.00000
     89      -0.7446      2.00000
     90      -0.6716      2.00000
     91      -0.6544      2.00000
     92      -0.6418      2.00000
     93      -0.6027      2.00000
     94      -0.5923      2.00000
     95      -0.5771      2.00000
     96      -0.5495      2.00000
     97      -0.5336      2.00000
     98      -0.5066      2.00000
     99      -0.4837      2.00000
    100      -0.4478      2.00000
    101      -0.4180      2.00000
    102       0.0096      2.00000
    103       0.0591      2.00000
[...]
   0.690E+01 0.296E+01 -.742E+01   -.650E+01 -.280E+01 0.635E+01   -.947E+00 -.633E+00 0.169E+01   -.144E-05 -.512E-06 0.299E-05
   0.401E+01 0.193E+01 0.798E+01   -.451E+01 -.155E+01 -.706E+01   -.802E+00 -.797E+00 -.248E+01   -.306E-05 -.120E-05 -.374E-05
   0.227E-01 -.107E+02 0.368E+01   -.264E+00 0.974E+01 -.386E+01   0.272E-01 0.181E+01 -.169E+00   0.506E-06 0.440E-05 -.391E-05
   -.359E+01 -.336E+00 0.541E+01   0.279E+01 0.583E+00 -.442E+01   0.181E+01 0.269E-01 -.268E+01   -.204E-05 0.292E-05 -.160E-05
   0.382E+01 0.661E+00 0.114E+01   -.312E+01 -.290E+00 -.112E+01   -.167E+01 -.103E+01 0.785E+00   -.135E-05 0.142E-05 0.181E-05
   0.959E+00 -.947E+01 -.176E+01   -.775E+00 0.835E+01 0.266E+01   -.957E+00 0.191E+01 -.301E+00   0.226E-05 0.152E-05 -.309E-06
   -.188E+01 0.190E+01 0.299E+01   0.190E+01 -.191E+01 -.269E+01   -.108E+01 0.130E+01 -.396E+00   0.386E-05 -.159E-05 0.133E-05
   0.193E+01 -.190E+01 -.393E+01   -.197E+01 0.132E+01 0.291E+01   -.700E-02 0.797E+00 0.168E+01   -.184E-05 -.237E-05 0.322E-05
   0.296E+01 -.204E+01 -.278E-01   -.275E+01 0.126E+01 0.309E+00   -.105E+01 0.159E+01 -.381E+00   0.216E-05 0.106E-05 0.273E-05
   0.141E+01 0.231E+01 0.167E+02   -.137E+01 -.154E+01 -.159E+02   0.542E+00 -.895E+00 -.315E+01   0.247E-05 -.139E-05 -.252E-05
   0.157E+01 0.677E+01 0.565E+01   -.166E+01 -.559E+01 -.507E+01   0.200E+01 -.287E+01 -.198E+01   -.146E-05 -.430E-05 -.184E-05
   0.826E+01 0.446E+01 0.124E+01   -.742E+01 -.359E+01 -.160E+01   -.133E+01 -.163E+01 0.744E-01   0.347E-06 -.146E-05 0.343E-06
   0.278E+01 -.119E+02 -.455E+01   -.313E+01 0.115E+02 0.467E+01   -.126E+01 0.222E+01 -.719E+00   0.432E-06 0.507E-05 0.361E-06
   0.102E+02 -.141E+01 -.125E+01   -.899E+01 0.909E+00 0.868E+00   -.303E+01 0.149E+00 0.108E+00   -.262E-05 -.197E-05 -.937E-07
   -.226E+01 -.791E+00 -.173E+02   0.199E+01 0.431E+00 0.155E+02   0.120E+01 0.107E+01 0.441E+01   0.184E-05 -.749E-06 0.492E-05
   -.778E+01 -.755E+00 -.249E+01   0.720E+01 0.430E+00 0.280E+01   0.147E+01 0.126E+01 0.764E+00   0.486E-05 0.971E-06 -.127E-05
   0.481E+00 0.275E+00 0.148E+01   0.107E+00 -.293E+00 -.144E+01   -.415E+00 -.217E+00 0.684E+00   0.202E-05 0.319E-05 -.765E-06
   0.349E+01 -.848E+01 -.136E+01   -.243E+01 0.754E+01 0.149E+01   -.217E+01 0.178E+01 -.747E+00   -.353E-05 0.588E-05 -.213E-05
   -.996E+01 0.289E+01 -.154E+00   0.887E+01 -.245E+01 -.176E+00   0.225E+01 -.106E+01 0.711E+00   0.947E-07 0.149E-05 -.415E-05
   0.185E+01 -.367E+00 -.203E+01   -.117E+01 0.815E+00 0.171E+01   -.118E+01 -.109E+00 0.152E+01   -.242E-05 0.500E-05 -.184E-05
   -.862E+01 0.616E+01 0.411E+01   0.769E+01 -.544E+01 -.423E+01   0.232E+01 -.125E+01 -.571E+00   -.237E-05 -.668E-06 -.399E-05
   0.690E+01 -.122E+01 -.163E+02   -.641E+01 0.721E+00 0.155E+02   -.691E+00 0.124E+00 0.397E+01   0.286E-05 0.136E-05 0.421E-05
   -.954E+01 0.938E+01 0.152E+01   0.855E+01 -.889E+01 -.172E+01   0.352E+01 -.166E+01 -.198E-01   0.710E-05 -.460E-05 -.312E-05
   -.127E+02 -.674E+00 0.355E+01   0.114E+02 0.172E+00 -.311E+01   0.369E+01 -.377E+00 -.139E+01   0.859E-05 0.899E-06 0.830E-06
   0.110E+02 -.445E+00 -.886E+00   -.975E+01 0.365E+00 0.135E+01   -.333E+01 -.235E+00 -.729E-01   -.488E-06 -.103E-05 0.876E-06
   0.111E+02 -.195E+01 0.827E+00   -.108E+02 0.154E+01 -.155E+01   -.267E+01 0.379E+00 0.491E+00   -.102E-05 0.135E-05 -.272E-05
   0.882E+01 -.102E+02 0.324E+01   -.835E+01 0.895E+01 -.319E+01   -.184E+01 0.224E+01 0.347E+00   -.409E-06 0.536E-05 -.238E-05
   -.543E+01 0.487E+00 0.812E+01   0.412E+01 -.408E+00 -.715E+01   0.165E+01 -.227E+00 -.296E+01   0.407E-05 0.834E-06 -.331E-05
   0.645E+01 -.357E+00 0.242E+01   -.641E+01 0.794E+00 -.155E+01   -.923E+00 0.326E+00 -.189E+01   0.195E-06 -.418E-06 -.176E-07
   -.117E+02 0.951E+01 0.112E+02   0.112E+02 -.821E+01 -.101E+02   0.298E+01 -.349E+01 -.367E+01   0.303E-05 -.222E-05 -.163E-05
   -.142E+01 -.381E+01 -.108E+02   0.141E+01 0.315E+01 0.102E+02   0.181E+00 0.874E+00 0.184E+01   0.235E-06 0.260E-05 0.270E-05
   -.906E+01 0.119E+02 -.868E+01   0.838E+01 -.107E+02 0.834E+01   -.148E+00 -.303E+01 0.347E+01   0.202E-05 -.117E-05 0.137E-05
   -.107E+02 0.516E+01 0.577E+01   0.101E+02 -.475E+01 -.525E+01   0.178E+01 -.157E+01 -.174E+01   -.565E-06 -.281E-05 -.190E-05
   0.408E+01 0.198E+01 -.105E+01   -.401E+01 -.243E+01 0.129E+01   -.236E+00 0.673E+00 -.311E+00   -.293E-05 0.407E-06 -.264E-05
   -.310E+00 -.557E+01 -.365E+01   0.141E+00 0.510E+01 0.352E+01   -.311E+00 0.730E+00 0.132E+01   -.682E-06 0.545E-05 -.220E-05
   0.826E+01 -.103E+02 0.856E+01   -.732E+01 0.908E+01 -.752E+01   -.191E+01 0.337E+01 -.264E+01   -.835E-05 0.560E-05 -.757E-05
   -.744E+01 0.104E+01 0.328E+01   0.656E+01 -.437E+00 -.367E+01   0.126E+01 -.182E+01 0.572E-01   -.739E-06 0.387E-05 0.334E-06
   -.307E+01 -.216E+01 -.230E+01   0.238E+01 0.172E+01 0.281E+01   0.164E+01 0.721E+00 -.459E+00   0.142E-05 -.354E-05 -.999E-06
   -.266E+01 0.149E+02 -.613E+01   0.215E+01 -.135E+02 0.601E+01   0.211E+01 -.422E+01 0.156E+00   0.338E-05 -.701E-05 0.456E-05
   0.353E+01 -.229E+01 0.710E+00   -.260E+01 0.191E+01 -.549E+00   -.135E+01 0.599E+00 -.146E+00   -.106E-05 -.237E-05 0.597E-05
   -.469E+00 0.653E+01 0.718E+01   0.122E+01 -.612E+01 -.595E+01   0.913E+00 -.173E+01 -.193E+01   0.202E-05 -.902E-06 0.103E-05
   -.638E+01 0.912E+01 0.143E+02   0.641E+01 -.814E+01 -.131E+02   0.114E+01 -.311E+01 -.361E+01   -.149E-05 -.216E-05 -.208E-05
   0.718E+00 -.770E+01 -.521E+01   -.105E+01 0.695E+01 0.476E+01   0.836E+00 0.148E+01 0.159E+01   -.347E-05 0.128E-05 0.296E-05
   0.546E+01 0.115E+01 0.113E+02   -.464E+01 -.418E+00 -.102E+02   -.235E+01 0.266E+00 -.240E+01   -.293E-05 -.882E-06 -.113E-05
   0.794E+01 -.430E+01 -.568E+01   -.678E+01 0.360E+01 0.510E+01   -.279E+01 0.354E+00 0.484E+00   -.535E-05 0.137E-05 0.198E-06
   0.819E+01 0.820E+01 0.529E+01   -.784E+01 -.802E+01 -.539E+01   -.262E+01 -.179E+01 -.419E+00   -.203E-05 -.400E-05 0.231E-06
   0.554E+01 -.835E+01 -.968E+01   -.495E+01 0.735E+01 0.935E+01   -.225E+01 0.191E+01 0.673E+00   -.724E-06 0.222E-05 0.447E-05
   -.618E-01 0.887E+01 -.944E+01   0.151E+00 -.803E+01 0.856E+01   -.779E+00 -.191E+01 0.173E+01   -.206E-05 -.584E-05 0.134E-05
   0.348E+01 0.178E+01 0.373E+00   -.336E+01 -.155E+01 -.210E-01   -.701E+00 -.391E+00 -.135E+01   -.339E-05 0.497E-06 0.218E-05
   -.573E+01 0.870E+00 -.189E+02   0.467E+01 -.372E+00 0.168E+02   0.159E+01 -.215E-01 0.566E+01   0.462E-05 0.263E-05 0.367E-05
   0.694E+01 0.657E+01 0.459E+01   -.662E+01 -.617E+01 -.454E+01   -.704E+00 -.534E+00 -.141E+01   -.428E-05 -.250E-05 -.516E-05
   0.376E+01 0.327E+00 -.130E+02   -.403E+01 -.238E+00 0.115E+02   0.407E+00 0.297E+00 0.397E+01   -.129E-05 0.107E-05 0.328E-05
   0.566E+01 -.994E+00 0.335E+01   -.544E+01 0.438E+00 -.369E+01   -.845E+00 0.311E+00 -.142E+01   -.929E-06 0.207E-05 0.467E-06
 -----------------------------------------------------------------------------------------------
   -.289E+00 -.249E+00 0.290E-01   -.135E-12 0.177E-12 0.261E-12   0.289E+00 0.249E+00 -.290E-01   -.998E-06 0.334E-05 0.121E-05
 
 
 POSITION                                       TOTAL-FORCE (eV/Angst)
 -----------------------------------------------------------------------------------
     10.93354     21.81686     10.88490        -0.160853      0.800201      1.449551
     21.65378     13.53199     13.60792         1.116370      1.991062      0.641481
      0.10260      5.53798      5.43690        -0.650072     -0.187337      0.994940
     21.82336     19.21820     19.21900        -0.612218     -0.438393     -0.878594
      2.78105     10.97352     13.57431        -1.036186      0.589823      0.994908
     13.65570     13.61434      5.56960        -0.941169      0.320766     -1.462998
     13.69074     16.42573      8.34102        -0.096147     -0.549347     -1.672374
     13.61687     18.93691     11.00353         0.361489      1.943082     -1.059902
     16.39201     10.90256      5.56463         1.349574      1.120743     -1.598156
      5.47328      2.68917      8.09189         0.476645      0.175785      0.764183
     16.38312     16.21013     11.00033         0.709010      1.954997     -0.756819
      5.50546      8.16985     13.57097        -1.299412      0.489876      1.511939
     19.04492     10.87830      8.25390         1.898290      1.690099     -1.216617
      8.24858      2.74103     10.90127        -0.507784     -0.165504      0.781811
     19.05760     16.47348     13.72985         0.932884     -0.241722     -0.899757
     19.17701     19.00932     16.37015        -1.017792      1.401037      1.760855
     13.54802     13.57341     21.84454         1.747652      0.538650     -0.150960
      2.61724      5.46798      2.95664         1.218704     -0.040087     -2.236177
      2.76927      8.20328      5.47238         0.073914     -0.780470     -0.218477
      2.66775     10.83787      8.27685         0.267023      0.527040     -1.239954
      5.34356      2.70307      2.65349         1.514109     -0.166253      1.091220
      5.62684      5.49954      5.56941        -0.736891     -0.733900      0.835143
      5.60563      8.26581      8.05781        -2.581961      1.256328      2.430371
      5.47084     11.00807     10.91398        -0.250573     -1.323815      1.272648
      8.29025     13.64288     16.51004         0.410419      0.607151     -0.862752
      8.34162      5.58979      8.22377        -2.024090     -1.489058     -0.281085
      8.04944      8.26787     11.00308         0.726829     -0.965982     -1.354677
      8.07149     10.87018     13.78567         1.474841     -0.333665     -0.170982
     10.86427      2.87670      8.12553         0.980089     -0.920287      2.098884
     11.03948      5.51508     11.05286        -0.998871     -0.691304     -1.276725
     10.92937      8.17469     13.66243        -1.603449      0.029562      0.607420
     10.94426     10.91648     16.43679         0.438099      0.427620     -0.884202
      5.57579     16.50450     10.93936        -0.905181     -1.421657     -1.044881
     16.26244      8.15677     13.73409         0.694146     -0.106048     -1.265334
     16.46818     11.05599     16.27765         0.153514     -0.734548      2.313366
      5.34701     13.56600      8.26776         0.152724      1.384186      0.376309
      8.20841     16.41739     13.60754        -0.266437     -0.290040      0.555459
      8.32810      8.17165      5.57617        -0.870634      0.244071     -1.317144
      8.20575     10.80056      8.30308         0.805090      1.191091     -1.130391
      8.08102     13.66129     10.81839         0.915696     -0.012132      2.394254
     10.87430     16.22639     16.30779         1.096880      2.061933      1.350314
     10.99389      8.20433      8.24536        -1.004437      0.780013      1.290176
     10.84822     11.00112     11.11619         0.314937     -1.208827     -0.896910
     10.92793     13.56740     13.67485         0.582198      0.375485     -0.116248
     13.77479     16.26868     19.08240        -1.554804      1.955210      1.153331
     13.64421      8.15453     10.98750        -0.094801      0.448832     -0.610149
     13.63226     10.93572     13.87231         0.623477      0.550690     -2.474688
     13.70490     13.82151     16.50448        -0.673350     -1.224504     -0.270446
      8.34880     19.10279     11.00000        -1.698690      1.390294     -1.375500
      8.34612     10.82241      2.71497        -1.897296      0.274718      0.689761
      8.38153     13.57885      5.38494        -2.931087      1.717751      1.709587
      8.27006     16.24413      8.18670         0.404288      1.210374     -0.523077
     10.84454      8.13890      2.84192         1.866061      1.484087     -0.135544
     11.08137     10.91995      5.55299        -2.368745      0.952307     -0.433742
     10.81090     13.64109      8.19213         0.719679     -0.325004      1.079147
     10.94715     16.46450     10.84989        -0.478772     -0.459477      0.733920
     13.71818      8.22857      5.52524        -0.161626      0.346371      0.856029
     13.58165     10.97298      8.21763         0.426931      0.330089      0.536593
     13.50386     13.78905     10.98747         3.281153     -0.402190     -0.953526
     13.53964     16.44485     13.55197         1.479263     -0.409301      2.080344
     16.27116      8.36416      8.29717        -0.089861     -2.433141     -0.525839
     16.35183     10.97227     10.88151         1.679709     -0.623590      0.609720
     16.46942     13.67546     13.66681        -1.651951     -1.063576     -0.216406
     16.46241     16.34182     16.47241         1.271182      0.777148     -0.447425
      1.21600      1.50803      1.30265         0.661425     -2.344940      0.687487
      1.24503      4.11829      4.11722         0.269195     -2.247699     -0.053032
      1.30146      6.91188      6.87328         1.092605     -0.069385      0.768209
      1.29444      9.57180      9.63168         1.361669     -1.471091      0.033732
      4.10325      1.37784      4.18784        -0.200974     -0.524787     -0.922126
      4.10355      3.97512      6.78128         0.159123      2.292367      0.985653
      4.14255      6.80689      9.63786         0.915806      0.099882     -0.563521
      3.99422      9.46890     12.28283         0.958784      0.531597     -0.510604
      6.90241      1.40860      6.78014        -0.393899     -1.255365      0.843997
      6.82258      4.05118      9.57592         0.594493      0.133685     -0.944849
      6.80319      6.85133     12.31060         0.004862     -1.349123     -0.552516
      6.79682      9.48845     15.06409        -0.551717     -0.470798      0.617871
      9.69299      1.42916      9.65966        -1.305125     -0.419847     -1.554738
      9.52144      4.11237     12.33518        -0.214077      0.846005     -0.351987
      9.51950      6.73146     15.15801         1.005686      0.273581     -1.688289
      9.58893      9.61189     17.71195        -0.972891     -0.657742      0.804674
      4.08923      4.07481      1.25938        -0.773053      0.787018      0.601628
      4.20475      6.63680      4.20547        -1.065162      1.299939     -0.091326
      4.14231      9.62423      6.70635        -0.039851      0.222757      0.659670
      4.04969     12.16524      9.60844        -0.832183      0.821045     -0.100019
      6.82332      4.05123      4.29788         0.579771     -0.125314     -2.307486
      6.86669      6.93384      6.95448         1.901132     -1.683732     -1.398399
      6.78987      9.62825      9.61376        -0.490917     -0.757132     -0.285491
      6.94014     12.16366     12.34128        -1.607636      1.844130     -0.593272
      9.63708      4.20374      6.85477        -1.855758     -0.351159     -0.273205
      9.54424      6.90367      9.50434         0.936788      0.709459      2.581539
      9.42703      9.48813     12.33107         0.894406      0.934486      1.071118
      9.53569     12.26181     15.00144         0.172721     -0.234725      0.724603
     12.40219      4.06084      9.59011        -1.102485      0.829832     -0.619142
     12.26754      6.89547     12.38061         1.155895     -0.617099      0.381489
     12.30710      9.47710     14.98626        -0.505108      0.338655      1.198573
     12.18217     12.38362     17.85957         1.394788     -0.531558     -0.692622
      6.85994      6.95619      1.18237        -0.201701     -0.377401      3.112355
      6.65768      9.60948      4.05895         2.522922     -1.169070     -0.218802
      6.69537     12.33174      6.94050         2.358886     -0.879165     -0.960006
      6.90023     15.04018      9.49257        -2.031530     -0.315280      0.388804
      9.68376      6.74654      4.14403        -2.378286     -0.026292     -0.228397
      9.76647      9.48720      6.83092        -1.370542      0.999920      0.389383
      9.48284     12.26347      9.75592         0.340059     -0.147867     -1.982468
      9.63859     14.95941     12.33486        -0.887567      0.763946     -1.023837
     12.15297      6.86556      7.00685         2.519963     -2.195292     -2.562088
     12.25347      9.59125      9.57947         0.178445      0.213265      1.192234
     12.35808     12.38019     12.16193        -0.826193     -1.764070      3.139632
     12.26698     15.05452     15.05171         1.099965     -1.156126     -1.220162
     15.01825      6.79148      9.58233        -0.165354      0.229616     -0.073270
     15.02347      9.57800     12.24404        -0.480413      0.261168      1.193013
     15.02590     12.27249     15.20309        -0.962951      2.141595     -1.602145
     15.12671     15.08332     17.80447         0.380575     -1.217570     -0.327623
      9.60675      9.49522      1.37490         0.950002      0.275959      0.057546
      9.51710     12.28972      4.09123         1.600352     -2.785993      0.037055
      9.69377     15.02545      6.72298        -0.417467      0.222120      0.015110
      9.43482     17.81657      9.55892         1.660825     -1.327960     -0.699161
     12.34942      9.73633      4.24494         1.162624     -2.129927     -2.389191
     12.23569     12.30752      6.84890         0.502261      0.730696      1.138570
     12.31935     15.00097      9.59170        -1.533250      0.995189     -1.326343
     12.25516     17.80888     12.34341        -1.627348     -0.342510     -0.100295
     15.14262      9.79185      6.97994        -2.271231     -1.606612     -0.517392
     15.10519     12.29379      9.51269        -1.667163      0.905619      0.344708
     14.99859     15.06365     12.32007        -0.689401     -1.068163      0.845830
     15.09953     17.75616     15.13256        -0.583008     -0.163088     -0.997133
     17.76434      9.49741      9.39141         0.534528      0.476466      3.579353
     17.88080     12.27462     12.40821        -0.382564     -0.133467     -1.362264
     17.82278     14.96805     14.88188         0.143671      0.385625      2.453127
     17.81317     17.81753     18.04908        -0.625154     -0.245585     -1.758968
 -----------------------------------------------------------------------------------
    total drift:                               -0.000004     -0.000010      0.000002


--------------------------------------------------------------------------------------------------------



  FREE ENERGIE OF THE ION-ELECTRON SYSTEM (eV)
  ---------------------------------------------------
  free  energy   TOTEN  =      -679.08223757 eV

  energy  without entropy=     -679.08223757  energy(sigma->0) =     -679.08223757
 


--------------------------------------------------------------------------------------------------------


    POTLOK:  cpu time    0.9904: real time    0.9904


--------------------------------------------------------------------------------------------------------


     LOOP+:  cpu time 1659.4149: real time 1659.7968
    4ORBIT:  cpu time    0.0000: real time    0.0000

 total amount of memory used by VASP MPI-rank0   221701. kBytes
=======================================================================

   base      :      30000. kBytes
   nonl-proj :      10690. kBytes
   fftplans  :      66746. kBytes
   grid      :      26864. kBytes
   one-center:         24. kBytes
   wavefun   :      87377. kBytes
 
  
  
 General timing and accounting informations for this job:
 ========================================================
  
                  Total CPU time used (sec):     1683.285
                            User time (sec):     1681.985
                          System time (sec):        1.300
                         Elapsed time (sec):     1684.731
  
                   Maximum memory used (kb):      337896.
                   Average memory used (kb):           0.
  
                          Minor page faults:       243216
                          Major page faults:            0
                 Voluntary context switches:         1300
