<?xml version="1.0" encoding="ISO-8859-1"?>
<modeling>
 <generator>
  <i name="program" type="string">vasp </i>
  <i name="version" type="string">5.4.4.18Apr17-6-g9f103f2a35  </i>
  <i name="subversion" type="string">(build Nov 08 2017 09:05:29) complex            parallel </i>
  <i name="platform" type="string">Intel_17.33 </i>
  <i name="date" type="string">2020 07 18 </i>
  <i name="time" type="string">23:04:35 </i>
 </generator>
 <incar>
  <i type="string" name="SYSTEM">potpaw_PBE@./ARUN.APL1ZEROSTATE</i>
  <i type="string" name="PREC">accurate</i>
  <i type="string" name="ALGO">Normal</i>
  <i type="int" name="NSIM">     4</i>
  <i type="logical" name="ADDGRID"> T  </i>
  <i type="int" name="NELM">   120</i>
  <i type="int" name="NELMIN">     4</i>
  <i name="EDIFF">      0.00000001</i>
  <i type="int" name="NSW">     0</i>
  <i type="int" name="ISYM">     2</i>
  <i name="ENMAX">    500.00000000</i>
  <i type="logical" name="LREAL"> F  </i>
  <i type="logical" name="LPLANE"> T  </i>
  <i type="int" name="ISMEAR">     0</i>
  <i name="SIGMA">      0.01000000</i>
  <i type="logical" name="LWAVE"> F  </i>
  <i type="logical" name="LCHARG"> F  </i>
  <i type="logical" name="LELF"> F  </i>
  <i type="logical" name="LAECHG"> F  </i>
  <v type="int" name="KPOINT_BSE">    -1     0     0     0</v>
  <i type="int" name="NELM">   120</i>
 </incar>
 <structure name="primitive_cell" >
  <crystal>
   <varray name="basis" >
    <v>       0.00000000      10.93733369      10.93733369 </v>
    <v>      10.93733369       0.00000000      10.93733369 </v>
    <v>      10.93733369      10.93733369       0.00000000 </v>
   </varray>
   <i name="volume">   2616.76295363 </i>
   <varray name="rec_basis" >
    <v>      -0.04571498       0.04571498       0.04571498 </v>
    <v>       0.04571498      -0.04571498       0.04571498 </v>
    <v>       0.04571498       0.04571498      -0.04571498 </v>
   </varray>
  </crystal>
  <varray name="positions" >
   <v>      -0.00486613       0.00007243      -0.00041927 </v>
   <v>      -0.18128881       0.06191254       0.05643773 </v>
   <v>       0.06381021      -0.18062814       0.06685748 </v>
   <v>       0.05775488       0.06795258      -0.18960762 </v>
   <v>       0.07290101       0.04620061       0.06497827 </v>
   <v>      -0.24049870      -0.00230913      -0.00238226 </v>
   <v>      -0.24812699       0.00487893       0.23903340 </v>
   <v>      -0.00551667       0.01124586      -0.24791554 </v>
   <v>      -0.00021673      -0.00253786       0.24123300 </v>
   <v>       0.23731850       0.01091136      -0.24782568 </v>
   <v>       0.25079890      -0.00662686      -0.01356931 </v>
   <v>       0.00398982      -0.24933642      -0.00938692 </v>
   <v>      -0.00493217       0.24603044       0.00824050 </v>
   <v>       0.24657372      -0.24987104       0.00403860 </v>
   <v>      -0.25376824       0.25982078      -0.01483114 </v>
   <v>       0.00622992       0.25360702      -0.26209100 </v>
   <v>       0.00630698      -0.26338995       0.25670945 </v>
   <v>      -0.17434070      -0.19275913       0.30657430 </v>
   <v>      -0.18974764       0.06824735       0.30201520 </v>
   <v>      -0.18821571       0.31123424       0.05395696 </v>
   <v>      -0.18183296       0.31039045      -0.18990141 </v>
   <v>      -0.17984261       0.05381404      -0.19118924 </v>
   <v>       0.31095446      -0.17647269      -0.18868612 </v>
   <v>      -0.18924908      -0.19134765       0.06806343 </v>
   <v>       0.05708714      -0.18026357       0.31419550 </v>
   <v>       0.05140602      -0.19274946      -0.18305800 </v>
   <v>       0.31378105       0.06027989      -0.19013199 </v>
   <v>       0.31662714      -0.18882186       0.05936709 </v>
   <v>       0.07459984       0.31351506      -0.18440790 </v>
   <v>      -0.25177210       0.24377711      -0.24287941 </v>
   <v>      -0.24986215      -0.24732258       0.24795562 </v>
   <v>      -0.24793313       0.24579821       0.25440038 </v>
   <v>       0.25152137      -0.25662569      -0.24832683 </v>
   <v>       0.25273392      -0.24217092       0.25150983 </v>
   <v>       0.24647545       0.26123404      -0.24806506 </v>
   <v>       0.05845200       0.04965162      -0.42244783 </v>
   <v>      -0.42930761       0.05773169       0.06126042 </v>
   <v>       0.05880439      -0.43889628       0.06998344 </v>
   <v>      -0.43760511       0.31879409       0.05995887 </v>
   <v>       0.31106896      -0.43554265       0.05933059 </v>
   <v>       0.05691337       0.05823166       0.31564643 </v>
   <v>       0.06498079      -0.43824966       0.31936745 </v>
   <v>      -0.44281343       0.05597520       0.32275629 </v>
   <v>       0.05516870       0.32371939      -0.43833325 </v>
   <v>       0.31956951       0.05686738       0.05696549 </v>
   <v>       0.32049649       0.05061322      -0.44190200 </v>
   <v>       0.06685503       0.31603873       0.05912119 </v>
   <v>      -0.24630874       0.00222933       0.48664777 </v>
   <v>      -0.24766043       0.48671637      -0.24878733 </v>
   <v>      -0.00054809      -0.48993927       0.24791611 </v>
   <v>      -0.49365996       0.25627942      -0.00453597 </v>
   <v>       0.48376782       0.00857704      -0.24225386 </v>
   <v>       0.00059484       0.24201399       0.24654707 </v>
   <v>      -0.00265813       0.24679534      -0.49630038 </v>
   <v>       0.49858519       0.00175414       0.25144004 </v>
   <v>       0.01783676      -0.25922662      -0.25310226 </v>
   <v>      -0.24016760      -0.25082881      -0.49613258 </v>
   <v>      -0.01364038      -0.24165686      -0.49891458 </v>
   <v>       0.49705222      -0.24749618      -0.24670526 </v>
   <v>      -0.25930471      -0.24397348      -0.00267350 </v>
   <v>      -0.25780057       0.49859428       0.00476947 </v>
   <v>       0.24264527       0.49719623       0.00322554 </v>
   <v>      -0.26121091       0.00972085      -0.25358914 </v>
   <v>       0.25014988      -0.49825082       0.26092440 </v>
   <v>       0.24776228       0.26206645       0.49937168 </v>
   <v>       0.00162904      -0.49645611      -0.24929106 </v>
   <v>       0.48997273       0.24675234       0.26577030 </v>
   <v>       0.26548406       0.00484161       0.23445280 </v>
   <v>       0.25272314       0.25650524      -0.00796483 </v>
   <v>      -0.17468710      -0.17508636      -0.19625661 </v>
   <v>       0.25730308      -0.00159572       0.48846974 </v>
   <v>      -0.49047285      -0.25420765      -0.00335716 </v>
   <v>      -0.45017892      -0.18917165      -0.18129262 </v>
   <v>      -0.43075042       0.30973645       0.31106129 </v>
   <v>       0.30634934      -0.43660442      -0.18232895 </v>
   <v>      -0.43892534       0.31589429      -0.18953700 </v>
   <v>      -0.18958457      -0.43883395       0.31068139 </v>
   <v>       0.31079599      -0.19132431      -0.43508021 </v>
   <v>      -0.44427654      -0.18552989       0.31076767 </v>
   <v>       0.29950820       0.32504252      -0.43209410 </v>
   <v>      -0.19287090       0.32064638      -0.43939089 </v>
   <v>       0.31638113       0.30981383      -0.19110547 </v>
   <v>      -0.18805214      -0.18408550      -0.43288029 </v>
   <v>      -0.18676761      -0.42966264      -0.18978777 </v>
   <v>      -0.19702583       0.32538821       0.30914860 </v>
   <v>       0.31377736      -0.44479597       0.31742525 </v>
   <v>       0.32039486      -0.18843647       0.31005748 </v>
   <v>      -0.00030142       0.00048690      -0.49069249 </v>
   <v>       0.49702633       0.00006957       0.00931113 </v>
   <v>       0.49671454      -0.00844962      -0.48586561 </v>
   <v>       0.00343697      -0.49466263      -0.00661614 </v>
   <v>       0.49497144      -0.48921171      -0.01288022 </v>
   <v>      -0.00981910      -0.49916009       0.49339700 </v>
   <v>       0.07447731      -0.43630193      -0.17920908 </v>
   <v>      -0.43086305      -0.17911930      -0.44706359 </v>
   <v>      -0.42504903       0.05961864      -0.44746088 </v>
   <v>      -0.43450689      -0.17959655       0.04996371 </v>
   <v>      -0.19392998       0.06183512      -0.43094691 </v>
   <v>      -0.43381376      -0.43976234      -0.18891694 </v>
   <v>       0.07860414      -0.43796805      -0.45088647 </v>
   <v>      -0.43502013      -0.43942204       0.06143719 </v>
   <v>      -0.44892124       0.06360347      -0.17730281 </v>
   <v>      -0.18829757      -0.43439288       0.05582592 </v>
   <v>      -0.18447945      -0.43934361      -0.43908665 </v>
   <v>       0.06196969      -0.18585725      -0.44102483 </v>
   <v>      -0.48909966      -0.24255537       0.48895217 </v>
   <v>      -0.48467044       0.48925402      -0.25459698 </v>
   <v>      -0.48700901       0.49302012       0.24293978 </v>
   <v>      -0.24184608      -0.49773077       0.23570649 </v>
   <v>      -0.25033496       0.23946033       0.49938661 </v>
   <v>      -0.25419130      -0.49551803       0.49465779 </v>
   <v>       0.49864763      -0.24949219       0.24876373 </v>
   <v>       0.49819734       0.26095309       0.48929787 </v>
   <v>      -0.49611456       0.24512078      -0.25668084 </v>
   <v>       0.25133272      -0.24674621       0.49423537 </v>
   <v>       0.24941192      -0.49553873      -0.49929071 </v>
   <v>       0.25641357       0.49492380      -0.25315431 </v>
   <v>       0.06975202       0.32320331       0.30065220 </v>
   <v>       0.32099348       0.31485431       0.31296712 </v>
   <v>       0.30413509       0.31587705       0.05931029 </v>
   <v>       0.30343435       0.08107198       0.30336775 </v>
   <v>       0.24878583       0.26042533       0.25403673 </v>
   <v>      -0.25247714      -0.24145134      -0.25339126 </v>
   <v>      -0.44300666      -0.44502820      -0.42507267 </v>
   <v>      -0.43349160      -0.43907881       0.30099135 </v>
   <v>      -0.42689186       0.31887493      -0.45185961 </v>
   <v>       0.31622227      -0.44037190      -0.43929421 </v>
   <v>      -0.48483400      -0.49881341       0.49066589 </v>
  </varray>
 </structure>
 <varray name="primitive_index" >
  <v type="int" >        1 </v>
  <v type="int" >       68 </v>
  <v type="int" >       77 </v>
  <v type="int" >      113 </v>
  <v type="int" >       65 </v>
  <v type="int" >        4 </v>
  <v type="int" >       20 </v>
  <v type="int" >       49 </v>
  <v type="int" >       17 </v>
  <v type="int" >       50 </v>
  <v type="int" >        2 </v>
  <v type="int" >       13 </v>
  <v type="int" >        5 </v>
  <v type="int" >       14 </v>
  <v type="int" >        8 </v>
  <v type="int" >       53 </v>
  <v type="int" >       29 </v>
  <v type="int" >       96 </v>
  <v type="int" >       84 </v>
  <v type="int" >       72 </v>
  <v type="int" >      120 </v>
  <v type="int" >      116 </v>
  <v type="int" >      126 </v>
  <v type="int" >       80 </v>
  <v type="int" >       93 </v>
  <v type="int" >      125 </v>
  <v type="int" >      114 </v>
  <v type="int" >       78 </v>
  <v type="int" >      117 </v>
  <v type="int" >       56 </v>
  <v type="int" >       32 </v>
  <v type="int" >       24 </v>
  <v type="int" >       62 </v>
  <v type="int" >       30 </v>
  <v type="int" >       54 </v>
  <v type="int" >       97 </v>
  <v type="int" >       67 </v>
  <v type="int" >       73 </v>
  <v type="int" >       71 </v>
  <v type="int" >       74 </v>
  <v type="int" >       81 </v>
  <v type="int" >       89 </v>
  <v type="int" >       83 </v>
  <v type="int" >      101 </v>
  <v type="int" >       66 </v>
  <v type="int" >       98 </v>
  <v type="int" >       69 </v>
  <v type="int" >       36 </v>
  <v type="int" >       60 </v>
  <v type="int" >       25 </v>
  <v type="int" >        7 </v>
  <v type="int" >       51 </v>
  <v type="int" >       21 </v>
  <v type="int" >       37 </v>
  <v type="int" >       19 </v>
  <v type="int" >       61 </v>
  <v type="int" >       48 </v>
  <v type="int" >       45 </v>
  <v type="int" >       63 </v>
  <v type="int" >       16 </v>
  <v type="int" >       12 </v>
  <v type="int" >       10 </v>
  <v type="int" >       52 </v>
  <v type="int" >       26 </v>
  <v type="int" >       38 </v>
  <v type="int" >       57 </v>
  <v type="int" >       23 </v>
  <v type="int" >       18 </v>
  <v type="int" >        6 </v>
  <v type="int" >      128 </v>
  <v type="int" >       34 </v>
  <v type="int" >       15 </v>
  <v type="int" >      127 </v>
  <v type="int" >       87 </v>
  <v type="int" >      122 </v>
  <v type="int" >      119 </v>
  <v type="int" >       92 </v>
  <v type="int" >      110 </v>
  <v type="int" >       95 </v>
  <v type="int" >      102 </v>
  <v type="int" >      104 </v>
  <v type="int" >      118 </v>
  <v type="int" >      112 </v>
  <v type="int" >      124 </v>
  <v type="int" >       88 </v>
  <v type="int" >       90 </v>
  <v type="int" >       94 </v>
  <v type="int" >       33 </v>
  <v type="int" >        3 </v>
  <v type="int" >       35 </v>
  <v type="int" >        9 </v>
  <v type="int" >       11 </v>
  <v type="int" >       41 </v>
  <v type="int" >      121 </v>
  <v type="int" >      111 </v>
  <v type="int" >       99 </v>
  <v type="int" >       79 </v>
  <v type="int" >      100 </v>
  <v type="int" >      123 </v>
  <v type="int" >      105 </v>
  <v type="int" >       75 </v>
  <v type="int" >      115 </v>
  <v type="int" >       76 </v>
  <v type="int" >      108 </v>
  <v type="int" >      109 </v>
  <v type="int" >       47 </v>
  <v type="int" >       59 </v>
  <v type="int" >       27 </v>
  <v type="int" >       28 </v>
  <v type="int" >       40 </v>
  <v type="int" >       44 </v>
  <v type="int" >       31 </v>
  <v type="int" >       39 </v>
  <v type="int" >       55 </v>
  <v type="int" >       46 </v>
  <v type="int" >       42 </v>
  <v type="int" >       58 </v>
  <v type="int" >       85 </v>
  <v type="int" >       86 </v>
  <v type="int" >       70 </v>
  <v type="int" >       82 </v>
  <v type="int" >       22 </v>
  <v type="int" >       64 </v>
  <v type="int" >      107 </v>
  <v type="int" >       91 </v>
  <v type="int" >      103 </v>
  <v type="int" >      106 </v>
  <v type="int" >       43 </v>
 </varray>
 <kpoints>
  <generation param="Gamma">
   <v type="int" name="divisions">       2        2        2 </v>
   <v name="usershift">      0.00000000       0.00000000       0.00000000 </v>
   <v name="genvec1">      0.50000000       0.00000000       0.00000000 </v>
   <v name="genvec2">      0.00000000       0.50000000       0.00000000 </v>
   <v name="genvec3">      0.00000000       0.00000000       0.50000000 </v>
   <v name="shift">      0.00000000       0.00000000       0.00000000 </v>
  </generation>
  <varray name="kpointlist" >
   <v>       0.00000000       0.00000000       0.00000000 </v>
   <v>       0.50000000       0.00000000       0.00000000 </v>
   <v>       0.00000000       0.50000000       0.00000000 </v>
   <v>       0.50000000       0.50000000       0.00000000 </v>
   <v>       0.00000000       0.00000000       0.50000000 </v>
   <v>       0.50000000       0.00000000       0.50000000 </v>
   <v>       0.00000000       0.50000000       0.50000000 </v>
   <v>       0.50000000       0.50000000       0.50000000 </v>
  </varray>
  <varray name="weights" >
   <v>       0.12500000 </v>
   <v>       0.12500000 </v>
   <v>       0.12500000 </v>
   <v>       0.12500000 </v>
   <v>       0.12500000 </v>
   <v>       0.12500000 </v>
   <v>       0.12500000 </v>
   <v>       0.12500000 </v>
  </varray>
 </kpoints>
 <parameters>
  <separator name="general" >
   <i type="string" name="SYSTEM">potpaw_PBE@./ARUN.APL1ZEROSTATE</i>
   <i type="logical" name="LCOMPAT"> F  </i>
  </separator>
  <separator name="electronic" >
   <i type="string" name="PREC">accura</i>
   <i name="ENMAX">    500.00000000</i>
   <i name="ENAUG">    322.06900000</i>
   <i name="EDIFF">      0.00000001</i>
   <i type="int" name="IALGO">    38</i>
   <i type="int" name="IWAVPR">    10</i>
   <i type="int" name="NBANDS">   322</i>
   <i name="NELECT">    512.00000000</i>
   <i type="int" name="TURBO">     0</i>
   <i type="int" name="IRESTART">     0</i>
   <i type="int" name="NREBOOT">     0</i>
   <i type="int" name="NMIN">     0</i>
   <i name="EREF">      0.00000000</i>
   <separator name="electronic smearing" >
    <i type="int" name="ISMEAR">     0</i>
    <i name="SIGMA">      0.01000000</i>
    <i name="KSPACING">      0.50000000</i>
    <i type="logical" name="KGAMMA"> T  </i>
   </separator>
   <separator name="electronic projectors" >
    <i type="logical" name="LREAL"> F  </i>
    <v name="ROPT">      0.00000000</v>
    <i type="int" name="LMAXPAW">  -100</i>
    <i type="int" name="LMAXMIX">     2</i>
    <i type="logical" name="NLSPLINE"> F  </i>
   </separator>
   <separator name="electronic startup" >
    <i type="int" name="ISTART">     0</i>
    <i type="int" name="ICHARG">     2</i>
    <i type="int" name="INIWAV">     1</i>
   </separator>
   <separator name="electronic spin" >
    <i type="int" name="ISPIN">     1</i>
    <i type="logical" name="LNONCOLLINEAR"> F  </i>
    <v name="MAGMOM">      1.00000000      1.00000000      1.00000000      1.00000000      1.00000000      1.00000000      1.00000000      1.00000000      1.00000000      1.00000000      1.00000000      1.00000000      1.00000000      1.00000000      1.00000000      1.00000000      1.00000000      1.00000000      1.00000000      1.00000000
      1.00000000      1.00000000      1.00000000      1.00000000      1.00000000      1.00000000      1.00000000      1.00000000      1.00000000      1.00000000      1.00000000      1.00000000      1.00000000      1.00000000      1.00000000      1.00000000      1.00000000      1.00000000      1.00000000      1.00000000
      1.00000000      1.00000000      1.00000000      1.00000000      1.00000000      1.00000000      1.00000000      1.00000000      1.00000000      1.00000000      1.00000000      1.00000000      1.00000000      1.00000000      1.00000000      1.00000000      1.00000000      1.00000000      1.00000000      1.00000000
      1.00000000      1.00000000      1.00000000      1.00000000      1.00000000      1.00000000      1.00000000      1.00000000      1.00000000      1.00000000      1.00000000      1.00000000      1.00000000      1.00000000      1.00000000      1.00000000      1.00000000      1.00000000      1.00000000      1.00000000
      1.00000000      1.00000000      1.00000000      1.00000000      1.00000000      1.00000000      1.00000000      1.00000000      1.00000000      1.00000000      1.00000000      1.00000000      1.00000000      1.00000000      1.00000000      1.00000000      1.00000000      1.00000000      1.00000000      1.00000000
      1.00000000      1.00000000      1.00000000      1.00000000      1.00000000      1.00000000      1.00000000      1.00000000      1.00000000      1.00000000      1.00000000      1.00000000      1.00000000      1.00000000      1.00000000      1.00000000      1.00000000      1.00000000      1.00000000      1.00000000
      1.00000000      1.00000000      1.00000000      1.00000000      1.00000000      1.00000000      1.00000000      1.00000000</v>
    <i name="NUPDOWN">     -1.00000000</i>
    <i type="logical" name="LSORBIT"> F  </i>
    <v name="SAXIS">      0.00000000      0.00000000      1.00000000</v>
    <i type="logical" name="LSPIRAL"> F  </i>
    <v name="QSPIRAL">      0.00000000      0.00000000      0.00000000</v>
    <i type="logical" name="LZEROZ"> F  </i>
   </separator>
   <separator name="electronic exchange-correlation" >
    <i type="logical" name="LASPH"> F  </i>
    <i type="logical" name="LMETAGGA"> F  </i>
   </separator>
   <separator name="electronic convergence" >
    <i type="int" name="NELM">   120</i>
    <i type="int" name="NELMDL">    -5</i>
    <i type="int" name="NELMIN">     4</i>
    <i name="ENINI">    500.00000000</i>
    <separator name="electronic convergence detail" >
     <i type="logical" name="LDIAG"> T  </i>
     <i type="logical" name="LSUBROT"> F  </i>
     <i name="WEIMIN">      0.00000000</i>
     <i name="EBREAK">      0.00000000</i>
     <i name="DEPER">      0.30000000</i>
     <i type="int" name="NRMM">     4</i>
     <i name="TIME">      0.40000000</i>
    </separator>
   </separator>
   <separator name="electronic mixer" >
    <i name="AMIX">      0.40000000</i>
    <i name="BMIX">      1.00000000</i>
    <i name="AMIN">      0.10000000</i>
    <i name="AMIX_MAG">      1.60000000</i>
    <i name="BMIX_MAG">      1.00000000</i>
    <separator name="electronic mixer details" >
     <i type="int" name="IMIX">     4</i>
     <i type="logical" name="MIXFIRST"> F  </i>
     <i type="int" name="MAXMIX">   -45</i>
     <i name="WC">    100.00000000</i>
     <i type="int" name="INIMIX">     1</i>
     <i type="int" name="MIXPRE">     1</i>
     <i type="int" name="MREMOVE">     5</i>
    </separator>
   </separator>
   <separator name="electronic dipolcorrection" >
    <i type="logical" name="LDIPOL"> F  </i>
    <i type="logical" name="LMONO"> F  </i>
    <i type="int" name="IDIPOL">     0</i>
    <i name="EPSILON">      1.00000000</i>
    <v name="DIPOL">   -100.00000000   -100.00000000   -100.00000000</v>
    <i name="EFIELD">      0.00000000</i>
   </separator>
  </separator>
  <separator name="grids" >
   <i type="int" name="NGX">   120</i>
   <i type="int" name="NGY">   120</i>
   <i type="int" name="NGZ">   120</i>
   <i type="int" name="NGXF">   240</i>
   <i type="int" name="NGYF">   240</i>
   <i type="int" name="NGZF">   240</i>
   <i type="logical" name="ADDGRID"> T  </i>
  </separator>
  <separator name="ionic" >
   <i type="int" name="NSW">     0</i>
   <i type="int" name="IBRION">    -1</i>
   <i type="int" name="MDALGO">     0</i>
   <i type="int" name="ISIF">     2</i>
   <i name="PSTRESS">      0.00000000</i>
   <i name="EDIFFG">      0.00000010</i>
   <i type="int" name="NFREE">     0</i>
   <i name="POTIM">      0.50000000</i>
   <i name="SMASS">     -3.00000000</i>
   <i name="SCALEE">      1.00000000</i>
  </separator>
  <separator name="ionic md" >
   <i name="TEBEG">      0.00010000</i>
   <i name="TEEND">      0.00010000</i>
   <i type="int" name="NBLOCK">     1</i>
   <i type="int" name="KBLOCK">     1</i>
   <i type="int" name="NPACO">   256</i>
   <i name="APACO">     16.00000000</i>
  </separator>
  <separator name="symmetry" >
   <i type="int" name="ISYM">     2</i>
   <i name="SYMPREC">      0.00001000</i>
  </separator>
  <separator name="dos" >
   <i type="int" name="LORBIT">     0</i>
   <v name="RWIGS">     -1.00000000</v>
   <i type="int" name="NEDOS">   301</i>
   <i name="EMIN">     10.00000000</i>
   <i name="EMAX">    -10.00000000</i>
   <i name="EFERMI">      0.00000000</i>
  </separator>
  <separator name="writing" >
   <i type="int" name="NWRITE">     2</i>
   <i type="logical" name="LWAVE"> F  </i>
   <i type="logical" name="LDOWNSAMPLE"> F  </i>
   <i type="logical" name="LCHARG"> F  </i>
   <i type="logical" name="LPARD"> F  </i>
   <i type="logical" name="LVTOT"> F  </i>
   <i type="logical" name="LVHAR"> F  </i>
   <i type="logical" name="LELF"> F  </i>
   <i type="logical" name="LOPTICS"> F  </i>
   <v name="STM">      0.00000000      0.00000000      0.00000000      0.00000000      0.00000000      0.00000000      0.00000000</v>
  </separator>
  <separator name="performance" >
   <i type="int" name="NPAR">     2</i>
   <i type="int" name="NSIM">     4</i>
   <i type="int" name="NBLK">    -1</i>
   <i type="logical" name="LPLANE"> T  </i>
   <i type="logical" name="LSCALAPACK"> T  </i>
   <i type="logical" name="LSCAAWARE"> F  </i>
   <i type="logical" name="LSCALU"> F  </i>
   <i type="logical" name="LASYNC"> F  </i>
   <i type="logical" name="LORBITALREAL"> F  </i>
  </separator>
  <separator name="miscellaneous" >
   <i type="int" name="IDIOT">     3</i>
   <i type="int" name="ISPECIAL">     0</i>
   <i type="logical" name="LMUSIC"> F  </i>
   <v name="POMASS">     28.08500000</v>
   <v name="DARWINR">      0.00000000</v>
   <v name="DARWINV">      1.00000000</v>
   <i type="logical" name="LCORR"> T  </i>
  </separator>
  <i type="logical" name="GGA_COMPAT"> T  </i>
  <i type="logical" name="LBERRY"> F  </i>
  <i type="int" name="ICORELEVEL">     0</i>
  <i type="logical" name="LDAU"> F  </i>
  <i type="int" name="I_CONSTRAINED_M">     0</i>
  <separator name="electronic exchange-correlation" >
   <i type="string" name="GGA">--</i>
   <i type="int" name="VOSKOWN">     0</i>
   <i type="logical" name="LHFCALC"> F  </i>
   <i type="string" name="PRECFOCK"></i>
   <i type="logical" name="LSYMGRAD"> F  </i>
   <i type="logical" name="LHFONE"> F  </i>
   <i type="logical" name="LRHFCALC"> F  </i>
   <i type="logical" name="LTHOMAS"> F  </i>
   <i type="logical" name="LMODELHF"> F  </i>
   <i name="ENCUT4O">     -1.00000000</i>
   <i type="int" name="EXXOEP">     0</i>
   <i type="int" name="FOURORBIT">     0</i>
   <i name="AEXX">      0.00000000</i>
   <i name="HFALPHA">      0.00000000</i>
   <i name="MCALPHA">      0.00000000</i>
   <i name="ALDAX">      1.00000000</i>
   <i name="AGGAX">      1.00000000</i>
   <i name="ALDAC">      1.00000000</i>
   <i name="AGGAC">      1.00000000</i>
   <i type="int" name="NKREDX">     1</i>
   <i type="int" name="NKREDY">     1</i>
   <i type="int" name="NKREDZ">     1</i>
   <i type="logical" name="SHIFTRED"> F  </i>
   <i type="logical" name="ODDONLY"> F  </i>
   <i type="logical" name="EVENONLY"> F  </i>
   <i type="int" name="LMAXFOCK">     0</i>
   <i type="int" name="NMAXFOCKAE">     0</i>
   <i type="logical" name="LFOCKAEDFT"> F  </i>
   <i name="HFSCREEN">      0.00000000</i>
   <i name="HFSCREENC">      0.00000000</i>
   <i type="int" name="NBANDSGWLOW">     0</i>
  </separator>
  <separator name="vdW DFT" >
   <i type="logical" name="LUSE_VDW"> F  </i>
   <i name="Zab_VDW">     -0.84910000</i>
   <i name="PARAM1">      0.12340000</i>
   <i name="PARAM2">      1.00000000</i>
   <i name="PARAM3">      0.00000000</i>
  </separator>
  <separator name="model GW" >
   <i type="int" name="MODEL_GW">     0</i>
   <i name="MODEL_EPS0">     12.26607635</i>
   <i name="MODEL_ALPHA">      1.00000000</i>
  </separator>
  <separator name="linear response parameters" >
   <i type="logical" name="LEPSILON"> F  </i>
   <i type="logical" name="LRPA"> F  </i>
   <i type="logical" name="LNABLA"> F  </i>
   <i type="logical" name="LVEL"> F  </i>
   <i type="int" name="KINTER">     0</i>
   <i name="CSHIFT">      0.10000000</i>
   <i name="OMEGAMAX">     -1.00000000</i>
   <i name="DEG_THRESHOLD">      0.00200000</i>
   <i name="RTIME">     -0.10000000</i>
   <i name="WPLASMAI">      0.00000000</i>
   <v name="DFIELD">      0.00000000      0.00000000      0.00000000</v>
   <v name="WPLASMA">      0.00000000      0.00000000      0.00000000      0.00000000      0.00000000      0.00000000      0.00000000      0.00000000      0.00000000</v>
  </separator>
  <separator name="orbital magnetization" >
   <i type="logical" name="NUCIND"> F  </i>
   <v name="MAGPOS">      0.00000000      0.00000000      0.00000000</v>
   <i type="logical" name="LNICSALL"> T  </i>
   <i type="logical" name="ORBITALMAG"> F  </i>
   <i type="logical" name="LMAGBLOCH"> F  </i>
   <i type="logical" name="LCHIMAG"> F  </i>
   <i type="logical" name="LGAUGE"> T  </i>
   <i type="int" name="MAGATOM">     0</i>
   <v name="MAGDIPOL">      0.00000000      0.00000000      0.00000000</v>
   <v name="AVECCONST">      0.00000000      0.00000000      0.00000000</v>
  </separator>
  <separator name="response functions" >
   <i type="logical" name="LADDER"> F  </i>
   <i type="logical" name="LRPAFORCE"> F  </i>
   <i type="logical" name="LFXC"> F  </i>
   <i type="logical" name="LHARTREE"> T  </i>
   <i type="int" name="IBSE">     0</i>
   <v type="int" name="KPOINT">    -1     0     0     0</v>
   <i type="logical" name="LTCTE"> F  </i>
   <i type="logical" name="LTETE"> F  </i>
   <i type="logical" name="LTRIPLET"> F  </i>
   <i type="logical" name="LFXCEPS"> F  </i>
   <i type="logical" name="LFXHEG"> F  </i>
   <i type="int" name="NATURALO">     2</i>
   <i type="logical" name="L2ORDER"> F  </i>
   <i type="logical" name="LMP2LT"> F  </i>
   <i type="logical" name="LUSEW"> F  </i>
   <i name="ENCUTGW">     -2.00000000</i>
   <i name="ENCUTGWSOFT">     -2.00000000</i>
   <i name="ENCUTLF">     -1.00000000</i>
   <i type="int" name="LMAXMP2">    -1</i>
   <i name="SCISSOR">      0.00000000</i>
   <i type="int" name="NOMEGA">     0</i>
   <i type="int" name="NOMEGAR">     0</i>
   <i type="int" name="NBANDSGW">    -1</i>
   <i type="int" name="NBANDSO">    -1</i>
   <i type="int" name="NBANDSV">    -1</i>
   <i type="int" name="NELM">   120</i>
   <i type="int" name="NELMHF">     1</i>
   <i type="int" name="DIM">     3</i>
   <i type="int" name="ANTIRES">     0</i>
   <i name="OMEGAMAX">    -30.00000000</i>
   <i name="OMEGAMIN">    -30.00000000</i>
   <i name="OMEGATL">   -200.00000000</i>
   <i type="int" name="OMEGAGRID">   140</i>
   <i name="CSHIFT">     -0.10000000</i>
   <i type="logical" name="SELFENERGY"> F  </i>
   <i type="logical" name="LSPECTRAL"> F  </i>
   <i type="logical" name="LSPECTRALGW"> F  </i>
   <i type="logical" name="LSINGLES"> F  </i>
   <i type="logical" name="LFERMIGW"> F  </i>
   <i type="logical" name="ODDONLYGW"> F  </i>
   <i type="logical" name="EVENONLYGW"> F  </i>
   <i type="int" name="NKREDLFX">     1</i>
   <i type="int" name="NKREDLFY">     1</i>
   <i type="int" name="NKREDLFZ">     1</i>
   <i type="int" name="MAXMEM">  2800</i>
   <i type="int" name="TELESCOPE">     0</i>
   <i type="int" name="TAUPAR">     1</i>
   <i type="int" name="OMEGAPAR">    -1</i>
   <i name="LAMBDA">      1.00000000</i>
  </separator>
  <separator name="External order field" >
   <i name="OFIELD_KAPPA">      0.00000000</i>
   <v name="OFIELD_K">      0.00000000      0.00000000      0.00000000</v>
   <i name="OFIELD_Q6_NEAR">      0.00000000</i>
   <i name="OFIELD_Q6_FAR">      0.00000000</i>
   <i name="OFIELD_A">      0.00000000</i>
  </separator>
 </parameters>
 <atominfo>
  <atoms>     128 </atoms>
  <types>       1 </types>
  <array name="atoms" >
   <dimension dim="1">ion</dimension>
   <field type="string">element</field>
   <field type="int">atomtype</field>
   <set>
    <rc><c>Si</c><c>   1</c></rc>
    <rc><c>Si</c><c>   1</c></rc>
    <rc><c>Si</c><c>   1</c></rc>
    <rc><c>Si</c><c>   1</c></rc>
    <rc><c>Si</c><c>   1</c></rc>
    <rc><c>Si</c><c>   1</c></rc>
    <rc><c>Si</c><c>   1</c></rc>
    <rc><c>Si</c><c>   1</c></rc>
    <rc><c>Si</c><c>   1</c></rc>
    <rc><c>Si</c><c>   1</c></rc>
    <rc><c>Si</c><c>   1</c></rc>
    <rc><c>Si</c><c>   1</c></rc>
    <rc><c>Si</c><c>   1</c></rc>
    <rc><c>Si</c><c>   1</c></rc>
    <rc><c>Si</c><c>   1</c></rc>
    <rc><c>Si</c><c>   1</c></rc>
    <rc><c>Si</c><c>   1</c></rc>
    <rc><c>Si</c><c>   1</c></rc>
    <rc><c>Si</c><c>   1</c></rc>
    <rc><c>Si</c><c>   1</c></rc>
    <rc><c>Si</c><c>   1</c></rc>
    <rc><c>Si</c><c>   1</c></rc>
    <rc><c>Si</c><c>   1</c></rc>
    <rc><c>Si</c><c>   1</c></rc>
    <rc><c>Si</c><c>   1</c></rc>
    <rc><c>Si</c><c>   1</c></rc>
    <rc><c>Si</c><c>   1</c></rc>
    <rc><c>Si</c><c>   1</c></rc>
    <rc><c>Si</c><c>   1</c></rc>
    <rc><c>Si</c><c>   1</c></rc>
    <rc><c>Si</c><c>   1</c></rc>
    <rc><c>Si</c><c>   1</c></rc>
    <rc><c>Si</c><c>   1</c></rc>
    <rc><c>Si</c><c>   1</c></rc>
    <rc><c>Si</c><c>   1</c></rc>
    <rc><c>Si</c><c>   1</c></rc>
    <rc><c>Si</c><c>   1</c></rc>
    <rc><c>Si</c><c>   1</c></rc>
    <rc><c>Si</c><c>   1</c></rc>
    <rc><c>Si</c><c>   1</c></rc>
    <rc><c>Si</c><c>   1</c></rc>
    <rc><c>Si</c><c>   1</c></rc>
    <rc><c>Si</c><c>   1</c></rc>
    <rc><c>Si</c><c>   1</c></rc>
    <rc><c>Si</c><c>   1</c></rc>
    <rc><c>Si</c><c>   1</c></rc>
    <rc><c>Si</c><c>   1</c></rc>
    <rc><c>Si</c><c>   1</c></rc>
    <rc><c>Si</c><c>   1</c></rc>
    <rc><c>Si</c><c>   1</c></rc>
    <rc><c>Si</c><c>   1</c></rc>
    <rc><c>Si</c><c>   1</c></rc>
    <rc><c>Si</c><c>   1</c></rc>
    <rc><c>Si</c><c>   1</c></rc>
    <rc><c>Si</c><c>   1</c></rc>
    <rc><c>Si</c><c>   1</c></rc>
    <rc><c>Si</c><c>   1</c></rc>
    <rc><c>Si</c><c>   1</c></rc>
    <rc><c>Si</c><c>   1</c></rc>
    <rc><c>Si</c><c>   1</c></rc>
    <rc><c>Si</c><c>   1</c></rc>
    <rc><c>Si</c><c>   1</c></rc>
    <rc><c>Si</c><c>   1</c></rc>
    <rc><c>Si</c><c>   1</c></rc>
    <rc><c>Si</c><c>   1</c></rc>
    <rc><c>Si</c><c>   1</c></rc>
    <rc><c>Si</c><c>   1</c></rc>
    <rc><c>Si</c><c>   1</c></rc>
    <rc><c>Si</c><c>   1</c></rc>
    <rc><c>Si</c><c>   1</c></rc>
    <rc><c>Si</c><c>   1</c></rc>
    <rc><c>Si</c><c>   1</c></rc>
    <rc><c>Si</c><c>   1</c></rc>
    <rc><c>Si</c><c>   1</c></rc>
    <rc><c>Si</c><c>   1</c></rc>
    <rc><c>Si</c><c>   1</c></rc>
    <rc><c>Si</c><c>   1</c></rc>
    <rc><c>Si</c><c>   1</c></rc>
    <rc><c>Si</c><c>   1</c></rc>
    <rc><c>Si</c><c>   1</c></rc>
    <rc><c>Si</c><c>   1</c></rc>
    <rc><c>Si</c><c>   1</c></rc>
    <rc><c>Si</c><c>   1</c></rc>
    <rc><c>Si</c><c>   1</c></rc>
    <rc><c>Si</c><c>   1</c></rc>
    <rc><c>Si</c><c>   1</c></rc>
    <rc><c>Si</c><c>   1</c></rc>
    <rc><c>Si</c><c>   1</c></rc>
    <rc><c>Si</c><c>   1</c></rc>
    <rc><c>Si</c><c>   1</c></rc>
    <rc><c>Si</c><c>   1</c></rc>
    <rc><c>Si</c><c>   1</c></rc>
    <rc><c>Si</c><c>   1</c></rc>
    <rc><c>Si</c><c>   1</c></rc>
    <rc><c>Si</c><c>   1</c></rc>
    <rc><c>Si</c><c>   1</c></rc>
    <rc><c>Si</c><c>   1</c></rc>
    <rc><c>Si</c><c>   1</c></rc>
    <rc><c>Si</c><c>   1</c></rc>
    <rc><c>Si</c><c>   1</c></rc>
    <rc><c>Si</c><c>   1</c></rc>
    <rc><c>Si</c><c>   1</c></rc>
    <rc><c>Si</c><c>   1</c></rc>
    <rc><c>Si</c><c>   1</c></rc>
    <rc><c>Si</c><c>   1</c></rc>
    <rc><c>Si</c><c>   1</c></rc>
    <rc><c>Si</c><c>   1</c></rc>
    <rc><c>Si</c><c>   1</c></rc>
    <rc><c>Si</c><c>   1</c></rc>
    <rc><c>Si</c><c>   1</c></rc>
    <rc><c>Si</c><c>   1</c></rc>
    <rc><c>Si</c><c>   1</c></rc>
    <rc><c>Si</c><c>   1</c></rc>
    <rc><c>Si</c><c>   1</c></rc>
    <rc><c>Si</c><c>   1</c></rc>
    <rc><c>Si</c><c>   1</c></rc>
    <rc><c>Si</c><c>   1</c></rc>
    <rc><c>Si</c><c>   1</c></rc>
    <rc><c>Si</c><c>   1</c></rc>
    <rc><c>Si</c><c>   1</c></rc>
    <rc><c>Si</c><c>   1</c></rc>
    <rc><c>Si</c><c>   1</c></rc>
    <rc><c>Si</c><c>   1</c></rc>
    <rc><c>Si</c><c>   1</c></rc>
    <rc><c>Si</c><c>   1</c></rc>
    <rc><c>Si</c><c>   1</c></rc>
    <rc><c>Si</c><c>   1</c></rc>
    <rc><c>Si</c><c>   1</c></rc>
   </set>
  </array>
  <array name="atomtypes" >
   <dimension dim="1">type</dimension>
   <field type="int">atomspertype</field>
   <field type="string">element</field>
   <field>mass</field>
   <field>valence</field>
   <field type="string">pseudopotential</field>
   <set>
    <rc><c> 128</c><c>Si</c><c>     28.08500000</c><c>      4.00000000</c><c> PAW_PBE Si 05Jan2001                   </c></rc>
   </set>
  </array>
 </atominfo>
 <structure name="initialpos" >
  <crystal>
   <varray name="basis" >
    <v>       0.00000000      10.93733369      10.93733369 </v>
    <v>      10.93733369       0.00000000      10.93733369 </v>
    <v>      10.93733369      10.93733369       0.00000000 </v>
   </varray>
   <i name="volume">   2616.76295363 </i>
   <varray name="rec_basis" >
    <v>      -0.04571498       0.04571498       0.04571498 </v>
    <v>       0.04571498      -0.04571498       0.04571498 </v>
    <v>       0.04571498       0.04571498      -0.04571498 </v>
   </varray>
  </crystal>
  <varray name="positions" >
   <v>       0.99513387       0.00007243       0.99958073 </v>
   <v>       0.25079890       0.99337314       0.98643069 </v>
   <v>       0.49702633       0.00006957       0.00931113 </v>
   <v>       0.75950130       0.99769087       0.99761774 </v>
   <v>       0.99506783       0.24603044       0.00824050 </v>
   <v>       0.25272314       0.25650524       0.99203517 </v>
   <v>       0.50634004       0.25627942       0.99546403 </v>
   <v>       0.74623176       0.25982078       0.98516886 </v>
   <v>       0.00343697       0.50533737       0.99338386 </v>
   <v>       0.24264527       0.49719623       0.00322554 </v>
   <v>       0.49497144       0.51078829       0.98711978 </v>
   <v>       0.74219943       0.49859428       0.00476947 </v>
   <v>       0.00398982       0.75066358       0.99061308 </v>
   <v>       0.24657372       0.75012896       0.00403860 </v>
   <v>       0.50952715       0.74579235       0.99664284 </v>
   <v>       0.74069529       0.75602652       0.99732650 </v>
   <v>       0.99978327       0.99746214       0.24123300 </v>
   <v>       0.26548406       0.00484161       0.23445280 </v>
   <v>       0.49858519       0.00175414       0.25144004 </v>
   <v>       0.75187301       0.00487893       0.23903340 </v>
   <v>       0.00059484       0.24201399       0.24654707 </v>
   <v>       0.24878583       0.26042533       0.25403673 </v>
   <v>       0.48997273       0.24675234       0.26577030 </v>
   <v>       0.75206687       0.24579821       0.25440038 </v>
   <v>       0.99945191       0.51006073       0.24791611 </v>
   <v>       0.25014988       0.50174918       0.26092440 </v>
   <v>       0.51299099       0.49302012       0.24293978 </v>
   <v>       0.75815392       0.50226923       0.23570649 </v>
   <v>       0.00630698       0.73661005       0.25670945 </v>
   <v>       0.25273392       0.75782908       0.25150983 </v>
   <v>       0.49864763       0.75050781       0.24876373 </v>
   <v>       0.75013785       0.75267742       0.24795562 </v>
   <v>       0.99969858       0.00048690       0.50930751 </v>
   <v>       0.25730308       0.99840428       0.48846974 </v>
   <v>       0.49671454       0.99155038       0.51413439 </v>
   <v>       0.75369126       0.00222933       0.48664777 </v>
   <v>       0.99734187       0.24679534       0.50369962 </v>
   <v>       0.24776228       0.26206645       0.49937168 </v>
   <v>       0.49819734       0.26095309       0.48929787 </v>
   <v>       0.74966504       0.23946033       0.49938661 </v>
   <v>       0.99018090       0.50083991       0.49339700 </v>
   <v>       0.24941192       0.50446127       0.50070929 </v>
   <v>       0.51516600       0.50118659       0.49066589 </v>
   <v>       0.74580870       0.50448197       0.49465779 </v>
   <v>       0.98635962       0.75834314       0.50108542 </v>
   <v>       0.25133272       0.75325379       0.49423537 </v>
   <v>       0.51090034       0.75744463       0.48895217 </v>
   <v>       0.75983240       0.74917119       0.50386742 </v>
   <v>       0.99448333       0.01124586       0.75208446 </v>
   <v>       0.23731850       0.01091136       0.75217432 </v>
   <v>       0.48376782       0.00857704       0.75774614 </v>
   <v>       0.73878909       0.00972085       0.74641086 </v>
   <v>       0.00622992       0.25360702       0.73790900 </v>
   <v>       0.24647545       0.26123404       0.75193494 </v>
   <v>       0.50388544       0.24512078       0.74331916 </v>
   <v>       0.74822790       0.24377711       0.75712059 </v>
   <v>       0.00162904       0.50354389       0.75070894 </v>
   <v>       0.25641357       0.49492380       0.74684569 </v>
   <v>       0.51532956       0.48925402       0.74540302 </v>
   <v>       0.75233957       0.48671637       0.75121267 </v>
   <v>       0.01783676       0.74077338       0.74689774 </v>
   <v>       0.25152137       0.74337431       0.75167317 </v>
   <v>       0.49705222       0.75250382       0.75329474 </v>
   <v>       0.74752286       0.75854866       0.74660874 </v>
   <v>       0.07290101       0.04620061       0.06497827 </v>
   <v>       0.31956951       0.05686738       0.05696549 </v>
   <v>       0.57069239       0.05773169       0.06126042 </v>
   <v>       0.81871119       0.06191254       0.05643773 </v>
   <v>       0.06685503       0.31603873       0.05912119 </v>
   <v>       0.30413509       0.31587705       0.05931029 </v>
   <v>       0.56239489       0.31879409       0.05995887 </v>
   <v>       0.81178429       0.31123424       0.05395696 </v>
   <v>       0.05880439       0.56110372       0.06998344 </v>
   <v>       0.31106896       0.56445735       0.05933059 </v>
   <v>       0.56497987       0.56057796       0.06143719 </v>
   <v>       0.81170243       0.56560712       0.05582592 </v>
   <v>       0.06381021       0.81937186       0.06685748 </v>
   <v>       0.31662714       0.81117814       0.05936709 </v>
   <v>       0.56549311       0.82040345       0.04996371 </v>
   <v>       0.81075092       0.80865235       0.06806343 </v>
   <v>       0.05691337       0.05823166       0.31564643 </v>
   <v>       0.30343435       0.08107198       0.30336775 </v>
   <v>       0.55718657       0.05597520       0.32275629 </v>
   <v>       0.81025236       0.06824735       0.30201520 </v>
   <v>       0.06975202       0.32320331       0.30065220 </v>
   <v>       0.32099348       0.31485431       0.31296712 </v>
   <v>       0.56924958       0.30973645       0.31106129 </v>
   <v>       0.80297417       0.32538821       0.30914860 </v>
   <v>       0.06498079       0.56175034       0.31936745 </v>
   <v>       0.31377736       0.55520403       0.31742525 </v>
   <v>       0.56650840       0.56092119       0.30099135 </v>
   <v>       0.81041543       0.56116605       0.31068139 </v>
   <v>       0.05708714       0.81973643       0.31419550 </v>
   <v>       0.32039486       0.81156353       0.31005748 </v>
   <v>       0.55572346       0.81447011       0.31076767 </v>
   <v>       0.82565930       0.80724087       0.30657430 </v>
   <v>       0.05845200       0.04965162       0.57755217 </v>
   <v>       0.32049649       0.05061322       0.55809800 </v>
   <v>       0.57495097       0.05961864       0.55253912 </v>
   <v>       0.80607002       0.06183512       0.56905309 </v>
   <v>       0.05516870       0.32371939       0.56166675 </v>
   <v>       0.29950820       0.32504252       0.56790590 </v>
   <v>       0.57310814       0.31887493       0.54814039 </v>
   <v>       0.80712910       0.32064638       0.56060911 </v>
   <v>       0.07860414       0.56203195       0.54911353 </v>
   <v>       0.31622227       0.55962810       0.56070579 </v>
   <v>       0.55699334       0.55497180       0.57492733 </v>
   <v>       0.81552055       0.56065639       0.56091335 </v>
   <v>       0.06196969       0.81414275       0.55897517 </v>
   <v>       0.31079599       0.80867569       0.56491979 </v>
   <v>       0.56913695       0.82088070       0.55293641 </v>
   <v>       0.81194786       0.81591450       0.56711971 </v>
   <v>       0.05775488       0.06795258       0.81039238 </v>
   <v>       0.31378105       0.06027989       0.80986801 </v>
   <v>       0.55107876       0.06360347       0.82269719 </v>
   <v>       0.82015739       0.05381404       0.80881076 </v>
   <v>       0.07459984       0.31351506       0.81559210 </v>
   <v>       0.31638113       0.30981383       0.80889453 </v>
   <v>       0.56107466       0.31589429       0.81046300 </v>
   <v>       0.81816704       0.31039045       0.81009859 </v>
   <v>       0.07447731       0.56369807       0.82079092 </v>
   <v>       0.30634934       0.56339558       0.81767105 </v>
   <v>       0.56618624       0.56023766       0.81108306 </v>
   <v>       0.81323239       0.57033736       0.81021223 </v>
   <v>       0.05140602       0.80725054       0.81694200 </v>
   <v>       0.31095446       0.82352731       0.81131388 </v>
   <v>       0.54982108       0.81082835       0.81870738 </v>
   <v>       0.82531290       0.82491364       0.80374339 </v>
  </varray>
 </structure>
 <calculation>
  <scstep>
   <time name="dav">   70.45   70.47</time>
   <time name="total">   71.45   71.48</time>
   <energy>
    <i name="alphaZ">    210.77028614 </i>
    <i name="ewald"> -14469.53952038 </i>
    <i name="hartreedc">   -757.42320592 </i>
    <i name="XCdc">  -1195.30159980 </i>
    <i name="pawpsdc">   4221.13331941 </i>
    <i name="pawaedc">  -1969.18571412 </i>
    <i name="eentropy">     -0.00040850 </i>
    <i name="bandstr">   2151.39921624 </i>
    <i name="atom">  13192.48085998 </i>
    <i name="e_fr_energy">   1384.33323306 </i>
    <i name="e_wo_entrp">   1384.33364155 </i>
    <i name="e_0_energy">   1384.33343731 </i>
   </energy>
  </scstep>
  <scstep>
   <time name="dav">   80.35   80.38</time>
   <time name="total">   80.35   80.38</time>
   <energy>
    <i name="e_fr_energy">   -537.00660944 </i>
    <i name="e_wo_entrp">   -537.00660944 </i>
    <i name="e_0_energy">   -537.00660944 </i>
   </energy>
  </scstep>
  <scstep>
   <time name="dav">   81.89   81.90</time>
   <time name="total">   81.89   81.90</time>
   <energy>
    <i name="e_fr_energy">   -686.62399561 </i>
    <i name="e_wo_entrp">   -686.62399561 </i>
    <i name="e_0_energy">   -686.62399561 </i>
   </energy>
  </scstep>
  <scstep>
   <time name="dav">   81.07   81.09</time>
   <time name="total">   81.07   81.09</time>
   <energy>
    <i name="e_fr_energy">   -690.94075102 </i>
    <i name="e_wo_entrp">   -690.94075102 </i>
    <i name="e_0_energy">   -690.94075102 </i>
   </energy>
  </scstep>
  <scstep>
   <time name="dav">   82.71   82.73</time>
   <time name="total">   85.97   86.00</time>
   <energy>
    <i name="e_fr_energy">   -691.09402359 </i>
    <i name="e_wo_entrp">   -691.09402359 </i>
    <i name="e_0_energy">   -691.09402359 </i>
   </energy>
  </scstep>
  <scstep>
   <time name="dav">   77.70   77.71</time>
   <time name="total">   81.96   81.98</time>
   <energy>
    <i name="e_fr_energy">   -682.53234329 </i>
    <i name="e_wo_entrp">   -682.53234329 </i>
    <i name="e_0_energy">   -682.53234329 </i>
   </energy>
  </scstep>
  <scstep>
   <time name="dav">   77.58   77.60</time>
   <time name="total">   81.86   81.88</time>
   <energy>
    <i name="e_fr_energy">   -679.00368320 </i>
    <i name="e_wo_entrp">   -679.00368320 </i>
    <i name="e_0_energy">   -679.00368320 </i>
   </energy>
  </scstep>
  <scstep>
   <time name="dav">   76.37   76.38</time>
   <time name="total">   80.66   80.68</time>
   <energy>
    <i name="e_fr_energy">   -679.05490503 </i>
    <i name="e_wo_entrp">   -679.05490503 </i>
    <i name="e_0_energy">   -679.05490503 </i>
   </energy>
  </scstep>
  <scstep>
   <time name="dav">   79.76   79.78</time>
   <time name="total">   84.06   84.08</time>
   <energy>
    <i name="e_fr_energy">   -679.07803031 </i>
    <i name="e_wo_entrp">   -679.07803031 </i>
    <i name="e_0_energy">   -679.07803031 </i>
   </energy>
  </scstep>
  <scstep>
   <time name="dav">   78.55   78.56</time>
   <time name="total">   82.85   82.86</time>
   <energy>
    <i name="e_fr_energy">   -679.08061981 </i>
    <i name="e_wo_entrp">   -679.08061981 </i>
    <i name="e_0_energy">   -679.08061981 </i>
   </energy>
  </scstep>
  <scstep>
   <time name="dav">   77.07   77.08</time>
   <time name="total">   81.38   81.39</time>
   <energy>
    <i name="e_fr_energy">   -679.08212562 </i>
    <i name="e_wo_entrp">   -679.08212562 </i>
    <i name="e_0_energy">   -679.08212562 </i>
   </energy>
  </scstep>
  <scstep>
   <time name="dav">   80.45   80.46</time>
   <time name="total">   84.76   84.78</time>
   <energy>
    <i name="e_fr_energy">   -679.08219688 </i>
    <i name="e_wo_entrp">   -679.08219688 </i>
    <i name="e_0_energy">   -679.08219688 </i>
   </energy>
  </scstep>
  <scstep>
   <time name="dav">   76.15   76.17</time>
   <time name="total">   80.42   80.45</time>
   <energy>
    <i name="e_fr_energy">   -679.08222936 </i>
    <i name="e_wo_entrp">   -679.08222936 </i>
    <i name="e_0_energy">   -679.08222936 </i>
   </energy>
  </scstep>
  <scstep>
   <time name="dav">   80.59   80.61</time>
   <time name="total">   84.87   84.89</time>
   <energy>
    <i name="e_fr_energy">   -679.08223447 </i>
    <i name="e_wo_entrp">   -679.08223447 </i>
    <i name="e_0_energy">   -679.08223447 </i>
   </energy>
  </scstep>
  <scstep>
   <time name="dav">   80.21   80.22</time>
   <time name="total">   84.49   84.50</time>
   <energy>
    <i name="e_fr_energy">   -679.08223806 </i>
    <i name="e_wo_entrp">   -679.08223806 </i>
    <i name="e_0_energy">   -679.08223806 </i>
   </energy>
  </scstep>
  <scstep>
   <time name="dav">   79.39   79.40</time>
   <time name="total">   83.48   83.50</time>
   <energy>
    <i name="e_fr_energy">   -679.08223752 </i>
    <i name="e_wo_entrp">   -679.08223752 </i>
    <i name="e_0_energy">   -679.08223752 </i>
   </energy>
  </scstep>
  <scstep>
   <time name="dav">   63.88   63.91</time>
   <time name="total">   67.95   67.98</time>
   <energy>
    <i name="e_fr_energy">   -679.08223746 </i>
    <i name="e_wo_entrp">   -679.08223746 </i>
    <i name="e_0_energy">   -679.08223746 </i>
   </energy>
  </scstep>
  <scstep>
   <time name="dav">   52.12   52.12</time>
   <time name="total">   56.19   56.20</time>
   <energy>
    <i name="e_fr_energy">   -679.08223764 </i>
    <i name="e_wo_entrp">   -679.08223764 </i>
    <i name="e_0_energy">   -679.08223764 </i>
   </energy>
  </scstep>
  <scstep>
   <time name="dav">   50.56   50.56</time>
   <time name="total">   54.62   54.63</time>
   <energy>
    <i name="e_fr_energy">   -679.08223757 </i>
    <i name="e_wo_entrp">   -679.08223757 </i>
    <i name="e_0_energy">   -679.08223757 </i>
   </energy>
  </scstep>
  <scstep>
   <time name="dav">   50.52   50.53</time>
   <time name="total">   51.52   51.54</time>
   <energy>
    <i name="alphaZ">    210.77028614 </i>
    <i name="ewald"> -14469.53952038 </i>
    <i name="hartreedc">  -1003.24695936 </i>
    <i name="XCdc">  -1155.77284035 </i>
    <i name="pawpsdc">   4731.86446245 </i>
    <i name="pawaedc">  -2493.61752850 </i>
    <i name="eentropy">     -0.00000000 </i>
    <i name="bandstr">    307.97900244 </i>
    <i name="atom">  13192.48085998 </i>
    <i name="e_fr_energy">   -679.08223757 </i>
    <i name="e_wo_entrp">   -679.08223757 </i>
    <i name="e_0_energy">   -679.08223757 </i>
   </energy>
  </scstep>
  <structure>
   <crystal>
    <varray name="basis" >
     <v>       0.00000000      10.93733369      10.93733369 </v>
     <v>      10.93733369       0.00000000      10.93733369 </v>
     <v>      10.93733369      10.93733369       0.00000000 </v>
    </varray>
    <i name="volume">   2616.76295363 </i>
    <varray name="rec_basis" >
     <v>      -0.04571498       0.04571498       0.04571498 </v>
     <v>       0.04571498      -0.04571498       0.04571498 </v>
     <v>       0.04571498       0.04571498      -0.04571498 </v>
    </varray>
   </crystal>
   <varray name="positions" >
    <v>       0.99513387       0.00007243       0.99958073 </v>
    <v>       0.25079890       0.99337314       0.98643069 </v>
    <v>       0.49702633       0.00006957       0.00931113 </v>
    <v>       0.75950130       0.99769087       0.99761774 </v>
    <v>       0.99506783       0.24603044       0.00824050 </v>
    <v>       0.25272314       0.25650524       0.99203517 </v>
    <v>       0.50634004       0.25627942       0.99546403 </v>
    <v>       0.74623176       0.25982078       0.98516886 </v>
    <v>       0.00343697       0.50533737       0.99338386 </v>
    <v>       0.24264527       0.49719623       0.00322554 </v>
    <v>       0.49497144       0.51078829       0.98711978 </v>
    <v>       0.74219943       0.49859428       0.00476947 </v>
    <v>       0.00398982       0.75066358       0.99061308 </v>
    <v>       0.24657372       0.75012896       0.00403860 </v>
    <v>       0.50952715       0.74579235       0.99664284 </v>
    <v>       0.74069529       0.75602652       0.99732650 </v>
    <v>       0.99978327       0.99746214       0.24123300 </v>
    <v>       0.26548406       0.00484161       0.23445280 </v>
    <v>       0.49858519       0.00175414       0.25144004 </v>
    <v>       0.75187301       0.00487893       0.23903340 </v>
    <v>       0.00059484       0.24201399       0.24654707 </v>
    <v>       0.24878583       0.26042533       0.25403673 </v>
    <v>       0.48997273       0.24675234       0.26577030 </v>
    <v>       0.75206687       0.24579821       0.25440038 </v>
    <v>       0.99945191       0.51006073       0.24791611 </v>
    <v>       0.25014988       0.50174918       0.26092440 </v>
    <v>       0.51299099       0.49302012       0.24293978 </v>
    <v>       0.75815392       0.50226923       0.23570649 </v>
    <v>       0.00630698       0.73661005       0.25670945 </v>
    <v>       0.25273392       0.75782908       0.25150983 </v>
    <v>       0.49864763       0.75050781       0.24876373 </v>
    <v>       0.75013785       0.75267742       0.24795562 </v>
    <v>       0.99969858       0.00048690       0.50930751 </v>
    <v>       0.25730308       0.99840428       0.48846974 </v>
    <v>       0.49671454       0.99155038       0.51413439 </v>
    <v>       0.75369126       0.00222933       0.48664777 </v>
    <v>       0.99734187       0.24679534       0.50369962 </v>
    <v>       0.24776228       0.26206645       0.49937168 </v>
    <v>       0.49819734       0.26095309       0.48929787 </v>
    <v>       0.74966504       0.23946033       0.49938661 </v>
    <v>       0.99018090       0.50083991       0.49339700 </v>
    <v>       0.24941192       0.50446127       0.50070929 </v>
    <v>       0.51516600       0.50118659       0.49066589 </v>
    <v>       0.74580870       0.50448197       0.49465779 </v>
    <v>       0.98635962       0.75834314       0.50108542 </v>
    <v>       0.25133272       0.75325379       0.49423537 </v>
    <v>       0.51090034       0.75744463       0.48895217 </v>
    <v>       0.75983240       0.74917119       0.50386742 </v>
    <v>       0.99448333       0.01124586       0.75208446 </v>
    <v>       0.23731850       0.01091136       0.75217432 </v>
    <v>       0.48376782       0.00857704       0.75774614 </v>
    <v>       0.73878909       0.00972085       0.74641086 </v>
    <v>       0.00622992       0.25360702       0.73790900 </v>
    <v>       0.24647545       0.26123404       0.75193494 </v>
    <v>       0.50388544       0.24512078       0.74331916 </v>
    <v>       0.74822790       0.24377711       0.75712059 </v>
    <v>       0.00162904       0.50354389       0.75070894 </v>
    <v>       0.25641357       0.49492380       0.74684569 </v>
    <v>       0.51532956       0.48925402       0.74540302 </v>
    <v>       0.75233957       0.48671637       0.75121267 </v>
    <v>       0.01783676       0.74077338       0.74689774 </v>
    <v>       0.25152137       0.74337431       0.75167317 </v>
    <v>       0.49705222       0.75250382       0.75329474 </v>
    <v>       0.74752286       0.75854866       0.74660874 </v>
    <v>       0.07290101       0.04620061       0.06497827 </v>
    <v>       0.31956951       0.05686738       0.05696549 </v>
    <v>       0.57069239       0.05773169       0.06126042 </v>
    <v>       0.81871119       0.06191254       0.05643773 </v>
    <v>       0.06685503       0.31603873       0.05912119 </v>
    <v>       0.30413509       0.31587705       0.05931029 </v>
    <v>       0.56239489       0.31879409       0.05995887 </v>
    <v>       0.81178429       0.31123424       0.05395696 </v>
    <v>       0.05880439       0.56110372       0.06998344 </v>
    <v>       0.31106896       0.56445735       0.05933059 </v>
    <v>       0.56497987       0.56057796       0.06143719 </v>
    <v>       0.81170243       0.56560712       0.05582592 </v>
    <v>       0.06381021       0.81937186       0.06685748 </v>
    <v>       0.31662714       0.81117814       0.05936709 </v>
    <v>       0.56549311       0.82040345       0.04996371 </v>
    <v>       0.81075092       0.80865235       0.06806343 </v>
    <v>       0.05691337       0.05823166       0.31564643 </v>
    <v>       0.30343435       0.08107198       0.30336775 </v>
    <v>       0.55718657       0.05597520       0.32275629 </v>
    <v>       0.81025236       0.06824735       0.30201520 </v>
    <v>       0.06975202       0.32320331       0.30065220 </v>
    <v>       0.32099348       0.31485431       0.31296712 </v>
    <v>       0.56924958       0.30973645       0.31106129 </v>
    <v>       0.80297417       0.32538821       0.30914860 </v>
    <v>       0.06498079       0.56175034       0.31936745 </v>
    <v>       0.31377736       0.55520403       0.31742525 </v>
    <v>       0.56650840       0.56092119       0.30099135 </v>
    <v>       0.81041543       0.56116605       0.31068139 </v>
    <v>       0.05708714       0.81973643       0.31419550 </v>
    <v>       0.32039486       0.81156353       0.31005748 </v>
    <v>       0.55572346       0.81447011       0.31076767 </v>
    <v>       0.82565930       0.80724087       0.30657430 </v>
    <v>       0.05845200       0.04965162       0.57755217 </v>
    <v>       0.32049649       0.05061322       0.55809800 </v>
    <v>       0.57495097       0.05961864       0.55253912 </v>
    <v>       0.80607002       0.06183512       0.56905309 </v>
    <v>       0.05516870       0.32371939       0.56166675 </v>
    <v>       0.29950820       0.32504252       0.56790590 </v>
    <v>       0.57310814       0.31887493       0.54814039 </v>
    <v>       0.80712910       0.32064638       0.56060911 </v>
    <v>       0.07860414       0.56203195       0.54911353 </v>
    <v>       0.31622227       0.55962810       0.56070579 </v>
    <v>       0.55699334       0.55497180       0.57492733 </v>
    <v>       0.81552055       0.56065639       0.56091335 </v>
    <v>       0.06196969       0.81414275       0.55897517 </v>
    <v>       0.31079599       0.80867569       0.56491979 </v>
    <v>       0.56913695       0.82088070       0.55293641 </v>
    <v>       0.81194786       0.81591450       0.56711971 </v>
    <v>       0.05775488       0.06795258       0.81039238 </v>
    <v>       0.31378105       0.06027989       0.80986801 </v>
    <v>       0.55107876       0.06360347       0.82269719 </v>
    <v>       0.82015739       0.05381404       0.80881076 </v>
    <v>       0.07459984       0.31351506       0.81559210 </v>
    <v>       0.31638113       0.30981383       0.80889453 </v>
    <v>       0.56107466       0.31589429       0.81046300 </v>
    <v>       0.81816704       0.31039045       0.81009859 </v>
    <v>       0.07447731       0.56369807       0.82079092 </v>
    <v>       0.30634934       0.56339558       0.81767105 </v>
    <v>       0.56618624       0.56023766       0.81108306 </v>
    <v>       0.81323239       0.57033736       0.81021223 </v>
    <v>       0.05140602       0.80725054       0.81694200 </v>
    <v>       0.31095446       0.82352731       0.81131388 </v>
    <v>       0.54982108       0.81082835       0.81870738 </v>
    <v>       0.82531290       0.82491364       0.80374339 </v>
   </varray>
  </structure>
  <varray name="forces" >
   <v>      -0.16085260       0.80020136       1.44955150 </v>
   <v>       1.11636987       1.99106173       0.64148057 </v>
   <v>      -0.65007191      -0.18733745       0.99494003 </v>
   <v>      -0.61221757      -0.43839251      -0.87859355 </v>
   <v>      -1.03618560       0.58982342       0.99490827 </v>
   <v>      -0.94116866       0.32076608      -1.46299797 </v>
   <v>      -0.09614737      -0.54934671      -1.67237351 </v>
   <v>       0.36148861       1.94308188      -1.05990176 </v>
   <v>       1.34957449       1.12074280      -1.59815603 </v>
   <v>       0.47664459       0.17578542       0.76418295 </v>
   <v>       0.70900967       1.95499708      -0.75681896 </v>
   <v>      -1.29941169       0.48987633       1.51193870 </v>
   <v>       1.89829034       1.69009939      -1.21661706 </v>
   <v>      -0.50778411      -0.16550378       0.78181057 </v>
   <v>       0.93288435      -0.24172190      -0.89975696 </v>
   <v>      -1.01779223       1.40103698       1.76085511 </v>
   <v>       1.74765153       0.53865006      -0.15096047 </v>
   <v>       1.21870405      -0.04008711      -2.23617720 </v>
   <v>       0.07391392      -0.78046957      -0.21847742 </v>
   <v>       0.26702347       0.52704026      -1.23995426 </v>
   <v>       1.51410913      -0.16625287       1.09121964 </v>
   <v>      -0.73689116      -0.73390044       0.83514333 </v>
   <v>      -2.58196071       1.25632753       2.43037090 </v>
   <v>      -0.25057276      -1.32381455       1.27264838 </v>
   <v>       0.41041870       0.60715095      -0.86275233 </v>
   <v>      -2.02408963      -1.48905791      -0.28108485 </v>
   <v>       0.72682855      -0.96598195      -1.35467703 </v>
   <v>       1.47484087      -0.33366550      -0.17098237 </v>
   <v>       0.98008895      -0.92028742       2.09888359 </v>
   <v>      -0.99887110      -0.69130418      -1.27672464 </v>
   <v>      -1.60344874       0.02956231       0.60741968 </v>
   <v>       0.43809860       0.42762046      -0.88420208 </v>
   <v>      -0.90518134      -1.42165698      -1.04488101 </v>
   <v>       0.69414579      -0.10604843      -1.26533371 </v>
   <v>       0.15351421      -0.73454848       2.31336572 </v>
   <v>       0.15272412       1.38418614       0.37630914 </v>
   <v>      -0.26643740      -0.29003976       0.55545940 </v>
   <v>      -0.87063399       0.24407101      -1.31714429 </v>
   <v>       0.80509003       1.19109121      -1.13039117 </v>
   <v>       0.91569636      -0.01213229       2.39425406 </v>
   <v>       1.09687966       2.06193318       1.35031420 </v>
   <v>      -1.00443678       0.78001269       1.29017567 </v>
   <v>       0.31493724      -1.20882737      -0.89691000 </v>
   <v>       0.58219846       0.37548480      -0.11624756 </v>
   <v>      -1.55480382       1.95520990       1.15333101 </v>
   <v>      -0.09480115       0.44883220      -0.61014871 </v>
   <v>       0.62347747       0.55069010      -2.47468784 </v>
   <v>      -0.67334985      -1.22450371      -0.27044629 </v>
   <v>      -1.69868951       1.39029423      -1.37549990 </v>
   <v>      -1.89729561       0.27471759       0.68976051 </v>
   <v>      -2.93108660       1.71775104       1.70958735 </v>
   <v>       0.40428821       1.21037441      -0.52307657 </v>
   <v>       1.86606107       1.48408735      -0.13554437 </v>
   <v>      -2.36874485       0.95230671      -0.43374217 </v>
   <v>       0.71967930      -0.32500367       1.07914721 </v>
   <v>      -0.47877154      -0.45947687       0.73392018 </v>
   <v>      -0.16162561       0.34637081       0.85602933 </v>
   <v>       0.42693089       0.33008928       0.53659329 </v>
   <v>       3.28115280      -0.40218986      -0.95352595 </v>
   <v>       1.47926269      -0.40930134       2.08034406 </v>
   <v>      -0.08986105      -2.43314080      -0.52583875 </v>
   <v>       1.67970885      -0.62359027       0.60972031 </v>
   <v>      -1.65195103      -1.06357623      -0.21640637 </v>
   <v>       1.27118158       0.77714788      -0.44742495 </v>
   <v>       0.66142530      -2.34494030       0.68748669 </v>
   <v>       0.26919546      -2.24769853      -0.05303192 </v>
   <v>       1.09260490      -0.06938547       0.76820875 </v>
   <v>       1.36166881      -1.47109080       0.03373213 </v>
   <v>      -0.20097447      -0.52478685      -0.92212565 </v>
   <v>       0.15912260       2.29236728       0.98565344 </v>
   <v>       0.91580637       0.09988225      -0.56352052 </v>
   <v>       0.95878422       0.53159666      -0.51060410 </v>
   <v>      -0.39389895      -1.25536468       0.84399710 </v>
   <v>       0.59449319       0.13368520      -0.94484891 </v>
   <v>       0.00486175      -1.34912255      -0.55251640 </v>
   <v>      -0.55171670      -0.47079766       0.61787091 </v>
   <v>      -1.30512482      -0.41984686      -1.55473806 </v>
   <v>      -0.21407665       0.84600532      -0.35198704 </v>
   <v>       1.00568554       0.27358058      -1.68828889 </v>
   <v>      -0.97289091      -0.65774194       0.80467430 </v>
   <v>      -0.77305341       0.78701769       0.60162825 </v>
   <v>      -1.06516249       1.29993900      -0.09132630 </v>
   <v>      -0.03985103       0.22275660       0.65966985 </v>
   <v>      -0.83218344       0.82104518      -0.10001877 </v>
   <v>       0.57977117      -0.12531440      -2.30748623 </v>
   <v>       1.90113179      -1.68373233      -1.39839931 </v>
   <v>      -0.49091687      -0.75713165      -0.28549140 </v>
   <v>      -1.60763623       1.84412977      -0.59327192 </v>
   <v>      -1.85575830      -0.35115868      -0.27320540 </v>
   <v>       0.93678840       0.70945900       2.58153901 </v>
   <v>       0.89440573       0.93448562       1.07111761 </v>
   <v>       0.17272073      -0.23472528       0.72460342 </v>
   <v>      -1.10248528       0.82983206      -0.61914238 </v>
   <v>       1.15589525      -0.61709873       0.38148899 </v>
   <v>      -0.50510849       0.33865510       1.19857281 </v>
   <v>       1.39478823      -0.53155761      -0.69262163 </v>
   <v>      -0.20170070      -0.37740056       3.11235461 </v>
   <v>       2.52292220      -1.16907016      -0.21880225 </v>
   <v>       2.35888634      -0.87916481      -0.96000568 </v>
   <v>      -2.03152979      -0.31528014       0.38880353 </v>
   <v>      -2.37828562      -0.02629175      -0.22839665 </v>
   <v>      -1.37054211       0.99991951       0.38938298 </v>
   <v>       0.34005934      -0.14786650      -1.98246758 </v>
   <v>      -0.88756713       0.76394599      -1.02383693 </v>
   <v>       2.51996276      -2.19529226      -2.56208842 </v>
   <v>       0.17844547       0.21326524       1.19223445 </v>
   <v>      -0.82619279      -1.76407008       3.13963181 </v>
   <v>       1.09996452      -1.15612648      -1.22016243 </v>
   <v>      -0.16535351       0.22961574      -0.07326978 </v>
   <v>      -0.48041274       0.26116765       1.19301295 </v>
   <v>      -0.96295128       2.14159456      -1.60214549 </v>
   <v>       0.38057467      -1.21757049      -0.32762270 </v>
   <v>       0.95000167       0.27595908       0.05754634 </v>
   <v>       1.60035194      -2.78599332       0.03705508 </v>
   <v>      -0.41746737       0.22212010       0.01511021 </v>
   <v>       1.66082541      -1.32795995      -0.69916110 </v>
   <v>       1.16262417      -2.12992722      -2.38919114 </v>
   <v>       0.50226062       0.73069575       1.13857032 </v>
   <v>      -1.53325031       0.99518883      -1.32634306 </v>
   <v>      -1.62734799      -0.34251000      -0.10029527 </v>
   <v>      -2.27123087      -1.60661231      -0.51739174 </v>
   <v>      -1.66716253       0.90561937       0.34470808 </v>
   <v>      -0.68940093      -1.06816348       0.84582998 </v>
   <v>      -0.58300776      -0.16308811      -0.99713339 </v>
   <v>       0.53452811       0.47646555       3.57935329 </v>
   <v>      -0.38256431      -0.13346715      -1.36226368 </v>
   <v>       0.14367108       0.38562512       2.45312715 </v>
   <v>      -0.62515440      -0.24558540      -1.75896849 </v>
  </varray>
  <varray name="stress" >
   <v>      13.21079055      -1.20971756      -6.31140968 </v>
   <v>      -1.20971756      14.52068739      -0.36620762 </v>
   <v>      -6.31140968      -0.36620761      11.47226800 </v>
  </varray>
  <energy>
   <i name="e_fr_energy">   -679.08223757 </i>
   <i name="e_wo_entrp">   -679.08223757 </i>
   <i name="e_0_energy">     -0.00000000 </i>
  </energy>
  <time name="totalsc"> 1659.41 1659.80</time>
  <eigenvalues>
   <array>
    <dimension dim="1">band</dimension>
    <dimension dim="2">kpoint</dimension>
    <dimension dim="3">spin</dimension>
    <field>eigene</field>
    <field>occ</field>
    <set>
     <set comment="spin 1">
      <set comment="kpoint 1">
       <r>   -6.2976    1.0000 </r>
       <r>   -5.6938    1.0000 </r>
       <r>   -5.6433    1.0000 </r>
       <r>   -5.6001    1.0000 </r>
       <r>   -5.5730    1.0000 </r>
       <r>   -5.5174    1.0000 </r>
       <r>   -5.4955    1.0000 </r>
       <r>   -5.4371    1.0000 </r>
       <r>   -5.3962    1.0000 </r>
       <r>   -5.3147    1.0000 </r>
       <r>   -5.3044    1.0000 </r>
       <r>   -5.2331    1.0000 </r>
       <r>   -5.2046    1.0000 </r>
       <r>   -5.1445    1.0000 </r>
       <r>   -5.0935    1.0000 </r>
       <r>   -4.5305    1.0000 </r>
       <r>   -4.4681    1.0000 </r>
       <r>   -4.4343    1.0000 </r>
       <r>   -4.3959    1.0000 </r>
       <r>   -4.3841    1.0000 </r>
       <r>   -4.3256    1.0000 </r>
       <r>   -4.2923    1.0000 </r>
       <r>   -4.2806    1.0000 </r>
       <r>   -4.2382    1.0000 </r>
       <r>   -4.1909    1.0000 </r>
       <r>   -4.1254    1.0000 </r>
       <r>   -4.0884    1.0000 </r>
       <r>   -4.0485    1.0000 </r>
       <r>   -3.9951    1.0000 </r>
       <r>   -3.9788    1.0000 </r>
       <r>   -3.9316    1.0000 </r>
       <r>   -3.9064    1.0000 </r>
       <r>   -3.8534    1.0000 </r>
       <r>   -3.8004    1.0000 </r>
       <r>   -3.7974    1.0000 </r>
       <r>   -3.7319    1.0000 </r>
       <r>   -3.7156    1.0000 </r>
       <r>   -3.6915    1.0000 </r>
       <r>   -3.6785    1.0000 </r>
       <r>   -3.6504    1.0000 </r>
       <r>   -3.6191    1.0000 </r>
       <r>   -3.5851    1.0000 </r>
       <r>   -3.5717    1.0000 </r>
       <r>   -3.5218    1.0000 </r>
       <r>   -3.5074    1.0000 </r>
       <r>   -3.4799    1.0000 </r>
       <r>   -3.4566    1.0000 </r>
       <r>   -3.4334    1.0000 </r>
       <r>   -3.4248    1.0000 </r>
       <r>   -3.3772    1.0000 </r>
       <r>   -3.3697    1.0000 </r>
       <r>   -3.3024    1.0000 </r>
       <r>   -3.2914    1.0000 </r>
       <r>   -3.2606    1.0000 </r>
       <r>   -3.2392    1.0000 </r>
       <r>   -2.3668    1.0000 </r>
       <r>   -2.3201    1.0000 </r>
       <r>   -2.2904    1.0000 </r>
       <r>   -2.2728    1.0000 </r>
       <r>   -2.2156    1.0000 </r>
       <r>   -2.1792    1.0000 </r>
       <r>   -2.1464    1.0000 </r>
       <r>   -2.1041    1.0000 </r>
       <r>   -2.0822    1.0000 </r>
       <r>   -2.0374    1.0000 </r>
       <r>   -1.9990    1.0000 </r>
       <r>   -1.9453    1.0000 </r>
       <r>   -1.9273    1.0000 </r>
       <r>   -1.9124    1.0000 </r>
       <r>   -1.8691    1.0000 </r>
       <r>   -1.8648    1.0000 </r>
       <r>   -1.8511    1.0000 </r>
       <r>   -1.8115    1.0000 </r>
       <r>   -1.3556    1.0000 </r>
       <r>   -1.3060    1.0000 </r>
       <r>   -1.2425    1.0000 </r>
       <r>   -1.2357    1.0000 </r>
       <r>   -1.0444    1.0000 </r>
       <r>   -0.9876    1.0000 </r>
       <r>   -0.9670    1.0000 </r>
       <r>   -0.9394    1.0000 </r>
       <r>   -0.8851    1.0000 </r>
       <r>   -0.8779    1.0000 </r>
       <r>   -0.8392    1.0000 </r>
       <r>   -0.8177    1.0000 </r>
       <r>   -0.7880    1.0000 </r>
       <r>   -0.7838    1.0000 </r>
       <r>   -0.7636    1.0000 </r>
       <r>   -0.7446    1.0000 </r>
       <r>   -0.6716    1.0000 </r>
       <r>   -0.6544    1.0000 </r>
       <r>   -0.6418    1.0000 </r>
       <r>   -0.6027    1.0000 </r>
       <r>   -0.5923    1.0000 </r>
       <r>   -0.5771    1.0000 </r>
       <r>   -0.5495    1.0000 </r>
       <r>   -0.5336    1.0000 </r>
       <r>   -0.5066    1.0000 </r>
       <r>   -0.4837    1.0000 </r>
       <r>   -0.4478    1.0000 </r>
       <r>   -0.4180    1.0000 </r>
       <r>    0.0096    1.0000 </r>
       <r>    0.0591    1.0000 </r>
       <r>    0.0857    1.0000 </r>
       <r>    0.1078    1.0000 </r>
       <r>    0.1373    1.0000 </r>
       <r>    0.1604    1.0000 </r>
       <r>    0.1817    1.0000 </r>
       <r>    0.2118    1.0000 </r>
       <r>    0.2811    1.0000 </r>
       <r>    0.2845    1.0000 </r>
       <r>    0.3030    1.0000 </r>
       <r>    0.3850    1.0000 </r>
       <r>    1.4212    1.0000 </r>
       <r>    1.4426    1.0000 </r>
       <r>    1.4975    1.0000 </r>
       <r>    1.5139    1.0000 </r>
       <r>    1.5325    1.0000 </r>
       <r>    1.5529    1.0000 </r>
       <r>    1.5807    1.0000 </r>
       <r>    1.6038    1.0000 </r>
       <r>    1.6256    1.0000 </r>
       <r>    1.6649    1.0000 </r>
       <r>    1.6808    1.0000 </r>
       <r>    1.7006    1.0000 </r>
       <r>    1.7126    1.0000 </r>
       <r>    1.7508    1.0000 </r>
       <r>    1.7612    1.0000 </r>
       <r>    1.7716    1.0000 </r>
       <r>    1.7836    1.0000 </r>
       <r>    1.7920    1.0000 </r>
       <r>    1.8010    1.0000 </r>
       <r>    1.8037    1.0000 </r>
       <r>    1.8365    1.0000 </r>
       <r>    1.8505    1.0000 </r>
       <r>    1.8548    1.0000 </r>
       <r>    1.8691    1.0000 </r>
       <r>    1.8717    1.0000 </r>
       <r>    1.9126    1.0000 </r>
       <r>    1.9187    1.0000 </r>
       <r>    1.9284    1.0000 </r>
       <r>    1.9477    1.0000 </r>
       <r>    1.9594    1.0000 </r>
       <r>    1.9737    1.0000 </r>
       <r>    1.9899    1.0000 </r>
       <r>    1.9989    1.0000 </r>
       <r>    2.0074    1.0000 </r>
       <r>    2.0218    1.0000 </r>
       <r>    2.0298    1.0000 </r>
       <r>    2.0523    1.0000 </r>
       <r>    2.0602    1.0000 </r>
       <r>    2.0804    1.0000 </r>
       <r>    2.1087    1.0000 </r>
       <r>    2.1171    1.0000 </r>
       <r>    2.1251    1.0000 </r>
       <r>    2.1424    1.0000 </r>
       <r>    2.1523    1.0000 </r>
       <r>    2.1731    1.0000 </r>
       <r>    2.1840    1.0000 </r>
       <r>    2.2049    1.0000 </r>
       <r>    2.2137    1.0000 </r>
       <r>    2.2272    1.0000 </r>
       <r>    2.2296    1.0000 </r>
       <r>    2.2561    1.0000 </r>
       <r>    2.2890    1.0000 </r>
       <r>    2.2950    1.0000 </r>
       <r>    2.3055    1.0000 </r>
       <r>    2.3093    1.0000 </r>
       <r>    2.3161    1.0000 </r>
       <r>    2.3392    1.0000 </r>
       <r>    2.3694    1.0000 </r>
       <r>    2.3934    1.0000 </r>
       <r>    2.4505    1.0000 </r>
       <r>    2.4716    1.0000 </r>
       <r>    2.5312    1.0000 </r>
       <r>    2.7777    1.0000 </r>
       <r>    2.7781    1.0000 </r>
       <r>    2.7967    1.0000 </r>
       <r>    2.8346    1.0000 </r>
       <r>    2.8532    1.0000 </r>
       <r>    2.9003    1.0000 </r>
       <r>    3.1931    1.0000 </r>
       <r>    3.2079    1.0000 </r>
       <r>    3.2190    1.0000 </r>
       <r>    3.2562    1.0000 </r>
       <r>    3.2625    1.0000 </r>
       <r>    3.2870    1.0000 </r>
       <r>    3.3373    1.0000 </r>
       <r>    3.3605    1.0000 </r>
       <r>    3.3772    1.0000 </r>
       <r>    3.3837    1.0000 </r>
       <r>    3.4055    1.0000 </r>
       <r>    3.4264    1.0000 </r>
       <r>    3.4362    1.0000 </r>
       <r>    3.4494    1.0000 </r>
       <r>    3.4674    1.0000 </r>
       <r>    3.4809    1.0000 </r>
       <r>    3.5153    1.0000 </r>
       <r>    3.5263    1.0000 </r>
       <r>    3.5315    1.0000 </r>
       <r>    3.5492    1.0000 </r>
       <r>    3.5796    1.0000 </r>
       <r>    3.6122    1.0000 </r>
       <r>    3.6398    1.0000 </r>
       <r>    3.6649    1.0000 </r>
       <r>    3.7022    1.0000 </r>
       <r>    3.7138    1.0000 </r>
       <r>    3.7257    1.0000 </r>
       <r>    3.7596    1.0000 </r>
       <r>    3.7792    1.0000 </r>
       <r>    3.7907    1.0000 </r>
       <r>    3.8041    1.0000 </r>
       <r>    3.8528    1.0000 </r>
       <r>    3.8596    1.0000 </r>
       <r>    3.8958    1.0000 </r>
       <r>    3.9121    1.0000 </r>
       <r>    3.9364    1.0000 </r>
       <r>    4.1581    1.0000 </r>
       <r>    4.1906    1.0000 </r>
       <r>    4.2289    1.0000 </r>
       <r>    4.2461    1.0000 </r>
       <r>    4.2709    1.0000 </r>
       <r>    4.2827    1.0000 </r>
       <r>    4.3272    1.0000 </r>
       <r>    4.3297    1.0000 </r>
       <r>    4.3425    1.0000 </r>
       <r>    4.3595    1.0000 </r>
       <r>    4.3874    1.0000 </r>
       <r>    4.4302    1.0000 </r>
       <r>    4.4559    1.0000 </r>
       <r>    4.4688    1.0000 </r>
       <r>    4.4989    1.0000 </r>
       <r>    4.5159    1.0000 </r>
       <r>    4.5236    1.0000 </r>
       <r>    4.5759    1.0000 </r>
       <r>    4.6066    1.0000 </r>
       <r>    4.6243    1.0000 </r>
       <r>    4.7440    1.0000 </r>
       <r>    4.7693    1.0000 </r>
       <r>    4.8057    1.0000 </r>
       <r>    4.8743    1.0000 </r>
       <r>    4.8979    1.0000 </r>
       <r>    4.9042    1.0000 </r>
       <r>    4.9350    1.0000 </r>
       <r>    4.9493    1.0000 </r>
       <r>    4.9912    1.0000 </r>
       <r>    5.0392    1.0000 </r>
       <r>    5.0415    1.0000 </r>
       <r>    5.0962    1.0000 </r>
       <r>    5.1044    1.0000 </r>
       <r>    5.1460    1.0000 </r>
       <r>    5.1934    1.0000 </r>
       <r>    5.2338    1.0000 </r>
       <r>    5.6893    1.0000 </r>
       <r>    5.7525    1.0000 </r>
       <r>    5.8249    1.0000 </r>
       <r>    6.1426    0.0000 </r>
       <r>    6.2077    0.0000 </r>
       <r>    6.2381    0.0000 </r>
       <r>    6.2810    0.0000 </r>
       <r>    6.2941    0.0000 </r>
       <r>    6.3334    0.0000 </r>
       <r>    6.5149    0.0000 </r>
       <r>    6.5384    0.0000 </r>
       <r>    6.6075    0.0000 </r>
       <r>    6.6467    0.0000 </r>
       <r>    6.6589    0.0000 </r>
       <r>    6.7080    0.0000 </r>
       <r>    6.7741    0.0000 </r>
       <r>    6.8131    0.0000 </r>
       <r>    6.8433    0.0000 </r>
       <r>    6.8688    0.0000 </r>
       <r>    6.8950    0.0000 </r>
       <r>    6.9118    0.0000 </r>
       <r>    6.9316    0.0000 </r>
       <r>    6.9560    0.0000 </r>
       <r>    6.9585    0.0000 </r>
       <r>    6.9840    0.0000 </r>
       <r>    7.0072    0.0000 </r>
       <r>    7.0369    0.0000 </r>
       <r>    7.0423    0.0000 </r>
       <r>    7.0742    0.0000 </r>
       <r>    7.0894    0.0000 </r>
       <r>    7.1027    0.0000 </r>
       <r>    7.1398    0.0000 </r>
       <r>    7.1518    0.0000 </r>
       <r>    7.1671    0.0000 </r>
       <r>    7.1794    0.0000 </r>
       <r>    7.1901    0.0000 </r>
       <r>    7.2311    0.0000 </r>
       <r>    7.2444    0.0000 </r>
       <r>    7.2650    0.0000 </r>
       <r>    7.2657    0.0000 </r>
       <r>    7.2724    0.0000 </r>
       <r>    7.3090    0.0000 </r>
       <r>    7.3516    0.0000 </r>
       <r>    7.4296    0.0000 </r>
       <r>    7.4575    0.0000 </r>
       <r>    7.4886    0.0000 </r>
       <r>    7.5210    0.0000 </r>
       <r>    7.5379    0.0000 </r>
       <r>    7.5677    0.0000 </r>
       <r>    7.5765    0.0000 </r>
       <r>    7.6351    0.0000 </r>
       <r>    7.8415    0.0000 </r>
       <r>    7.8548    0.0000 </r>
       <r>    7.8804    0.0000 </r>
       <r>    7.9086    0.0000 </r>
       <r>    7.9345    0.0000 </r>
       <r>    7.9404    0.0000 </r>
       <r>    7.9759    0.0000 </r>
       <r>    7.9899    0.0000 </r>
       <r>    8.0427    0.0000 </r>
       <r>    8.0508    0.0000 </r>
       <r>    8.0861    0.0000 </r>
       <r>    8.1285    0.0000 </r>
       <r>    8.1417    0.0000 </r>
       <r>    8.1963    0.0000 </r>
       <r>    8.2645    0.0000 </r>
       <r>    8.5372    0.0000 </r>
       <r>    8.5741    0.0000 </r>
       <r>    8.5844    0.0000 </r>
      </set>
      <set comment="kpoint 2">
       <r>   -6.1190    1.0000 </r>
       <r>   -6.0939    1.0000 </r>
       <r>   -5.7035    1.0000 </r>
       <r>   -5.6439    1.0000 </r>
       <r>   -5.6102    1.0000 </r>
       <r>   -5.5839    1.0000 </r>
       <r>   -5.5144    1.0000 </r>
       <r>   -5.4956    1.0000 </r>
       <r>   -5.2137    1.0000 </r>
       <r>   -5.1844    1.0000 </r>
       <r>   -5.1057    1.0000 </r>
       <r>   -5.0555    1.0000 </r>
       <r>   -5.0480    1.0000 </r>
       <r>   -4.8602    1.0000 </r>
       <r>   -4.7257    1.0000 </r>
[...]
       <r>    -3.1128    39.2859   100.5126 </r>
       <r>    -3.0583    46.1465   103.0307 </r>
       <r>    -3.0037    55.4062   106.0541 </r>
       <r>    -2.9491    33.1961   107.8655 </r>
       <r>    -2.8946    35.0896   109.7802 </r>
       <r>    -2.8400    30.5247   111.4459 </r>
       <r>    -2.7854    31.5428   113.1671 </r>
       <r>    -2.7309    36.6610   115.1676 </r>
       <r>    -2.6763    42.3244   117.4772 </r>
       <r>    -2.6217    32.1781   119.2330 </r>
       <r>    -2.5671    30.6845   120.9074 </r>
       <r>    -2.5126    24.5908   122.2493 </r>
       <r>    -2.4580     8.9333   122.7368 </r>
       <r>    -2.4034     0.2426   122.7500 </r>
       <r>    -2.3489     4.5560   122.9986 </r>
       <r>    -2.2943     5.9348   123.3225 </r>
       <r>    -2.2397    13.4178   124.0547 </r>
       <r>    -2.1852    25.9514   125.4708 </r>
       <r>    -2.1306    22.5005   126.6986 </r>
       <r>    -2.0760    30.9723   128.3886 </r>
       <r>    -2.0215    24.7718   129.7404 </r>
       <r>    -1.9669    20.8989   130.8808 </r>
       <r>    -1.9123    18.1515   131.8713 </r>
       <r>    -1.8578    15.5692   132.7208 </r>
       <r>    -1.8032     9.1425   133.2197 </r>
       <r>    -1.7486     0.5551   133.2500 </r>
       <r>    -1.6941     0.0020   133.2501 </r>
       <r>    -1.6395    10.0274   133.7973 </r>
       <r>    -1.5849    40.3302   135.9980 </r>
       <r>    -1.5304    25.9177   137.4122 </r>
       <r>    -1.4758    33.5688   139.2440 </r>
       <r>    -1.4212    40.7951   141.4701 </r>
       <r>    -1.3667    39.3978   143.6199 </r>
       <r>    -1.3121    46.7186   146.1692 </r>
       <r>    -1.2575    64.4174   149.6843 </r>
       <r>    -1.2030    60.3213   152.9759 </r>
       <r>    -1.1484    61.0357   156.3064 </r>
       <r>    -1.0938    59.6680   159.5624 </r>
       <r>    -1.0393    64.6108   163.0880 </r>
       <r>    -0.9847    67.6195   166.7779 </r>
       <r>    -0.9301    64.8670   170.3175 </r>
       <r>    -0.8756    70.3769   174.1578 </r>
       <r>    -0.8210    57.8389   177.3140 </r>
       <r>    -0.7664    64.9757   180.8595 </r>
       <r>    -0.7119    42.9789   183.2047 </r>
       <r>    -0.6573    32.3976   184.9726 </r>
       <r>    -0.6027    37.0200   186.9927 </r>
       <r>    -0.5482    41.7114   189.2688 </r>
       <r>    -0.4936    26.6884   190.7251 </r>
       <r>    -0.4390    14.3378   191.5075 </r>
       <r>    -0.3845    32.4588   193.2787 </r>
       <r>    -0.3299    34.9153   195.1839 </r>
       <r>    -0.2753    63.0274   198.6232 </r>
       <r>    -0.2208    52.5252   201.4893 </r>
       <r>    -0.1662    49.2169   204.1750 </r>
       <r>    -0.1116    41.8244   206.4573 </r>
       <r>    -0.0571    39.0269   208.5869 </r>
       <r>    -0.0025    33.4241   210.4107 </r>
       <r>     0.0521    43.5791   212.7887 </r>
       <r>     0.1066    15.0279   213.6088 </r>
       <r>     0.1612     9.6858   214.1373 </r>
       <r>     0.2158     9.9123   214.6782 </r>
       <r>     0.2703     5.1178   214.9574 </r>
       <r>     0.3249    37.3468   216.9954 </r>
       <r>     0.3795    23.1723   218.2598 </r>
       <r>     0.4340    30.4781   219.9229 </r>
       <r>     0.4886    28.6051   221.4838 </r>
       <r>     0.5432    17.6692   222.4480 </r>
       <r>     0.5977    21.8890   223.6424 </r>
       <r>     0.6523    16.8307   224.5608 </r>
       <r>     0.7069    23.0868   225.8206 </r>
       <r>     0.7615    16.5937   226.7261 </r>
       <r>     0.8160     6.7601   227.0950 </r>
       <r>     0.8706    11.9906   227.7493 </r>
       <r>     0.9252    15.8382   228.6136 </r>
       <r>     0.9797    21.9105   229.8091 </r>
       <r>     1.0343    29.9864   231.4454 </r>
       <r>     1.0889    35.2670   233.3699 </r>
       <r>     1.1434    24.9264   234.7300 </r>
       <r>     1.1980    13.9295   235.4901 </r>
       <r>     1.2526    31.3999   237.2035 </r>
       <r>     1.3071    21.2101   238.3609 </r>
       <r>     1.3617    34.8847   240.2645 </r>
       <r>     1.4163    29.8004   241.8906 </r>
       <r>     1.4708    75.0278   245.9847 </r>
       <r>     1.5254    84.9155   250.6183 </r>
       <r>     1.5800    83.8741   255.1951 </r>
       <r>     1.6345    78.8638   259.4985 </r>
       <r>     1.6891    77.6596   263.7362 </r>
       <r>     1.7437    50.0882   266.4694 </r>
       <r>     1.7982    59.5906   269.7211 </r>
       <r>     1.8528    38.9960   271.8491 </r>
       <r>     1.9074    22.4032   273.0716 </r>
       <r>     1.9619    20.0643   274.1664 </r>
       <r>     2.0165    24.3459   275.4949 </r>
       <r>     2.0711    63.0284   278.9342 </r>
       <r>     2.1256    90.3737   283.8657 </r>
       <r>     2.1802   108.5836   289.7908 </r>
       <r>     2.2348   127.8306   296.7662 </r>
       <r>     2.2893   114.8946   303.0357 </r>
       <r>     2.3439   122.9435   309.7444 </r>
       <r>     2.3985   107.3085   315.6000 </r>
       <r>     2.4530    74.1857   319.6481 </r>
       <r>     2.5076    39.2232   321.7884 </r>
       <r>     2.5622    38.2491   323.8756 </r>
       <r>     2.6167    30.2988   325.5289 </r>
       <r>     2.6713    65.9964   329.1302 </r>
       <r>     2.7259    75.9029   333.2721 </r>
       <r>     2.7804    90.5223   338.2116 </r>
       <r>     2.8350    97.7330   343.5447 </r>
       <r>     2.8896    91.6443   348.5456 </r>
       <r>     2.9441    96.4157   353.8067 </r>
       <r>     2.9987    92.1548   358.8354 </r>
       <r>     3.0533   105.8989   364.6140 </r>
       <r>     3.1078    82.6760   369.1254 </r>
       <r>     3.1624    64.3809   372.6385 </r>
       <r>     3.2170    84.7997   377.2658 </r>
       <r>     3.2715   102.5359   382.8610 </r>
       <r>     3.3261    94.9206   388.0405 </r>
       <r>     3.3807    95.0103   393.2250 </r>
       <r>     3.4352    78.6040   397.5142 </r>
       <r>     3.4898    87.4221   402.2846 </r>
       <r>     3.5444    98.4667   407.6577 </r>
       <r>     3.5989    69.5870   411.4549 </r>
       <r>     3.6535    66.0628   415.0598 </r>
       <r>     3.7081    66.8293   418.7065 </r>
       <r>     3.7626    97.5792   424.0311 </r>
       <r>     3.8172    85.2929   428.6853 </r>
       <r>     3.8718   100.5767   434.1736 </r>
       <r>     3.9264    83.1850   438.7128 </r>
       <r>     3.9809    48.3288   441.3499 </r>
       <r>     4.0355    61.2617   444.6928 </r>
       <r>     4.0901    53.6787   447.6219 </r>
       <r>     4.1446    81.8681   452.0893 </r>
       <r>     4.1992    73.4865   456.0992 </r>
       <r>     4.2538    63.0595   459.5402 </r>
       <r>     4.3083    73.9986   463.5781 </r>
       <r>     4.3629    78.7693   467.8764 </r>
       <r>     4.4175    70.0815   471.7006 </r>
       <r>     4.4720    75.1743   475.8026 </r>
       <r>     4.5266    74.7246   479.8802 </r>
       <r>     4.5812    71.0676   483.7582 </r>
       <r>     4.6357    55.4646   486.7847 </r>
       <r>     4.6903    51.5391   489.5971 </r>
       <r>     4.7449    17.6857   490.5622 </r>
       <r>     4.7994    30.6507   492.2347 </r>
       <r>     4.8540    17.7117   493.2012 </r>
       <r>     4.9086    35.7883   495.1541 </r>
       <r>     4.9631    48.1412   497.7810 </r>
       <r>     5.0177    38.4411   499.8787 </r>
       <r>     5.0723    38.3382   501.9707 </r>
       <r>     5.1268    23.8597   503.2727 </r>
       <r>     5.1814     8.9503   503.7611 </r>
       <r>     5.2360     7.2128   504.1547 </r>
       <r>     5.2905     6.3288   504.5000 </r>
       <r>     5.3451     6.6228   504.8614 </r>
       <r>     5.3997    25.4571   506.2505 </r>
       <r>     5.4542    31.1540   507.9505 </r>
       <r>     5.5088    26.6269   509.4035 </r>
       <r>     5.5634     6.4389   509.7548 </r>
       <r>     5.6179    10.4453   510.3248 </r>
       <r>     5.6725    16.9789   511.2513 </r>
       <r>     5.7271     4.5585   511.5000 </r>
       <r>     5.7816     4.5807   511.7500 </r>
       <r>     5.8362     4.3294   511.9862 </r>
       <r>     5.8908     0.2521   512.0000 </r>
       <r>     5.9453     0.0000   512.0000 </r>
       <r>     5.9999     0.0000   512.0000 </r>
       <r>     6.0545     0.0000   512.0000 </r>
       <r>     6.1090     0.0000   512.0000 </r>
       <r>     6.1636    16.4372   512.8969 </r>
       <r>     6.2182    19.9033   513.9830 </r>
       <r>     6.2727     5.5133   514.2838 </r>
       <r>     6.3273    20.9383   515.4264 </r>
       <r>     6.3819    18.2194   516.4206 </r>
       <r>     6.4364    27.1393   517.9015 </r>
       <r>     6.4910    33.8307   519.7476 </r>
       <r>     6.5456    30.5230   521.4131 </r>
       <r>     6.6001     5.4270   521.7093 </r>
       <r>     6.6547    17.2407   522.6500 </r>
       <r>     6.7093    22.1873   523.8607 </r>
       <r>     6.7638    33.7204   525.7008 </r>
       <r>     6.8184    41.0840   527.9426 </r>
       <r>     6.8730    25.9462   529.3584 </r>
       <r>     6.9275    35.8697   531.3157 </r>
       <r>     6.9821    36.7538   533.3213 </r>
       <r>     7.0367    46.9033   535.8807 </r>
       <r>     7.0913    38.5210   537.9827 </r>
       <r>     7.1458    23.2324   539.2505 </r>
       <r>     7.2004    24.9426   540.6115 </r>
       <r>     7.2550    56.4087   543.6896 </r>
       <r>     7.3095    69.4062   547.4769 </r>
       <r>     7.3641    83.2204   552.0180 </r>
       <r>     7.4187    75.9934   556.1648 </r>
       <r>     7.4732    88.3692   560.9869 </r>
       <r>     7.5278    81.6331   565.4414 </r>
       <r>     7.5824    77.2545   569.6570 </r>
       <r>     7.6369    82.4017   574.1535 </r>
       <r>     7.6915    79.4935   578.4912 </r>
       <r>     7.7461    93.0316   583.5677 </r>
       <r>     7.8006    87.7322   588.3550 </r>
       <r>     7.8552   103.4156   593.9982 </r>
       <r>     7.9098    98.3097   599.3627 </r>
       <r>     7.9643    90.4639   604.2991 </r>
       <r>     8.0189   103.8001   609.9632 </r>
       <r>     8.0735    88.7162   614.8042 </r>
       <r>     8.1280    52.7598   617.6832 </r>
       <r>     8.1826    81.8991   622.1522 </r>
       <r>     8.2372    88.2873   626.9698 </r>
       <r>     8.2917    89.4220   631.8494 </r>
       <r>     8.3463    70.1894   635.6794 </r>
       <r>     8.4009    81.9464   640.1511 </r>
       <r>     8.4554    48.7405   642.8107 </r>
       <r>     8.5100     8.0487   643.2499 </r>
       <r>     8.5646     4.9984   643.5227 </r>
       <r>     8.6191     8.7473   644.0000 </r>
       <r>     8.6737     0.0000   644.0000 </r>
       <r>     8.7283     0.0000   644.0000 </r>
       <r>     8.7828     0.0000   644.0000 </r>
       <r>     8.8374     0.0000   644.0000 </r>
       <r>     8.8920     0.0000   644.0000 </r>
       <r>     8.9465     0.0000   644.0000 </r>
       <r>     9.0011     0.0000   644.0000 </r>
       <r>     9.0557     0.0000   644.0000 </r>
       <r>     9.1102     0.0000   644.0000 </r>
       <r>     9.1648     0.0000   644.0000 </r>
       <r>     9.2194     0.0000   644.0000 </r>
       <r>     9.2739     0.0000   644.0000 </r>
       <r>     9.3285     0.0000   644.0000 </r>
      </set>
     </set>
    </array>
   </total>
  </dos>
 </calculation>
 <structure name="finalpos" >
  <crystal>
   <varray name="basis" >
    <v>       0.00000000      10.93733369      10.93733369 </v>
    <v>      10.93733369       0.00000000      10.93733369 </v>
    <v>      10.93733369      10.93733369       0.00000000 </v>
   </varray>
   <i name="volume">   2616.76295363 </i>
   <varray name="rec_basis" >
    <v>      -0.04571498       0.04571498       0.04571498 </v>
    <v>       0.04571498      -0.04571498       0.04571498 </v>
    <v>       0.04571498       0.04571498      -0.04571498 </v>
   </varray>
  </crystal>
  <varray name="positions" >
   <v>       0.99513387       0.00007243       0.99958073 </v>
   <v>       0.25079890       0.99337314       0.98643069 </v>
   <v>       0.49702633       0.00006957       0.00931113 </v>
   <v>       0.75950130       0.99769087       0.99761774 </v>
   <v>       0.99506783       0.24603044       0.00824050 </v>
   <v>       0.25272314       0.25650524       0.99203517 </v>
   <v>       0.50634004       0.25627942       0.99546403 </v>
   <v>       0.74623176       0.25982078       0.98516886 </v>
   <v>       0.00343697       0.50533737       0.99338386 </v>
   <v>       0.24264527       0.49719623       0.00322554 </v>
   <v>       0.49497144       0.51078829       0.98711978 </v>
   <v>       0.74219943       0.49859428       0.00476947 </v>
   <v>       0.00398982       0.75066358       0.99061308 </v>
   <v>       0.24657372       0.75012896       0.00403860 </v>
   <v>       0.50952715       0.74579235       0.99664284 </v>
   <v>       0.74069529       0.75602652       0.99732650 </v>
   <v>       0.99978327       0.99746214       0.24123300 </v>
   <v>       0.26548406       0.00484161       0.23445280 </v>
   <v>       0.49858519       0.00175414       0.25144004 </v>
   <v>       0.75187301       0.00487893       0.23903340 </v>
   <v>       0.00059484       0.24201399       0.24654707 </v>
   <v>       0.24878583       0.26042533       0.25403673 </v>
   <v>       0.48997273       0.24675234       0.26577030 </v>
   <v>       0.75206687       0.24579821       0.25440038 </v>
   <v>       0.99945191       0.51006073       0.24791611 </v>
   <v>       0.25014988       0.50174918       0.26092440 </v>
   <v>       0.51299099       0.49302012       0.24293978 </v>
   <v>       0.75815392       0.50226923       0.23570649 </v>
   <v>       0.00630698       0.73661005       0.25670945 </v>
   <v>       0.25273392       0.75782908       0.25150983 </v>
   <v>       0.49864763       0.75050781       0.24876373 </v>
   <v>       0.75013785       0.75267742       0.24795562 </v>
   <v>       0.99969858       0.00048690       0.50930751 </v>
   <v>       0.25730308       0.99840428       0.48846974 </v>
   <v>       0.49671454       0.99155038       0.51413439 </v>
   <v>       0.75369126       0.00222933       0.48664777 </v>
   <v>       0.99734187       0.24679534       0.50369962 </v>
   <v>       0.24776228       0.26206645       0.49937168 </v>
   <v>       0.49819734       0.26095309       0.48929787 </v>
   <v>       0.74966504       0.23946033       0.49938661 </v>
   <v>       0.99018090       0.50083991       0.49339700 </v>
   <v>       0.24941192       0.50446127       0.50070929 </v>
   <v>       0.51516600       0.50118659       0.49066589 </v>
   <v>       0.74580870       0.50448197       0.49465779 </v>
   <v>       0.98635962       0.75834314       0.50108542 </v>
   <v>       0.25133272       0.75325379       0.49423537 </v>
   <v>       0.51090034       0.75744463       0.48895217 </v>
   <v>       0.75983240       0.74917119       0.50386742 </v>
   <v>       0.99448333       0.01124586       0.75208446 </v>
   <v>       0.23731850       0.01091136       0.75217432 </v>
   <v>       0.48376782       0.00857704       0.75774614 </v>
   <v>       0.73878909       0.00972085       0.74641086 </v>
   <v>       0.00622992       0.25360702       0.73790900 </v>
   <v>       0.24647545       0.26123404       0.75193494 </v>
   <v>       0.50388544       0.24512078       0.74331916 </v>
   <v>       0.74822790       0.24377711       0.75712059 </v>
   <v>       0.00162904       0.50354389       0.75070894 </v>
   <v>       0.25641357       0.49492380       0.74684569 </v>
   <v>       0.51532956       0.48925402       0.74540302 </v>
   <v>       0.75233957       0.48671637       0.75121267 </v>
   <v>       0.01783676       0.74077338       0.74689774 </v>
   <v>       0.25152137       0.74337431       0.75167317 </v>
   <v>       0.49705222       0.75250382       0.75329474 </v>
   <v>       0.74752286       0.75854866       0.74660874 </v>
   <v>       0.07290101       0.04620061       0.06497827 </v>
   <v>       0.31956951       0.05686738       0.05696549 </v>
   <v>       0.57069239       0.05773169       0.06126042 </v>
   <v>       0.81871119       0.06191254       0.05643773 </v>
   <v>       0.06685503       0.31603873       0.05912119 </v>
   <v>       0.30413509       0.31587705       0.05931029 </v>
   <v>       0.56239489       0.31879409       0.05995887 </v>
   <v>       0.81178429       0.31123424       0.05395696 </v>
   <v>       0.05880439       0.56110372       0.06998344 </v>
   <v>       0.31106896       0.56445735       0.05933059 </v>
   <v>       0.56497987       0.56057796       0.06143719 </v>
   <v>       0.81170243       0.56560712       0.05582592 </v>
   <v>       0.06381021       0.81937186       0.06685748 </v>
   <v>       0.31662714       0.81117814       0.05936709 </v>
   <v>       0.56549311       0.82040345       0.04996371 </v>
   <v>       0.81075092       0.80865235       0.06806343 </v>
   <v>       0.05691337       0.05823166       0.31564643 </v>
   <v>       0.30343435       0.08107198       0.30336775 </v>
   <v>       0.55718657       0.05597520       0.32275629 </v>
   <v>       0.81025236       0.06824735       0.30201520 </v>
   <v>       0.06975202       0.32320331       0.30065220 </v>
   <v>       0.32099348       0.31485431       0.31296712 </v>
   <v>       0.56924958       0.30973645       0.31106129 </v>
   <v>       0.80297417       0.32538821       0.30914860 </v>
   <v>       0.06498079       0.56175034       0.31936745 </v>
   <v>       0.31377736       0.55520403       0.31742525 </v>
   <v>       0.56650840       0.56092119       0.30099135 </v>
   <v>       0.81041543       0.56116605       0.31068139 </v>
   <v>       0.05708714       0.81973643       0.31419550 </v>
   <v>       0.32039486       0.81156353       0.31005748 </v>
   <v>       0.55572346       0.81447011       0.31076767 </v>
   <v>       0.82565930       0.80724087       0.30657430 </v>
   <v>       0.05845200       0.04965162       0.57755217 </v>
   <v>       0.32049649       0.05061322       0.55809800 </v>
   <v>       0.57495097       0.05961864       0.55253912 </v>
   <v>       0.80607002       0.06183512       0.56905309 </v>
   <v>       0.05516870       0.32371939       0.56166675 </v>
   <v>       0.29950820       0.32504252       0.56790590 </v>
   <v>       0.57310814       0.31887493       0.54814039 </v>
   <v>       0.80712910       0.32064638       0.56060911 </v>
   <v>       0.07860414       0.56203195       0.54911353 </v>
   <v>       0.31622227       0.55962810       0.56070579 </v>
   <v>       0.55699334       0.55497180       0.57492733 </v>
   <v>       0.81552055       0.56065639       0.56091335 </v>
   <v>       0.06196969       0.81414275       0.55897517 </v>
   <v>       0.31079599       0.80867569       0.56491979 </v>
   <v>       0.56913695       0.82088070       0.55293641 </v>
   <v>       0.81194786       0.81591450       0.56711971 </v>
   <v>       0.05775488       0.06795258       0.81039238 </v>
   <v>       0.31378105       0.06027989       0.80986801 </v>
   <v>       0.55107876       0.06360347       0.82269719 </v>
   <v>       0.82015739       0.05381404       0.80881076 </v>
   <v>       0.07459984       0.31351506       0.81559210 </v>
   <v>       0.31638113       0.30981383       0.80889453 </v>
   <v>       0.56107466       0.31589429       0.81046300 </v>
   <v>       0.81816704       0.31039045       0.81009859 </v>
   <v>       0.07447731       0.56369807       0.82079092 </v>
   <v>       0.30634934       0.56339558       0.81767105 </v>
   <v>       0.56618624       0.56023766       0.81108306 </v>
   <v>       0.81323239       0.57033736       0.81021223 </v>
   <v>       0.05140602       0.80725054       0.81694200 </v>
   <v>       0.31095446       0.82352731       0.81131388 </v>
   <v>       0.54982108       0.81082835       0.81870738 </v>
   <v>       0.82531290       0.82491364       0.80374339 </v>
  </varray>
 </structure>
</modeling>
