potpaw_PBE@./ARUN.APL1ZEROSTATE         
           1
     0.000000   10.937334   10.937334
    10.937334    0.000000   10.937334
    10.937334   10.937334    0.000000
   Si
 128
Direct configuration=     1
   0.99513387  0.00007243  0.99958073
   0.25079890  0.99337314  0.98643069
   0.49702633  0.00006957  0.00931113
   0.75950130  0.99769087  0.99761774
   0.99506783  0.24603044  0.00824050
   0.25272314  0.25650524  0.99203517
   0.50634004  0.25627942  0.99546403
   0.74623176  0.25982078  0.98516886
   0.00343697  0.50533737  0.99338386
   0.24264527  0.49719623  0.00322554
   0.49497144  0.51078829  0.98711978
   0.74219943  0.49859428  0.00476947
   0.00398982  0.75066358  0.99061308
   0.24657372  0.75012896  0.00403860
   0.50952715  0.74579235  0.99664284
   0.74069529  0.75602652  0.99732650
   0.99978327  0.99746214  0.24123300
   0.26548406  0.00484161  0.23445280
   0.49858519  0.00175414  0.25144004
   0.75187301  0.00487893  0.23903340
   0.00059484  0.24201399  0.24654707
   0.24878583  0.26042533  0.25403673
   0.48997273  0.24675234  0.26577030
   0.75206687  0.24579821  0.25440038
   0.99945191  0.51006073  0.24791611
   0.25014988  0.50174918  0.26092440
   0.51299099  0.49302012  0.24293978
   0.75815392  0.50226923  0.23570649
   0.00630698  0.73661005  0.25670945
   0.25273392  0.75782908  0.25150983
   0.49864763  0.75050781  0.24876373
   0.75013785  0.75267742  0.24795562
   0.99969858  0.00048690  0.50930751
   0.25730308  0.99840428  0.48846974
   0.49671454  0.99155038  0.51413439
   0.75369126  0.00222933  0.48664777
   0.99734187  0.24679534  0.50369962
   0.24776228  0.26206645  0.49937168
   0.49819734  0.26095309  0.48929787
   0.74966504  0.23946033  0.49938661
   0.99018090  0.50083991  0.49339700
   0.24941192  0.50446127  0.50070929
   0.51516600  0.50118659  0.49066589
   0.74580870  0.50448197  0.49465779
   0.98635962  0.75834314  0.50108542
   0.25133272  0.75325379  0.49423537
   0.51090034  0.75744463  0.48895217
   0.75983240  0.74917119  0.50386742
   0.99448333  0.01124586  0.75208446
   0.23731850  0.01091136  0.75217432
   0.48376782  0.00857704  0.75774614
   0.73878909  0.00972085  0.74641086
   0.00622992  0.25360702  0.73790900
   0.24647545  0.26123404  0.75193494
   0.50388544  0.24512078  0.74331916
   0.74822790  0.24377711  0.75712059
   0.00162904  0.50354389  0.75070894
   0.25641357  0.49492380  0.74684569
   0.51532956  0.48925402  0.74540302
   0.75233957  0.48671637  0.75121267
   0.01783676  0.74077338  0.74689774
   0.25152137  0.74337431  0.75167317
   0.49705222  0.75250382  0.75329474
   0.74752286  0.75854866  0.74660874
   0.07290101  0.04620061  0.06497827
   0.31956951  0.05686738  0.05696549
   0.57069239  0.05773169  0.06126042
   0.81871119  0.06191254  0.05643773
   0.06685503  0.31603873  0.05912119
   0.30413509  0.31587705  0.05931029
   0.56239489  0.31879409  0.05995887
   0.81178429  0.31123424  0.05395696
   0.05880439  0.56110372  0.06998344
   0.31106896  0.56445735  0.05933059
   0.56497987  0.56057796  0.06143719
   0.81170243  0.56560712  0.05582592
   0.06381021  0.81937186  0.06685748
   0.31662714  0.81117814  0.05936709
   0.56549311  0.82040345  0.04996371
   0.81075092  0.80865235  0.06806343
   0.05691337  0.05823166  0.31564643
   0.30343435  0.08107198  0.30336775
   0.55718657  0.05597520  0.32275629
   0.81025236  0.06824735  0.30201520
   0.06975202  0.32320331  0.30065220
   0.32099348  0.31485431  0.31296712
   0.56924958  0.30973645  0.31106129
   0.80297417  0.32538821  0.30914860
   0.06498079  0.56175034  0.31936745
   0.31377736  0.55520403  0.31742525
   0.56650840  0.56092119  0.30099135
   0.81041543  0.56116605  0.31068139
   0.05708714  0.81973643  0.31419550
   0.32039486  0.81156353  0.31005748
   0.55572346  0.81447011  0.31076767
   0.82565930  0.80724087  0.30657430
   0.05845200  0.04965162  0.57755217
   0.32049649  0.05061322  0.55809800
   0.57495097  0.05961864  0.55253912
   0.80607002  0.06183512  0.56905309
   0.05516870  0.32371939  0.56166675
   0.29950820  0.32504252  0.56790590
   0.57310814  0.31887493  0.54814039
   0.80712910  0.32064638  0.56060911
   0.07860414  0.56203195  0.54911353
   0.31622227  0.55962810  0.56070579
   0.55699334  0.55497180  0.57492733
   0.81552055  0.56065639  0.56091335
   0.06196969  0.81414275  0.55897517
   0.31079599  0.80867569  0.56491979
   0.56913695  0.82088070  0.55293641
   0.81194786  0.81591450  0.56711971
   0.05775488  0.06795258  0.81039238
   0.31378105  0.06027989  0.80986801
   0.55107876  0.06360347  0.82269719
   0.82015739  0.05381404  0.80881076
   0.07459984  0.31351506  0.81559210
   0.31638113  0.30981383  0.80889453
   0.56107466  0.31589429  0.81046300
   0.81816704  0.31039045  0.81009859
   0.07447731  0.56369807  0.82079092
   0.30634934  0.56339558  0.81767105
   0.56618624  0.56023766  0.81108306
   0.81323239  0.57033736  0.81021223
   0.05140602  0.80725054  0.81694200
   0.31095446  0.82352731  0.81131388
   0.54982108  0.81082835  0.81870738
   0.82531290  0.82491364  0.80374339
