 128 128   0   0
  0.2044346E+02  0.1546773E-08  0.1546773E-08  0.1546773E-08  0.5000000E-15
  1.000000000000000E-004
  CAR 
 potpaw_PBE@./ARUN.APL1ZEROSTATE         
      9.34395764     -7.04658472  301      5.90877314      1.00000000
     -7.047  0.0000E+00  0.0000E+00
     -6.992  0.0000E+00  0.0000E+00
     -6.937  0.0000E+00  0.0000E+00
     -6.883  0.0000E+00  0.0000E+00
     -6.828  0.0000E+00  0.0000E+00
     -6.773  0.0000E+00  0.0000E+00
     -6.719  0.0000E+00  0.0000E+00
     -6.664  0.0000E+00  0.0000E+00
     -6.610  0.0000E+00  0.0000E+00
     -6.555  0.0000E+00  0.0000E+00
     -6.500  0.0000E+00  0.0000E+00
     -6.446  0.0000E+00  0.0000E+00
     -6.391  0.0000E+00  0.0000E+00
     -6.336  0.2012E-05  0.1099E-06
     -6.282  0.4564E+01  0.2494E+00
     -6.227  0.1135E-01  0.2500E+00
     -6.172  0.1058E+00  0.2558E+00
     -6.118  0.1820E+02  0.1250E+01
     -6.063  0.2341E+02  0.2529E+01
     -6.009  0.2234E+02  0.3749E+01
     -5.954  0.1193E-01  0.3750E+01
     -5.899  0.2540E-15  0.3750E+01
     -5.845  0.1371E+01  0.3825E+01
     -5.790  0.1304E+02  0.4537E+01
     -5.735  0.3125E+02  0.6245E+01
     -5.681  0.3513E+02  0.8164E+01
     -5.626  0.1591E+02  0.9033E+01
     -5.571  0.2277E+02  0.1028E+02
     -5.517  0.4610E+02  0.1280E+02
     -5.462  0.2211E+02  0.1400E+02
     -5.408  0.1251E+02  0.1469E+02
     -5.353  0.1140E+01  0.1475E+02
     -5.298  0.3006E+01  0.1491E+02
     -5.244  0.1126E+02  0.1553E+02
     -5.189  0.2742E+02  0.1703E+02
     -5.134  0.3804E+02  0.1911E+02
     -5.080  0.3942E+02  0.2126E+02
     -5.025  0.6454E+02  0.2479E+02
     -4.970  0.2927E+02  0.2639E+02
     -4.916  0.2861E+02  0.2795E+02
     -4.861  0.1428E+02  0.2873E+02
     -4.807  0.1415E+02  0.2950E+02
     -4.752  0.3591E+02  0.3146E+02
     -4.697  0.3813E+02  0.3355E+02
     -4.643  0.4306E+02  0.3590E+02
     -4.588  0.3579E+02  0.3785E+02
     -4.533  0.2897E+02  0.3944E+02
     -4.479  0.2214E+02  0.4065E+02
     -4.424  0.2626E+02  0.4208E+02
     -4.369  0.2494E+02  0.4344E+02
     -4.315  0.2720E+02  0.4493E+02
     -4.260  0.5339E+02  0.4785E+02
     -4.206  0.4984E+02  0.5057E+02
     -4.151  0.3993E+02  0.5275E+02
     -4.096  0.7677E+02  0.5695E+02
     -4.042  0.4378E+02  0.5934E+02
     -3.987  0.3981E+02  0.6151E+02
     -3.932  0.5830E+02  0.6470E+02
     -3.878  0.4587E+02  0.6720E+02
     -3.823  0.3294E+02  0.6900E+02
     -3.768  0.5717E+02  0.7213E+02
     -3.714  0.5566E+02  0.7517E+02
     -3.659  0.4269E+02  0.7750E+02
     -3.605  0.2918E+02  0.7910E+02
     -3.550  0.4102E+02  0.8134E+02
     -3.495  0.3348E+02  0.8317E+02
     -3.441  0.4899E+02  0.8584E+02
     -3.386  0.5748E+02  0.8898E+02
     -3.331  0.5993E+02  0.9226E+02
     -3.277  0.4662E+02  0.9480E+02
     -3.222  0.3697E+02  0.9682E+02
     -3.167  0.2488E+02  0.9818E+02
     -3.113  0.3902E+02  0.1003E+03
     -3.058  0.3849E+02  0.1024E+03
     -3.004  0.5100E+02  0.1052E+03
     -2.949  0.5072E+02  0.1080E+03
     -2.894  0.3147E+02  0.1097E+03
     -2.840  0.1747E+02  0.1106E+03
     -2.785  0.4152E+02  0.1129E+03
     -2.730  0.2935E+02  0.1145E+03
     -2.676  0.3658E+02  0.1165E+03
     -2.621  0.4372E+02  0.1189E+03
     -2.567  0.2883E+02  0.1205E+03
     -2.512  0.2641E+02  0.1219E+03
     -2.457  0.1165E+02  0.1226E+03
     -2.403  0.3421E+01  0.1228E+03
     -2.348  0.4574E+01  0.1230E+03
     -2.293  0.4278E+01  0.1232E+03
     -2.239  0.1467E+02  0.1240E+03
     -2.184  0.1615E+02  0.1249E+03
     -2.129  0.2571E+02  0.1263E+03
     -2.075  0.2682E+02  0.1278E+03
     -2.020  0.3331E+02  0.1296E+03
     -1.966  0.2056E+02  0.1307E+03
     -1.911  0.2403E+02  0.1320E+03
     -1.856  0.8471E+01  0.1325E+03
     -1.802  0.1360E+02  0.1332E+03
     -1.747  0.0000E+00  0.1332E+03
     -1.692  0.9081E-11  0.1333E+03
     -1.638  0.9907E+01  0.1338E+03
     -1.583  0.1480E+02  0.1346E+03
     -1.528  0.5833E+02  0.1378E+03
     -1.474  0.2451E+02  0.1391E+03
     -1.419  0.4191E+02  0.1414E+03
     -1.365  0.4648E+02  0.1440E+03
     -1.310  0.4242E+02  0.1463E+03
     -1.255  0.7248E+02  0.1502E+03
     -1.201  0.5687E+02  0.1533E+03
     -1.146  0.7563E+02  0.1575E+03
     -1.091  0.6248E+02  0.1609E+03
     -1.037  0.5922E+02  0.1641E+03
     -0.982  0.5432E+02  0.1671E+03
     -0.927  0.7799E+02  0.1713E+03
     -0.873  0.6546E+02  0.1749E+03
     -0.818  0.6145E+02  0.1783E+03
     -0.764  0.6487E+02  0.1818E+03
     -0.709  0.3342E+02  0.1837E+03
     -0.654  0.5526E+02  0.1867E+03
     -0.600  0.2464E+02  0.1880E+03
     -0.545  0.2737E+02  0.1895E+03
     -0.490  0.1849E+02  0.1905E+03
     -0.436  0.1437E+02  0.1913E+03
     -0.381  0.3553E+02  0.1932E+03
     -0.326  0.4538E+02  0.1957E+03
     -0.272  0.4947E+02  0.1984E+03
     -0.217  0.5867E+02  0.2016E+03
     -0.163  0.5272E+02  0.2045E+03
     -0.108  0.4207E+02  0.2068E+03
     -0.053  0.3440E+02  0.2087E+03
      0.001  0.3888E+02  0.2108E+03
      0.056  0.2669E+02  0.2123E+03
      0.111  0.1484E+02  0.2131E+03
      0.165  0.2076E+02  0.2142E+03
      0.220  0.1479E+01  0.2143E+03
      0.275  0.1898E+02  0.2153E+03
      0.329  0.3144E+02  0.2171E+03
      0.384  0.2227E+02  0.2183E+03
      0.438  0.2626E+02  0.2197E+03
      0.493  0.2242E+02  0.2209E+03
      0.548  0.3346E+02  0.2228E+03
      0.602  0.1430E+02  0.2235E+03
      0.657  0.2092E+02  0.2247E+03
      0.712  0.2287E+02  0.2259E+03
      0.766  0.2052E+02  0.2271E+03
      0.821  0.1267E+02  0.2277E+03
      0.876  0.2059E+01  0.2279E+03
      0.930  0.1591E+02  0.2287E+03
      0.985  0.2413E+02  0.2301E+03
      1.039  0.1935E+02  0.2311E+03
      1.094  0.1786E+02  0.2321E+03
      1.149  0.4644E+02  0.2346E+03
      1.203  0.1756E+02  0.2356E+03
      1.258  0.2395E+02  0.2369E+03
      1.313  0.3774E+02  0.2390E+03
      1.367  0.2923E+02  0.2405E+03
      1.422  0.4437E+02  0.2430E+03
      1.476  0.7232E+02  0.2469E+03
      1.531  0.8136E+02  0.2514E+03
      1.586  0.7156E+02  0.2553E+03
      1.640  0.9978E+02  0.2607E+03
      1.695  0.6924E+02  0.2645E+03
      1.750  0.5445E+02  0.2675E+03
      1.804  0.3760E+02  0.2695E+03
      1.859  0.3565E+02  0.2715E+03
      1.914  0.3497E+02  0.2734E+03
      1.968  0.1821E+02  0.2744E+03
      2.023  0.2544E+02  0.2758E+03
      2.077  0.7759E+02  0.2800E+03
      2.132  0.1043E+03  0.2857E+03
      2.187  0.9687E+02  0.2910E+03
      2.241  0.1176E+03  0.2974E+03
      2.296  0.1101E+03  0.3035E+03
      2.351  0.1117E+03  0.3096E+03
      2.405  0.1124E+03  0.3157E+03
      2.460  0.7979E+02  0.3201E+03
      2.515  0.4291E+02  0.3224E+03
      2.569  0.2990E+02  0.3240E+03
      2.624  0.3160E+02  0.3258E+03
      2.678  0.6841E+02  0.3295E+03
      2.733  0.8379E+02  0.3341E+03
      2.788  0.1014E+03  0.3396E+03
      2.842  0.1003E+03  0.3451E+03
      2.897  0.8244E+02  0.3496E+03
      2.952  0.9276E+02  0.3547E+03
      3.006  0.8494E+02  0.3593E+03
      3.061  0.9654E+02  0.3646E+03
      3.116  0.9580E+02  0.3698E+03
      3.170  0.6077E+02  0.3731E+03
      3.225  0.8394E+02  0.3777E+03
      3.279  0.1081E+03  0.3836E+03
      3.334  0.8606E+02  0.3883E+03
      3.389  0.9127E+02  0.3933E+03
      3.443  0.8221E+02  0.3978E+03
      3.498  0.9561E+02  0.4030E+03
      3.553  0.8590E+02  0.4077E+03
      3.607  0.8289E+02  0.4123E+03
      3.662  0.6402E+02  0.4158E+03
      3.717  0.6682E+02  0.4194E+03
      3.771  0.7557E+02  0.4235E+03
      3.826  0.1048E+03  0.4293E+03
      3.880  0.9330E+02  0.4344E+03
      3.935  0.6694E+02  0.4380E+03
      3.990  0.6940E+02  0.4418E+03
      4.044  0.7728E+02  0.4460E+03
      4.099  0.5780E+02  0.4492E+03
      4.154  0.6302E+02  0.4526E+03
      4.208  0.7762E+02  0.4569E+03
      4.263  0.4971E+02  0.4596E+03
      4.318  0.6604E+02  0.4632E+03
      4.372  0.8263E+02  0.4677E+03
      4.427  0.7404E+02  0.4718E+03
      4.481  0.6412E+02  0.4753E+03
      4.536  0.8282E+02  0.4798E+03
      4.591  0.6283E+02  0.4832E+03
      4.645  0.4221E+02  0.4855E+03
      4.700  0.5184E+02  0.4884E+03
      4.755  0.3370E+02  0.4902E+03
      4.809  0.2319E+02  0.4915E+03
      4.864  0.3028E+02  0.4931E+03
      4.919  0.4367E+02  0.4955E+03
      4.973  0.3388E+02  0.4974E+03
      5.028  0.4593E+02  0.4999E+03
      5.082  0.3707E+02  0.5019E+03
      5.137  0.2605E+02  0.5033E+03
      5.192  0.5812E+01  0.5036E+03
      5.246  0.6713E+01  0.5040E+03
      5.301  0.1068E+02  0.5046E+03
      5.356  0.3889E+01  0.5048E+03
      5.410  0.2360E+02  0.5061E+03
      5.465  0.2255E+02  0.5073E+03
      5.519  0.2658E+02  0.5088E+03
      5.574  0.2364E+02  0.5101E+03
      5.629  0.1273E+02  0.5108E+03
      5.683  0.9390E+01  0.5113E+03
      5.738  0.4235E+01  0.5115E+03
      5.793  0.4566E+01  0.5117E+03
      5.847  0.4475E+01  0.5120E+03
      5.902  0.1009E+00  0.5120E+03
      5.957  0.0000E+00  0.5120E+03
      6.011  0.0000E+00  0.5120E+03
      6.066  0.0000E+00  0.5120E+03
      6.120  0.1053E+01  0.5121E+03
      6.175  0.1743E+02  0.5130E+03
      6.230  0.2130E+02  0.5142E+03
      6.284  0.1481E+02  0.5150E+03
      6.339  0.2235E+02  0.5162E+03
      6.394  0.1518E+02  0.5170E+03
      6.448  0.2932E+02  0.5186E+03
      6.503  0.2497E+02  0.5200E+03
      6.558  0.2152E+02  0.5212E+03
      6.612  0.6053E+01  0.5215E+03
      6.667  0.2364E+02  0.5228E+03
      6.721  0.2656E+02  0.5242E+03
      6.776  0.4110E+02  0.5265E+03
      6.831  0.2700E+02  0.5280E+03
      6.885  0.3213E+02  0.5297E+03
      6.940  0.3798E+02  0.5318E+03
      6.995  0.3772E+02  0.5339E+03
      7.049  0.5508E+02  0.5369E+03
      7.104  0.2542E+02  0.5383E+03
      7.159  0.2847E+02  0.5398E+03
      7.213  0.4531E+02  0.5423E+03
      7.268  0.6219E+02  0.5457E+03
      7.322  0.6286E+02  0.5491E+03
      7.377  0.7784E+02  0.5534E+03
      7.432  0.8558E+02  0.5581E+03
      7.486  0.6877E+02  0.5618E+03
      7.541  0.8870E+02  0.5667E+03
      7.596  0.6762E+02  0.5703E+03
      7.650  0.9984E+02  0.5758E+03
      7.705  0.8859E+02  0.5806E+03
      7.760  0.8208E+02  0.5851E+03
      7.814  0.9289E+02  0.5902E+03
      7.869  0.9505E+02  0.5954E+03
      7.923  0.1008E+03  0.6009E+03
      7.978  0.9559E+02  0.6061E+03
      8.033  0.8116E+02  0.6106E+03
      8.087  0.7928E+02  0.6149E+03
      8.142  0.8362E+02  0.6195E+03
      8.197  0.9810E+02  0.6248E+03
      8.251  0.8151E+02  0.6293E+03
      8.306  0.7032E+02  0.6331E+03
      8.361  0.8187E+02  0.6376E+03
      8.415  0.6264E+02  0.6410E+03
      8.470  0.3665E+02  0.6430E+03
      8.524  0.8586E+01  0.6435E+03
      8.579  0.4950E+01  0.6438E+03
      8.634  0.4570E+01  0.6440E+03
      8.688  0.0000E+00  0.6440E+03
      8.743  0.0000E+00  0.6440E+03
      8.798  0.0000E+00  0.6440E+03
      8.852  0.0000E+00  0.6440E+03
      8.907  0.0000E+00  0.6440E+03
      8.962  0.0000E+00  0.6440E+03
      9.016  0.0000E+00  0.6440E+03
      9.071  0.0000E+00  0.6440E+03
      9.125  0.0000E+00  0.6440E+03
      9.180  0.0000E+00  0.6440E+03
      9.235  0.0000E+00  0.6440E+03
      9.289  0.0000E+00  0.6440E+03
      9.344  0.0000E+00  0.6440E+03
