 vasp.5.4.4.18Apr17-6-g9f103f2a35 (build Nov 08 2017 09:05:29) complex          
  
 executed on          Intel_17.33 date 2020.07.19  00:00:39
 running on   32 total cores
 distrk:  each k-point on   32 cores,    1 groups
 distr:  one band on NCORES_PER_BAND=  16 cores,    2 groups


--------------------------------------------------------------------------------------------------------


 INCAR:
 POTCAR:   PAW_PBE Si 05Jan2001                   

 ----------------------------------------------------------------------------- 
|                                                                             |
|           W    W    AA    RRRRR   N    N  II  N    N   GGGG   !!!           |
|           W    W   A  A   R    R  NN   N  II  NN   N  G    G  !!!           |
|           W    W  A    A  R    R  N N  N  II  N N  N  G       !!!           |
|           W WW W  AAAAAA  RRRRR   N  N N  II  N  N N  G  GGG   !            |
|           WW  WW  A    A  R   R   N   NN  II  N   NN  G    G                |
|           W    W  A    A  R    R  N    N  II  N    N   GGGG   !!!           |
|                                                                             |
|      For optimal performance we recommend to set                            |
|        NCORE= 4 - approx SQRT( number of cores)                             |
|      NCORE specifies how many cores store one orbital (NPAR=cpu/NCORE).     |
|      This setting can  greatly improve the performance of VASP for DFT.     |
|      The default,   NCORE=1            might be grossly inefficient         |
|      on modern multi-core architectures or massively parallel machines.     |
|      Do your own testing !!!!                                               |
|      Unfortunately you need to use the default for GW and RPA calculations. |
|      (for HF NCORE is supported but not extensively tested yet)             |
|                                                                             |
 ----------------------------------------------------------------------------- 

 POTCAR:   PAW_PBE Si 05Jan2001                   
   VRHFIN =Si: s2p2                                                             
   LEXCH  = PE                                                                  
   EATOM  =   103.0669 eV,    7.5752 Ry                                         
                                                                                
   TITEL  = PAW_PBE Si 05Jan2001                                                
   LULTRA =        F    use ultrasoft PP ?                                      
   IUNSCR =        1    unscreen: 0-lin 1-nonlin 2-no                           
   RPACOR =    1.500    partial core radius                                     
   POMASS =   28.085; ZVAL   =    4.000    mass and valenz                      
   RCORE  =    1.900    outmost cutoff radius                                   
   RWIGS  =    2.480; RWIGS  =    1.312    wigner-seitz radius (au A)           
   ENMAX  =  245.345; ENMIN  =  184.009 eV                                      
   ICORE  =        2    local potential                                         
   LCOR   =        T    correct aug charges                                     
   LPAW   =        T    paw PP                                                  
   EAUG   =  322.069                                                            
   DEXC   =    -.007                                                            
   RMAX   =    2.944    core radius for proj-oper                               
   RAUG   =    1.300    factor for augmentation sphere                          
   RDEP   =    1.993    radius for radial grids                                 
   QCUT   =   -4.246; QGAM   =    8.493    optimization parameters              
                                                                                
   Description                                                                  
     l     E      TYP  RCUT    TYP  RCUT                                        
     0   .000     23  1.900                                                     
     0   .000     23  1.900                                                     
     1   .000     23  1.900                                                     
     1   .000     23  1.900                                                     
     2   .000      7  1.900                                                     
  local pseudopotential read in
  partial core-charges read in
  atomic valenz-charges read in
  non local Contribution for L=           0  read in
    real space projection operators read in
  non local Contribution for L=           0  read in
    real space projection operators read in
  non local Contribution for L=           1  read in
    real space projection operators read in
  non local Contribution for L=           1  read in
    real space projection operators read in
    PAW grid and wavefunctions read in
 
   number of l-projection  operators is LMAX  =           4
   number of lm-projection operators is LMMAX =           8
 

 ----------------------------------------------------------------------------- 
|                                                                             |
|  ADVICE TO THIS USER RUNNING 'VASP/VAMP'   (HEAR YOUR MASTER'S VOICE ...):  |
|                                                                             |
|      You have a (more or less) 'large supercell' and for larger cells       |
|      it might be more efficient to use real space projection operators      |
|      So try LREAL= Auto  in the INCAR   file.                               |
|      Mind: If you want to do a very accurate calculations keep the          |
|      reciprocal projection scheme          (i.e. LREAL=.FALSE.)             |
|                                                                             |
 ----------------------------------------------------------------------------- 

 PAW_PBE Si 05Jan2001                   :
 energy of atom  1       EATOM= -103.0669
 kinetic energy error for atom=    0.0006 (will be added to EATOM!!)
 
 
 POSCAR: kk                                      
  positions in direct lattice
  No initial velocities read in
 exchange correlation table for  LEXCH =        8
   RHO(1)=    0.500       N(1)  =     2000
   RHO(2)=  100.500       N(2)  =     4000
 


--------------------------------------------------------------------------------------------------------


 ion  position               nearest neighbor table
   1  0.005  0.999  0.994-  65 2.31 113 2.31  77 2.40  68 2.57
   2  0.241  0.995  0.006-  65 2.31  78 2.36 114 2.43  66 2.57
   3  0.486  0.996  0.010-  79 2.12  66 2.19 115 2.57  67 2.59
   4  0.746  0.008  0.999-  67 2.28  68 2.36 116 2.41  80 2.43
   5  0.009  0.240  0.992- 117 2.37  72 2.46  69 2.47  65 2.54
   6  0.250  0.246  0.016-  70 2.27  66 2.30  69 2.34 118 2.39
   7  0.512  0.261  0.987-  71 2.20 119 2.34  70 2.40  67 2.58
   8  0.761  0.248  0.995-  68 2.24  72 2.30 120 2.43  71 2.49
   9  0.008  0.496  0.992-  69 2.36  76 2.42 121 2.46  73 2.53
  10  0.244  0.504  1.000-  74 2.24  73 2.38 122 2.42  70 2.53
  11  0.497  0.503  0.994- 123 2.29  71 2.37  74 2.50  75 2.53
  12  0.766  0.490  0.999-  72 2.23  76 2.32  75 2.34 124 2.37
  13  0.000  0.756  0.007-  77 2.23  73 2.33  80 2.33 125 2.47
  14  0.251  0.743  0.004-  74 2.28  77 2.28  78 2.40 126 2.49
  15  0.503  0.740  0.991- 127 2.21  75 2.34  78 2.34  79 2.58
  16  0.756  0.750  0.992-  76 2.31  80 2.34 128 2.49  79 2.67
  17  0.983  0.006  0.259-  84 2.15  81 2.27  65 2.29  93 2.54
  18  0.243  0.003  0.248-  66 2.27  81 2.33  94 2.42  82 2.61
  19  0.502  0.008  0.249-  67 2.23  82 2.24  83 2.26  95 2.27
  20  0.758  0.997  0.256-  96 2.16  84 2.32  68 2.40  83 2.46
  21  0.009  0.258  0.241-  85 2.20  69 2.28  88 2.39  81 2.52
  22  0.236  0.259  0.255-  85 2.28  86 2.34  70 2.44  82 2.52
  23  0.491  0.272  0.241-  71 2.36  86 2.38  87 2.42  83 2.63
  24  0.754  0.237  0.245-  84 2.22  72 2.39  87 2.48  88 2.51
  25  0.992  0.501  0.257-  92 2.31  73 2.41  85 2.41  89 2.53
  26  0.254  0.507  0.253-  90 2.29  89 2.32  74 2.42  86 2.53
  27  0.495  0.512  0.242-  90 2.23  75 2.37  91 2.48  87 2.50
  28  0.754  0.498  0.248-  92 2.35  91 2.41  76 2.43  88 2.52
  29  0.993  0.748  0.252-  89 2.37  93 2.41  96 2.42  77 2.45
  30  0.257  0.740  0.247-  90 2.19  78 2.36  94 2.38  93 2.42
  31  0.505  0.754  0.252-  95 2.33  91 2.40  79 2.40  94 2.48
  32  0.748  0.737  0.257-  92 2.30  95 2.52  96 2.54  80 2.60
  33  0.002  0.997  0.501- 109 2.24  97 2.30 100 2.33  81 2.42
  34  0.252  0.001  0.496- 110 2.26  82 2.29  97 2.40  98 2.43
  35  0.500  0.005  0.501-  99 2.32 111 2.41  83 2.41  98 2.44
  36  0.743  0.009  0.500-  84 2.29  99 2.36 100 2.37 112 2.46
  37  0.015  0.239  0.491-  85 2.24  97 2.33 101 2.49 104 2.67
  38  0.256  0.254  0.496-  86 2.21 102 2.24  98 2.37 101 2.40
  39  0.491  0.240  0.511- 102 2.24  99 2.25  87 2.42 103 2.52
  40  0.749  0.251  0.500- 104 2.27 103 2.32  88 2.36 100 2.44
  41  0.001  0.497  0.493-  89 2.23 105 2.26 101 2.26 108 2.40
  42  0.245  0.503  0.502- 106 2.27 105 2.39  90 2.43 102 2.52
  43  0.502  0.508  0.492-  91 2.20 107 2.33 103 2.40 106 2.53
  44  0.749  0.509  0.496-  92 2.20 107 2.37 108 2.40 104 2.47
  45  0.993  0.746  0.502- 105 2.28 112 2.28  93 2.39 109 2.62
  46  0.244  0.744  0.506- 109 2.23 106 2.29  94 2.46 110 2.49
  47  0.497  0.756  0.499- 110 2.32  95 2.35 111 2.37 107 2.45
  48  0.755  0.748  0.499-  96 2.39 112 2.43 108 2.52 111 2.54
  49  0.021  0.999  0.749- 113 2.10  97 2.35 125 2.40 116 2.62
  50  0.258  1.000  0.737-  98 2.14 126 2.20 114 2.26 113 2.71
  51  0.489  0.013  0.749-  99 2.27 115 2.33 114 2.39 127 2.52
  52  0.748  0.993  0.757- 128 2.25 115 2.35 116 2.38 100 2.44
  53  0.997  0.255  0.742- 120 2.26 113 2.29 101 2.35 117 2.48
  54  0.243  0.259  0.753- 117 2.33 102 2.38 118 2.39 114 2.55
  55  0.497  0.261  0.742- 103 2.32 119 2.40 118 2.41 115 2.45
  56  0.752  0.245  0.758- 120 2.23 119 2.25 116 2.30 104 2.47
  57  0.993  0.506  0.749- 117 2.27 124 2.30 121 2.44 105 2.55
  58  0.246  0.493  0.754- 121 2.21 118 2.34 106 2.39 122 2.53
  59  0.509  0.495  0.748- 119 2.31 123 2.33 107 2.35 122 2.36
  60  0.744  0.492  0.759- 108 2.26 120 2.31 123 2.35 124 2.51
  61  0.998  0.751  0.752- 128 2.25 121 2.29 125 2.37 109 2.41
  62  0.253  0.756  0.740- 110 2.32 125 2.37 126 2.40 122 2.44
  63  0.510  0.747  0.750- 127 2.26 111 2.28 123 2.31 126 2.60
  64  0.751  0.743  0.751- 124 2.20 112 2.33 128 2.37 127 2.50
  65  0.059  0.041  0.080-  17 2.29   1 2.31   2 2.31   5 2.54
  66  0.313  0.063  0.069-   3 2.19  18 2.27   6 2.30   2 2.57
  67  0.565  0.058  0.073-  19 2.23   4 2.28   7 2.58   3 2.59
  68  0.802  0.071  0.067-   8 2.24   4 2.36  20 2.40   1 2.57
  69  0.066  0.309  0.061-  21 2.28   6 2.34   9 2.36   5 2.47
  70  0.323  0.304  0.064-   6 2.27   7 2.40  22 2.44  10 2.53
  71  0.563  0.315  0.056-   7 2.20  23 2.36  11 2.37   8 2.49
  72  0.815  0.314  0.056-  12 2.23   8 2.30  24 2.39   5 2.46
  73  0.056  0.572  0.067-  13 2.33  10 2.38  25 2.41   9 2.53
  74  0.299  0.563  0.064-  10 2.24  14 2.28  26 2.42  11 2.50
  75  0.581  0.556  0.056-  12 2.34  15 2.34  27 2.37  11 2.53
  76  0.816  0.567  0.056-  16 2.31  12 2.32   9 2.42  28 2.43
  77  0.071  0.809  0.059-  13 2.23  14 2.28   1 2.40  29 2.45
  78  0.319  0.809  0.060-  15 2.34  30 2.36   2 2.36  14 2.40
  79  0.545  0.828  0.063-   3 2.12  31 2.40  15 2.58  16 2.67
  80  0.817  0.816  0.051-  13 2.33  16 2.34   4 2.43  32 2.60
  81  0.059  0.059  0.310-  17 2.27  18 2.33  33 2.42  21 2.52
  82  0.325  0.061  0.315-  19 2.24  34 2.29  22 2.52  18 2.61
  83  0.564  0.063  0.311-  19 2.26  35 2.41  20 2.46  23 2.63
  84  0.813  0.062  0.319-  17 2.15  24 2.22  36 2.29  20 2.32
  85  0.055  0.311  0.315-  21 2.20  37 2.24  22 2.28  25 2.41
  86  0.305  0.307  0.322-  38 2.21  22 2.34  23 2.38  26 2.53
  87  0.559  0.315  0.321-  39 2.42  23 2.42  24 2.48  27 2.50
  88  0.821  0.299  0.315-  40 2.36  21 2.39  24 2.51  28 2.52
  89  0.071  0.562  0.317-  41 2.23  26 2.32  29 2.37  25 2.53
  90  0.319  0.567  0.310-  30 2.19  27 2.23  26 2.29  42 2.43
  91  0.563  0.564  0.318-  43 2.20  31 2.40  28 2.41  27 2.48
  92  0.809  0.555  0.322-  44 2.20  32 2.30  25 2.31  28 2.35
  93  0.066  0.806  0.313-  45 2.39  29 2.41  30 2.42  17 2.54
  94  0.309  0.812  0.312-  30 2.38  18 2.42  46 2.46  31 2.48
  95  0.551  0.829  0.314-  19 2.27  31 2.33  47 2.35  32 2.52
  96  0.802  0.827  0.311-  20 2.16  48 2.39  29 2.42  32 2.54
  97  0.062  0.055  0.565-  33 2.30  37 2.33  49 2.35  34 2.40
  98  0.306  0.067  0.568-  50 2.14  38 2.37  34 2.43  35 2.44
  99  0.557  0.063  0.570-  39 2.25  51 2.27  35 2.32  36 2.36
 100  0.817  0.058  0.563-  33 2.33  36 2.37  40 2.44  52 2.44
 101  0.066  0.318  0.557-  41 2.26  53 2.35  38 2.40  37 2.49
 102  0.314  0.303  0.565-  38 2.24  39 2.24  54 2.38  42 2.52
 103  0.566  0.317  0.558-  55 2.32  40 2.32  43 2.40  39 2.52
 104  0.803  0.314  0.563-  40 2.27  44 2.47  56 2.47  37 2.67
 105  0.057  0.566  0.547-  41 2.26  45 2.28  42 2.39  57 2.55
 106  0.301  0.563  0.566-  42 2.27  46 2.29  58 2.39  43 2.53
 107  0.561  0.562  0.562-  43 2.33  59 2.35  44 2.37  47 2.45
 108  0.813  0.549  0.580-  60 2.26  44 2.40  41 2.40  48 2.52
 109  0.068  0.819  0.562-  46 2.23  33 2.24  61 2.41  45 2.62
 110  0.313  0.822  0.556-  34 2.26  62 2.32  47 2.32  46 2.49
 111  0.554  0.814  0.570-  63 2.28  47 2.37  35 2.41  48 2.54
 112  0.813  0.814  0.568-  45 2.28  64 2.33  48 2.43  36 2.46
 113  0.044  0.074  0.813-  49 2.10  53 2.29   1 2.31  50 2.71
 114  0.301  0.057  0.813-  50 2.26  51 2.39   2 2.43  54 2.55
 115  0.563  0.067  0.806-  51 2.33  52 2.35  55 2.45   3 2.57
 116  0.814  0.063  0.809-  56 2.30  52 2.38   4 2.41  49 2.62
 117  0.058  0.326  0.806-  57 2.27  54 2.33   5 2.37  53 2.48
 118  0.308  0.308  0.827-  58 2.34  54 2.39   6 2.39  55 2.41
 119  0.574  0.312  0.803-  56 2.25  59 2.31   7 2.34  55 2.40
 120  0.817  0.310  0.803-  56 2.23  53 2.26  60 2.31   8 2.43
 121  0.072  0.570  0.797-  58 2.21  61 2.29  57 2.44   9 2.46
 122  0.322  0.563  0.809-  59 2.36  10 2.42  62 2.44  58 2.53
 123  0.558  0.565  0.813-  11 2.29  63 2.31  59 2.33  60 2.35
 124  0.810  0.569  0.813-  64 2.20  57 2.30  12 2.37  60 2.51
 125  0.066  0.811  0.812-  62 2.37  61 2.37  49 2.40  13 2.47
 126  0.304  0.826  0.808-  50 2.20  62 2.40  14 2.49  63 2.60
 127  0.554  0.814  0.817-  15 2.21  63 2.26  64 2.50  51 2.52
 128  0.821  0.817  0.795-  61 2.25  52 2.25  64 2.37  16 2.49
 
  LATTYP: Found a face centered cubic cell.
 ALAT       =    21.8746673814
  
  Lattice vectors:
  
 A1 = (   0.0000000000,  10.9373336907,  10.9373336907)
 A2 = (  10.9373336907,   0.0000000000,  10.9373336907)
 A3 = (  10.9373336907,  10.9373336907,   0.0000000000)


Analysis of symmetry for initial positions (statically):
=====================================================================
 Subroutine PRICEL returns:
 Original cell was already a primitive cell.
 

 Routine SETGRP: Setting up the symmetry group for a 
 face centered cubic supercell.


 Subroutine GETGRP returns: Found  1 space group operations
 (whereof  1 operations were pure point group operations)
 out of a pool of 48 trial point group operations.


The static configuration has the point symmetry C_1 .


Analysis of symmetry for dynamics (positions and initial velocities):
=====================================================================
 Subroutine PRICEL returns:
 Original cell was already a primitive cell.
 

 Routine SETGRP: Setting up the symmetry group for a 
 face centered cubic supercell.


 Subroutine GETGRP returns: Found  1 space group operations
 (whereof  1 operations were pure point group operations)
 out of a pool of 48 trial point group operations.


The dynamic configuration has the point symmetry C_1 .


 Subroutine INISYM returns: Found  1 space group operations
 (whereof  1 operations are pure point group operations),
 and found     1 'primitive' translations

 
 
 KPOINTS: KPOINTS File, automatically generated by

Automatic generation of k-mesh.
Space group operators:
 irot       det(A)        alpha          n_x          n_y          n_z        tau_x        tau_y        tau_z
    1     1.000000     0.000001     1.000000     0.000000     0.000000     0.000000     0.000000     0.000000
 
 Subroutine IBZKPT returns following result:
 ===========================================
 
 Found      8 irreducible k-points:
 
 Following reciprocal coordinates:
            Coordinates               Weight
  0.000000  0.000000  0.000000      1.000000
  0.500000  0.000000  0.000000      1.000000
  0.000000  0.500000  0.000000      1.000000
  0.500000  0.500000  0.000000      1.000000
  0.000000  0.000000  0.500000      1.000000
  0.500000  0.000000  0.500000      1.000000
  0.000000  0.500000  0.500000      1.000000
  0.500000  0.500000  0.500000      1.000000
 
 Following cartesian coordinates:
            Coordinates               Weight
  0.000000  0.000000  0.000000      1.000000
 -0.022857  0.022857  0.022857      1.000000
  0.022857 -0.022857  0.022857      1.000000
  0.000000  0.000000  0.045715      1.000000
  0.022857  0.022857 -0.022857      1.000000
  0.000000  0.045715  0.000000      1.000000
  0.045715  0.000000  0.000000      1.000000
  0.022857  0.022857  0.022857      1.000000
 


--------------------------------------------------------------------------------------------------------




 Dimension of arrays:
   k-points           NKPTS =      8   k-points in BZ     NKDIM =      8   number of bands    NBANDS=    322
   number of dos      NEDOS =    301   number of ions     NIONS =    128
   non local maximal  LDIM  =      4   non local SUM 2l+1 LMDIM =      8
   total plane-waves  NPLWV = ******
   max r-space proj   IRMAX =      1   max aug-charges    IRDMAX= 176811
   dimension x,y,z NGX =   120 NGY =  120 NGZ =  120
   dimension x,y,z NGXF=   240 NGYF=  240 NGZF=  240
   support grid    NGXF=   480 NGYF=  480 NGZF=  480
   ions per type =             128
   NGX,Y,Z   is equivalent  to a cutoff of  12.90, 12.90, 12.90 a.u.
   NGXF,Y,Z  is equivalent  to a cutoff of  25.80, 25.80, 25.80 a.u.

 SYSTEM =  potpaw_PBE@./ARUN.APL1ZEROSTATE         
 POSCAR =  kk                                      

 Startparameter for this run:
   NWRITE =      2    write-flag & timer
   PREC   = accura    normal or accurate (medium, high low for compatibility)
   ISTART =      0    job   : 0-new  1-cont  2-samecut
   ICHARG =      2    charge: 1-file 2-atom 10-const
   ISPIN  =      1    spin polarized calculation?
   LNONCOLLINEAR =      F non collinear calculations
   LSORBIT =      F    spin-orbit coupling
   INIWAV =      1    electr: 0-lowe 1-rand  2-diag
   LASPH  =      F    aspherical Exc in radial PAW
   METAGGA=      F    non-selfconsistent MetaGGA calc.

 Electronic Relaxation 1
   ENCUT  =  500.0 eV  36.75 Ry    6.06 a.u.  28.20 28.20 28.20*2*pi/ulx,y,z
   ENINI  =  500.0     initial cutoff
   ENAUG  =  322.1 eV  augmentation charge cutoff
   NELM   =    120;   NELMIN=  4; NELMDL= -5     # of ELM steps 
   EDIFF  = 0.1E-07   stopping-criterion for ELM
   LREAL  =      F    real-space projection
   NLSPLINE    = F    spline interpolate recip. space projectors
   LCOMPAT=      F    compatible to vasp.4.4
   GGA_COMPAT  = T    GGA compatible to vasp.4.4-vasp.4.6
   LMAXPAW     = -100 max onsite density
   LMAXMIX     =    2 max onsite mixed and CHGCAR
   VOSKOWN=      0    Vosko Wilk Nusair interpolation
   ROPT   =    0.00000
 Ionic relaxation
   EDIFFG = 0.1E-06   stopping-criterion for IOM
   NSW    =      0    number of steps for IOM
   NBLOCK =      1;   KBLOCK =      1    inner block; outer block 
   IBRION =     -1    ionic relax: 0-MD 1-quasi-New 2-CG
   NFREE  =      0    steps in history (QN), initial steepest desc. (CG)
   ISIF   =      2    stress and relaxation
   IWAVPR =     10    prediction:  0-non 1-charg 2-wave 3-comb
   ISYM   =      2    0-nonsym 1-usesym 2-fastsym
   LCORR  =      T    Harris-Foulkes like correction to forces

   POTIM  = 0.5000    time-step for ionic-motion
   TEIN   =    0.0    initial temperature
   TEBEG  =    0.0;   TEEND  =   0.0 temperature during run
   SMASS  =  -3.00    Nose mass-parameter (am)
   estimated Nose-frequenzy (Omega)   =  0.10E-29 period in steps =****** mass=  -0.547E-26a.u.
   SCALEE = 1.0000    scale energy and forces
   NPACO  =    256;   APACO  = 16.0  distance and # of slots for P.C.
   PSTRESS=    0.0 pullay stress

  Mass of Ions in am
   POMASS =  28.09
  Ionic Valenz
   ZVAL   =   4.00
  Atomic Wigner-Seitz radii
   RWIGS  =  -1.00
  virtual crystal weights 
   VCA    =   1.00
   NELECT =     512.0000    total number of electrons
   NUPDOWN=      -1.0000    fix difference up-down

 DOS related values:
   EMIN   =  10.00;   EMAX   =-10.00  energy-range for DOS
   EFERMI =   0.00
   ISMEAR =     0;   SIGMA  =   0.01  broadening in eV -4-tet -1-fermi 0-gaus

 Electronic relaxation 2 (details)
   IALGO  =     38    algorithm
   LDIAG  =      T    sub-space diagonalisation (order eigenvalues)
   LSUBROT=      F    optimize rotation matrix (better conditioning)
   TURBO    =      0    0=normal 1=particle mesh
   IRESTART =      0    0=no restart 2=restart with 2 vectors
   NREBOOT  =      0    no. of reboots
   NMIN     =      0    reboot dimension
   EREF     =   0.00    reference energy to select bands
   IMIX   =      4    mixing-type and parameters
     AMIX     =   0.40;   BMIX     =  1.00
     AMIX_MAG =   1.60;   BMIX_MAG =  1.00
     AMIN     =   0.10
     WC   =   100.;   INIMIX=   1;  MIXPRE=   1;  MAXMIX= -45

 Intra band minimization:
   WEIMIN = 0.0000     energy-eigenvalue tresh-hold
   EBREAK =  0.78E-11  absolut break condition
   DEPER  =   0.30     relativ break condition  

   TIME   =   0.40     timestep for ELM

  volume/ion in A,a.u.               =      20.44       137.96
  Fermi-wavevector in a.u.,A,eV,Ry     =   0.950408  1.796010 12.289804  0.903275
  Thomas-Fermi vector in A             =   2.078782
 
 Write flags
   LWAVE        =      F    write WAVECAR
   LDOWNSAMPLE  =      F    k-point downsampling of WAVECAR
   LCHARG       =      F    write CHGCAR
   LVTOT        =      F    write LOCPOT, total local potential
   LVHAR        =      F    write LOCPOT, Hartree potential only
   LELF         =      F    write electronic localiz. function (ELF)
   LORBIT       =      0    0 simple, 1 ext, 2 COOP (PROOUT), +10 PAW based schemes


 Dipole corrections
   LMONO  =      F    monopole corrections only (constant potential shift)
   LDIPOL =      F    correct potential (dipole corrections)
   IDIPOL =      0    1-x, 2-y, 3-z, 4-all directions 
   EPSILON=  1.0000000 bulk dielectric constant

 Exchange correlation treatment:
   GGA     =    --    GGA type
   LEXCH   =     8    internal setting for exchange type
   VOSKOWN=      0    Vosko Wilk Nusair interpolation
   LHFCALC =     F    Hartree Fock is set to
   LHFONE  =     F    Hartree Fock one center treatment
   AEXX    =    0.0000 exact exchange contribution

 Linear response parameters
   LEPSILON=     F    determine dielectric tensor
   LRPA    =     F    only Hartree local field effects (RPA)
   LNABLA  =     F    use nabla operator in PAW spheres
   LVEL    =     F    velocity operator in full k-point grid
   LINTERFAST=   F  fast interpolation
   KINTER  =     0    interpolate to denser k-point grid
   CSHIFT  =0.1000    complex shift for real part using Kramers Kronig
   OMEGAMAX=  -1.0    maximum frequency
   DEG_THRESHOLD= 0.2000000E-02 threshold for treating states as degnerate
   RTIME   =   -0.100 relaxation time in fs
  (WPLASMAI=    0.000 imaginary part of plasma frequency in eV, 0.658/RTIME)
   DFIELD  = 0.0000000 0.0000000 0.0000000 field for delta impulse in time
 
 Orbital magnetization related:
   ORBITALMAG=     F  switch on orbital magnetization
   LCHIMAG   =     F  perturbation theory with respect to B field
   DQ        =  0.001000  dq finite difference perturbation B field
   LLRAUG    =     F  two centre corrections for induced B field



--------------------------------------------------------------------------------------------------------


 Static calculation
 charge density and potential will be updated during run
 non-spin polarized calculation
 Variant of blocked Davidson
 Davidson routine will perform the subspace rotation
 perform sub-space diagonalisation
    after iterative eigenvector-optimisation
 modified Broyden-mixing scheme, WC =      100.0
 initial mixing is a Kerker type mixing with AMIX =  0.4000 and BMIX =      1.0000
 Hartree-type preconditioning will be used
 using additional bands           66
 reciprocal scheme for non local part
 use partial core corrections
 calculate Harris-corrections to forces 
   (improved forces if not selfconsistent)
 use gradient corrections 
 use of overlap-Matrix (Vanderbilt PP)
 Gauss-broadening in eV      SIGMA  =   0.01


--------------------------------------------------------------------------------------------------------


  energy-cutoff  :      500.00
  volume of cell :     2616.76
      direct lattice vectors                 reciprocal lattice vectors
     0.000000000 10.937333691 10.937333691    -0.045714981  0.045714981  0.045714981
    10.937333691  0.000000000 10.937333691     0.045714981 -0.045714981  0.045714981
    10.937333691 10.937333691  0.000000000     0.045714981  0.045714981 -0.045714981

  length of vectors
    15.467725642 15.467725642 15.467725642     0.079180669  0.079180669  0.079180669


 
 k-points in units of 2pi/SCALE and weight: KPOINTS File, automatically generated by
   0.00000000  0.00000000  0.00000000       0.125
  -0.02285749  0.02285749  0.02285749       0.125
   0.02285749 -0.02285749  0.02285749       0.125
   0.00000000  0.00000000  0.04571498       0.125
   0.02285749  0.02285749 -0.02285749       0.125
   0.00000000  0.04571498  0.00000000       0.125
   0.04571498  0.00000000  0.00000000       0.125
   0.02285749  0.02285749  0.02285749       0.125
 
 k-points in reciprocal lattice and weights: KPOINTS File, automatically generated by
   0.00000000  0.00000000  0.00000000       0.125
   0.50000000  0.00000000  0.00000000       0.125
   0.00000000  0.50000000  0.00000000       0.125
   0.50000000  0.50000000  0.00000000       0.125
   0.00000000  0.00000000  0.50000000       0.125
   0.50000000  0.00000000  0.50000000       0.125
   0.00000000  0.50000000  0.50000000       0.125
   0.50000000  0.50000000  0.50000000       0.125
 
 position of ions in fractional coordinates (direct lattice) 
   0.00549225  0.99932256  0.99442295
   0.24075440  0.99485273  0.00613374
   0.48630025  0.99573513  0.00973494
   0.74561979  0.00849832  0.99915631
   0.00942982  0.24043109  0.99179366
   0.25023188  0.24571490  0.01606191
   0.51212830  0.26133781  0.98711465
   0.76065760  0.24751639  0.99527691
   0.00753527  0.49608863  0.99174165
   0.24438806  0.50384716  0.99992883
   0.49720266  0.50319320  0.99428787
   0.76627482  0.48986843  0.99918397
   0.00021429  0.75611357  0.00654828
   0.25109858  0.74280853  0.00424226
   0.50348519  0.73973412  0.99145916
   0.75642129  0.75026069  0.99199054
   0.98334729  0.00590299  0.25937635
   0.24315504  0.00295332  0.24797467
   0.50208023  0.00842462  0.24891678
   0.75846576  0.99710068  0.25554325
   0.00902715  0.25788016  0.24142537
   0.23582976  0.25853997  0.25515329
   0.49123400  0.27163918  0.24136030
   0.75416093  0.23676649  0.24511416
   0.99235671  0.50126070  0.25719526
   0.25419354  0.50665895  0.25308728
   0.49513902  0.51178941  0.24218124
   0.75372224  0.49848242  0.24763980
   0.99305568  0.74834448  0.25222311
   0.25684894  0.74003508  0.24695103
   0.50472081  0.75397659  0.25204436
   0.74791424  0.73655460  0.25674803
   0.00202986  0.99669145  0.50112944
   0.25181030  0.00081051  0.49562699
   0.49978522  0.00470595  0.50146876
   0.74275014  0.00898951  0.49993269
   0.01467324  0.23872370  0.49139262
   0.25630619  0.25361859  0.49609849
   0.49144225  0.24038952  0.51135271
   0.74930501  0.25101191  0.50048923
   0.00116045  0.49745779  0.49326379
   0.24502441  0.50300333  0.50242849
   0.50170136  0.50752411  0.49211220
   0.74914272  0.50913345  0.49572388
   0.99345763  0.74605601  0.50164362
   0.24352793  0.74427542  0.50611369
   0.49653366  0.75598361  0.49904720
   0.75529695  0.74812771  0.49917279
   0.02112086  0.99919199  0.74869983
   0.25816642  0.99968641  0.73671312
   0.48915930  0.01321579  0.74911823
   0.74780543  0.99330402  0.75671209
   0.99650398  0.25537755  0.74229303
   0.24255846  0.25872479  0.75321758
   0.49745430  0.26071294  0.74168473
   0.75170553  0.24472457  0.75806037
   0.99258628  0.50621172  0.74928692
   0.24612263  0.49309957  0.75448688
   0.50863634  0.49517238  0.74798411
   0.74351015  0.49178543  0.75874499
   0.99758347  0.75109546  0.75194785
   0.25323226  0.75602182  0.73964439
   0.50953454  0.74693825  0.75039694
   0.75146715  0.74319296  0.75136119
   0.05865335  0.04101410  0.08001919
   0.31298931  0.06346581  0.06867168
   0.56549743  0.05807653  0.07267317
   0.80235445  0.07103493  0.06660314
   0.06591612  0.30942698  0.06142494
   0.32336198  0.30421982  0.06371844
   0.56318610  0.31537331  0.05582880
   0.81520900  0.31386199  0.05639693
   0.05642354  0.57177479  0.06694366
   0.29901095  0.56310007  0.06350812
   0.58146156  0.55593412  0.05644770
   0.81583408  0.56700406  0.05559896
   0.07085552  0.80941757  0.05891651
   0.31861767  0.80878840  0.06045297
   0.54549096  0.82808237  0.06328524
   0.81658776  0.81636806  0.05118261
   0.05880520  0.05889375  0.30990983
   0.32497335  0.06069542  0.31473475
   0.56393887  0.06331765  0.31071145
   0.81325566  0.06209448  0.31906277
   0.05543798  0.31060651  0.31533180
   0.30527225  0.30727954  0.32150464
   0.55947983  0.31470526  0.32054186
   0.82092337  0.29899901  0.31456398
   0.07082664  0.56209737  0.31745092
   0.31857395  0.56673553  0.31028077
   0.56302103  0.56383987  0.31824982
   0.80930409  0.55467411  0.32175004
   0.06550784  0.80554418  0.31304694
   0.30901107  0.81168020  0.31155977
   0.55090360  0.82936970  0.31374487
   0.80221387  0.82698948  0.31120692
   0.06173944  0.05529411  0.56514570
   0.30623889  0.06678669  0.56768324
   0.55650220  0.06267855  0.56995760
   0.81719810  0.05776363  0.56348007
   0.06629684  0.31842538  0.55676563
   0.31392968  0.30332629  0.56545841
   0.56576231  0.31738317  0.55829090
   0.80329146  0.31416002  0.56301722
   0.05662274  0.56639615  0.54735139
   0.30149672  0.56304652  0.56557261
   0.56149048  0.56221990  0.56213380
   0.81260258  0.54925812  0.58032187
   0.06771833  0.81924199  0.56179902
   0.31263450  0.82165734  0.55598677
   0.55431905  0.81420043  0.57036539
   0.81324092  0.81414793  0.56750109
   0.04384825  0.07436941  0.81336147
   0.30123265  0.05738336  0.81345951
   0.56258783  0.06683179  0.80631591
   0.81444629  0.06256237  0.80877538
   0.05843099  0.32626252  0.80607789
   0.30814423  0.30836973  0.82672900
   0.57414495  0.31237048  0.80260200
   0.81745761  0.30993049  0.80326295
   0.07236626  0.57034737  0.79742980
   0.32173373  0.56292493  0.80924647
   0.55779081  0.56496948  0.81315056
   0.81017457  0.56911856  0.81260221
   0.06593642  0.81081360  0.81158013
   0.30375187  0.82646984  0.80846021
   0.55360193  0.81396396  0.81730009
   0.82058796  0.81673470  0.79493674
 
 position of ions in cartesian coordinates  (Angst):
  21.80625994 10.93640622 10.98999494
  10.94812309  2.70029797 13.51424751
  10.99716165  5.42530239 16.20951556
  11.02105495 19.08319845  8.24804138
  13.47725331 10.95071530  2.73281210
   2.86314033  2.91254402  5.42433548
  13.65474120 16.39772042  8.45965696
  13.59284501 19.20524168 11.02673539
  16.27289619 10.92942504  5.50830257
  16.44729980 13.60950904  8.18369830
  16.37845007 16.31292963 10.94166333
  16.28626292 19.30941187 13.73885784
   8.34148709  0.07396446  8.27221012
   8.17074381  2.79274805 10.87069377
  18.93463854 16.35070515 13.59750442
  19.05558304 19.12296364 16.47908358
   2.90144870 13.59208311 10.81976039
   2.74448325  5.37164961  2.69176932
   2.81462876  8.21390489  5.58356190
  13.70058460 11.09055490 19.20121594
   5.46107120  2.73928278  2.91925438
   5.61843461  5.37004545  5.40708675
   5.61084650  8.01262828  8.34379847
   5.27048940 10.92940508 10.83810385
   8.29548599 13.66676689 16.33619204
   8.30959796  5.54829961  8.32169756
   8.24642852  8.06431762 11.01311217
   8.16058774 10.95223072 13.69578022
  10.94354155 13.62002966 19.04627466
  10.79499643  5.51022837 10.90325322
  11.00318676  8.27699321 13.76679349
  10.86408237 10.98832650 16.23613112
  16.38216689  5.50322122 10.92334824
   5.42970265  8.17497112  2.76299812
   5.53620162 10.95104881  5.51778817
   5.56625190 13.59163681  8.22202736
   7.98552583  5.53501118  2.77148699
   8.19990582  8.22930101  5.57721740
   8.22205570 10.96790313  8.00428832
   8.21941869 13.66941664 10.94079989
  10.83585249  5.40768291  5.45355407
  10.99674332  8.17514182  8.18142898
  10.93335586 10.86967052 11.03823578
  10.99045988 13.61552135 13.76218630
  13.64650719 16.35242123 19.02564116
  13.67592299  8.19908060 10.80393488
  13.72669083 10.88900015 13.69919943
  13.64214172 13.72055415 16.44345719
  19.11727601  8.41978569 11.15950203
  18.99158110 10.88132951 13.75755609
   8.33790149 13.54345452  5.49464395
  19.14051012 16.45541015 19.04309500
  10.91185612 19.01780318 13.69224612
  11.06795146 10.89113488  5.48270224
  10.96355782 13.55287706  8.29232812
  10.96779354 16.51281342 10.89828853
  13.73180751 19.05144845 16.39285383
  13.64526931 10.94400001  8.08511987
  13.59681736 13.74407714 10.97899087
  13.67746850 16.43066576 13.51083991
  16.43928623 19.13520790 19.12588500
  16.35860049 10.85942328 11.03854868
  16.37685462 13.78029101 13.74246208
  16.34643749 16.43693507 16.34759638
   1.32378153  1.51670785  1.09009611
   1.44523182  4.17435365  4.11741522
   1.43005316  6.97988485  6.82023649
   1.50539352  9.50407911  9.55255112
   4.05613114  1.39277164  4.10525273
   4.02426352  4.23362772  6.86407167
   4.05996129  6.77037249  9.60909737
   4.04964542  9.53304490 12.34902616
   6.98587681  1.34930824  6.87081470
   6.85342285  3.96499202  9.42919583
   6.69782427  6.97702648 12.44007608
   6.80961695  9.53115391 15.12456218
   9.49725955  1.41936000  9.62784051
   9.50718287  4.14602209 12.33081640
   9.74918501  6.65838850 15.02322985
   9.48869123  9.49109417 17.86018280
   4.03372789  4.03275934  1.28731275
   4.10620510  6.99670094  4.21818799
   4.09088108  9.56634233  6.86051388
   4.16884411 12.38454458  9.57399666
   6.84609612  4.05523284  4.00355075
   6.87722243  6.85526800  6.69968327
   6.94790977  9.62509086  9.56125404
   6.71074314 12.41920400 12.24896470
   9.61991325  4.24672126  6.92250112
   9.59221987  6.87799386  9.68292516
   9.64770934  9.63875343 12.32485372
   9.58574333 12.37071636 14.91828469
  12.23440432  4.14037995  9.52698658
  12.28525046  6.78739044 12.25737448
  12.50262546  9.45694881 15.09650961
  12.44883385 12.17785475 17.81914076
   6.78595724  6.85645192  1.28003496
   6.93940935  9.55837799  4.07990521
   6.91935262 12.32046671  6.77218650
   6.79474959 15.10093785  9.56974841
   9.57225611  6.81464215  4.20783524
   9.50218817  9.61816090  6.75113454
   9.57753946 12.29414498  9.65925677
   9.59398015 14.94377391 12.22193972
  12.18142844  6.60586652  6.81416547
  12.34408402  9.48342660  9.45579795
  12.29743160 12.28945367 12.29039545
  12.35459324 15.23487948 14.89512485
  15.10490633  6.88524135  9.70098097
  15.06775333  9.50040063 12.40612837
  15.14345846 12.30104903 14.96795423
  15.11155638 15.10163614 17.79929487
   9.70940883  9.37558872  1.29298595
   9.52469902 12.19176011  3.92230297
   9.54990778 14.97215704  6.88417243
   9.53011172 17.75371713  9.59213637
  12.38478490  9.45542207  4.20752131
  12.41495358 12.41248721  6.74301895
  12.19482615 15.05794082  9.69611511
  12.17536814 17.72636159 12.33061979
  14.95983528  9.51324975  7.02957338
  15.00789652 12.36990787  9.67580699
  15.07295883 14.99444324 12.28000396
  15.11234113 17.74885116 15.08578928
  17.74466163  9.59769129  9.58930757
  17.88177556 12.16463463 12.36161201
  17.84167928 14.99401287 14.95752455
  17.62738838 17.66953273 17.90794436
 


--------------------------------------------------------------------------------------------------------


 k-point  1 :   0.0000 0.0000 0.0000  plane waves:   66299
 k-point  2 :   0.5000 0.0000 0.0000  plane waves:   66394
 k-point  3 :   0.0000 0.5000 0.0000  plane waves:   66394
 k-point  4 :   0.5000 0.5000 0.0000  plane waves:   66552
 k-point  5 :   0.0000 0.0000 0.5000  plane waves:   66394
 k-point  6 :   0.5000 0.0000 0.5000  plane waves:   66552
 k-point  7 :   0.0000 0.5000 0.5000  plane waves:   66552
 k-point  8 :   0.5000 0.5000 0.5000  plane waves:   66394

 maximum and minimum number of plane-waves per node :      4207     4110

 maximum number of plane-waves:     66552
 maximum index in each direction: 
   IXMAX=   28   IYMAX=   28   IZMAX=   28
   IXMIN=  -28   IYMIN=  -28   IZMIN=  -28


 parallel 3D FFT for wavefunctions:
    minimum data exchange during FFTs selected (reduces bandwidth)
 parallel 3D FFT for charge:
    minimum data exchange during FFTs selected (reduces bandwidth)


 total amount of memory used by VASP MPI-rank0   221701. kBytes
=======================================================================

   base      :      30000. kBytes
   nonl-proj :      10690. kBytes
   fftplans  :      66746. kBytes
   grid      :      26864. kBytes
   one-center:         24. kBytes
   wavefun   :      87377. kBytes
 
     INWAV:  cpu time    0.0000: real time    0.0002
 Broyden mixing: mesh for mixing (old mesh)
   NGX = 57   NGY = 57   NGZ = 57
  (NGX  =240   NGY  =240   NGZ  =240)
  gives a total of 185193 points

 initial charge density was supplied:
 charge density of overlapping atoms calculated
 number of electron     512.0000000 magnetization 
 keeping initial charge density in first step


--------------------------------------------------------------------------------------------------------


 Maximum index for augmentation-charges         5607 (set IRDMAX)


--------------------------------------------------------------------------------------------------------


 First call to EWALD:  gamma=   0.129
 Maximum number of real-space cells 3x 3x 3
 Maximum number of reciprocal cells 3x 3x 3

    FEWALD:  cpu time    0.0059: real time    0.0059


--------------------------------------- Iteration      1(   1)  ---------------------------------------


    POTLOK:  cpu time    0.4888: real time    0.4951
    SETDIJ:  cpu time    0.5169: real time    0.5171
     EDDAV:  cpu time   70.4994: real time   70.5196
       DOS:  cpu time    0.0048: real time    0.0048
    --------------------------------------------
      LOOP:  cpu time   71.5099: real time   71.5366

 eigenvalue-minimisations  :  5152
 total energy-change (2. order) : 0.1383335E+04  (-0.1908223E+05)
 number of electron     512.0000000 magnetization 
 augmentation part      512.0000000 magnetization 

 Free energy of the ion-electron system (eV)
  ---------------------------------------------------
  alpha Z        PSCENC =       210.77028614
  Ewald energy   TEWEN  =    -14473.96235955
  -Hartree energ DENC   =      -754.10560853
  -exchange      EXHF   =         0.00000000
  -V(xc)+E(xc)   XCENC  =     -1195.40424764
  PAW double counting   =      4221.13331941    -1969.18571412
  entropy T*S    EENTRO =        -0.00194326
  eigenvalues    EBANDS =      2151.61081194
  atomic energy  EATOM  =     13192.48085998
  Solvation  Ediel_sol  =         0.00000000
  ---------------------------------------------------
  free energy    TOTEN  =      1383.33540439 eV

  energy without entropy =     1383.33734765  energy(sigma->0) =     1383.33637602


--------------------------------------------------------------------------------------------------------




--------------------------------------- Iteration      1(   2)  ---------------------------------------


     EDDAV:  cpu time   80.3575: real time   80.3726
       DOS:  cpu time    0.0009: real time    0.0009
    --------------------------------------------
      LOOP:  cpu time   80.3585: real time   80.3735

 eigenvalue-minimisations  :  6120
 total energy-change (2. order) :-0.1919845E+04  (-0.1826356E+04)
 number of electron     512.0000000 magnetization 
 augmentation part      512.0000000 magnetization 

 Free energy of the ion-electron system (eV)
  ---------------------------------------------------
  alpha Z        PSCENC =       210.77028614
  Ewald energy   TEWEN  =    -14473.96235955
  -Hartree energ DENC   =      -754.10560853
  -exchange      EXHF   =         0.00000000
  -V(xc)+E(xc)   XCENC  =     -1195.40424764
  PAW double counting   =      4221.13331941    -1969.18571412
  entropy T*S    EENTRO =        -0.00000000
  eigenvalues    EBANDS =       231.76399841
  atomic energy  EATOM  =     13192.48085998
  Solvation  Ediel_sol  =         0.00000000
  ---------------------------------------------------
  free energy    TOTEN  =      -536.50946588 eV

  energy without entropy =     -536.50946588  energy(sigma->0) =     -536.50946588


--------------------------------------------------------------------------------------------------------




--------------------------------------- Iteration      1(   3)  ---------------------------------------


     EDDAV:  cpu time   82.2662: real time   82.2837
       DOS:  cpu time    0.0020: real time    0.0020
    --------------------------------------------
      LOOP:  cpu time   82.2681: real time   82.2857

 eigenvalue-minimisations  :  6304
 total energy-change (2. order) :-0.1496731E+03  (-0.1466846E+03)
 number of electron     512.0000000 magnetization 
 augmentation part      512.0000000 magnetization 

 Free energy of the ion-electron system (eV)
  ---------------------------------------------------
  alpha Z        PSCENC =       210.77028614
  Ewald energy   TEWEN  =    -14473.96235955
  -Hartree energ DENC   =      -754.10560853
  -exchange      EXHF   =         0.00000000
  -V(xc)+E(xc)   XCENC  =     -1195.40424764
  PAW double counting   =      4221.13331941    -1969.18571412
  entropy T*S    EENTRO =        -0.00000000
  eigenvalues    EBANDS =        82.09092870
  atomic energy  EATOM  =     13192.48085998
  Solvation  Ediel_sol  =         0.00000000
  ---------------------------------------------------
  free energy    TOTEN  =      -686.18253560 eV

  energy without entropy =     -686.18253560  energy(sigma->0) =     -686.18253560


--------------------------------------------------------------------------------------------------------




--------------------------------------- Iteration      1(   4)  ---------------------------------------


     EDDAV:  cpu time   81.2685: real time   81.2796
       DOS:  cpu time    0.0012: real time    0.0012
    --------------------------------------------
      LOOP:  cpu time   81.2696: real time   81.2807

 eigenvalue-minimisations  :  6200
 total energy-change (2. order) :-0.4164427E+01  (-0.4130760E+01)
 number of electron     512.0000000 magnetization 
 augmentation part      512.0000000 magnetization 

 Free energy of the ion-electron system (eV)
  ---------------------------------------------------
  alpha Z        PSCENC =       210.77028614
  Ewald energy   TEWEN  =    -14473.96235955
  -Hartree energ DENC   =      -754.10560853
  -exchange      EXHF   =         0.00000000
  -V(xc)+E(xc)   XCENC  =     -1195.40424764
  PAW double counting   =      4221.13331941    -1969.18571412
  entropy T*S    EENTRO =        -0.00000000
  eigenvalues    EBANDS =        77.92650207
  atomic energy  EATOM  =     13192.48085998
  Solvation  Ediel_sol  =         0.00000000
  ---------------------------------------------------
  free energy    TOTEN  =      -690.34696222 eV

  energy without entropy =     -690.34696222  energy(sigma->0) =     -690.34696222


--------------------------------------------------------------------------------------------------------




--------------------------------------- Iteration      1(   5)  ---------------------------------------


     EDDAV:  cpu time   82.1581: real time   82.1764
       DOS:  cpu time    0.0012: real time    0.0012
    CHARGE:  cpu time    3.1488: real time    3.1490
    MIXING:  cpu time    0.0368: real time    0.0369
    --------------------------------------------
      LOOP:  cpu time   85.3450: real time   85.3634

 eigenvalue-minimisations  :  6296
 total energy-change (2. order) :-0.1428052E+00  (-0.1424239E+00)
 number of electron     511.9999998 magnetization 
 augmentation part      -30.1860563 magnetization 

 Broyden mixing:
  rms(total) = 0.23980E+01    rms(broyden)= 0.23980E+01
  rms(prec ) = 0.29094E+01
  weight for this iteration     100.00

 Free energy of the ion-electron system (eV)
  ---------------------------------------------------
  alpha Z        PSCENC =       210.77028614
  Ewald energy   TEWEN  =    -14473.96235955
  -Hartree energ DENC   =      -754.10560853
  -exchange      EXHF   =         0.00000000
  -V(xc)+E(xc)   XCENC  =     -1195.40424764
  PAW double counting   =      4221.13331941    -1969.18571412
  entropy T*S    EENTRO =        -0.00000000
  eigenvalues    EBANDS =        77.78369691
  atomic energy  EATOM  =     13192.48085998
  Solvation  Ediel_sol  =         0.00000000
  ---------------------------------------------------
  free energy    TOTEN  =      -690.48976739 eV

  energy without entropy =     -690.48976739  energy(sigma->0) =     -690.48976739


--------------------------------------------------------------------------------------------------------




--------------------------------------- Iteration      1(   6)  ---------------------------------------


    POTLOK:  cpu time    0.4903: real time    0.4917
    SETDIJ:  cpu time    0.5151: real time    0.5151
     EDDAV:  cpu time   78.2867: real time   78.2971
       DOS:  cpu time    0.0011: real time    0.0011
    CHARGE:  cpu time    3.1486: real time    3.1487
    MIXING:  cpu time    0.0297: real time    0.0297
    --------------------------------------------
      LOOP:  cpu time   82.4716: real time   82.4835

 eigenvalue-minimisations  :  5936
 total energy-change (2. order) : 0.8566016E+01  (-0.6100843E+00)
 number of electron     511.9999998 magnetization 
 augmentation part      -29.8489517 magnetization 

 Broyden mixing:
  rms(total) = 0.14248E+01    rms(broyden)= 0.14248E+01
  rms(prec ) = 0.17175E+01
  weight for this iteration     100.00

 eigenvalues of (default mixing * dielectric matrix)
  average eigenvalue GAMMA=   2.4282
  2.4282

 Free energy of the ion-electron system (eV)
  ---------------------------------------------------
  alpha Z        PSCENC =       210.77028614
  Ewald energy   TEWEN  =    -14473.96235955
  -Hartree energ DENC   =      -849.37372646
  -exchange      EXHF   =         0.00000000
  -V(xc)+E(xc)   XCENC  =     -1180.77760050
  PAW double counting   =      4465.61986800    -2220.43677937
  entropy T*S    EENTRO =        -0.00000000
  eigenvalues    EBANDS =       173.75570035
  atomic energy  EATOM  =     13192.48085998
  Solvation  Ediel_sol  =         0.00000000
  ---------------------------------------------------
  free energy    TOTEN  =      -681.92375141 eV

  energy without entropy =     -681.92375141  energy(sigma->0) =     -681.92375141


--------------------------------------------------------------------------------------------------------




--------------------------------------- Iteration      1(   7)  ---------------------------------------


    POTLOK:  cpu time    0.4886: real time    0.4912
    SETDIJ:  cpu time    0.5163: real time    0.5163
     EDDAV:  cpu time   77.9665: real time   77.9820
       DOS:  cpu time    0.0014: real time    0.0014
    CHARGE:  cpu time    3.1525: real time    3.1526
    MIXING:  cpu time    0.0477: real time    0.0477
    --------------------------------------------
      LOOP:  cpu time   82.1730: real time   82.1913

 eigenvalue-minimisations  :  5904
 total energy-change (2. order) : 0.3517242E+01  (-0.1167095E+01)
 number of electron     511.9999998 magnetization 
 augmentation part      -29.3949006 magnetization 

 Broyden mixing:
  rms(total) = 0.16086E+00    rms(broyden)= 0.16086E+00
  rms(prec ) = 0.21254E+00
  weight for this iteration     100.00

 eigenvalues of (default mixing * dielectric matrix)
  average eigenvalue GAMMA=   2.0556
  2.0556  2.0556

 Free energy of the ion-electron system (eV)
  ---------------------------------------------------
  alpha Z        PSCENC =       210.77028614
  Ewald energy   TEWEN  =    -14473.96235955
  -Hartree energ DENC   =      -999.11247448
  -exchange      EXHF   =         0.00000000
  -V(xc)+E(xc)   XCENC  =     -1156.99808966
  PAW double counting   =      4784.15347888    -2547.46446640
  entropy T*S    EENTRO =        -0.00000000
  eigenvalues    EBANDS =       311.72625536
  atomic energy  EATOM  =     13192.48085998
  Solvation  Ediel_sol  =         0.00000000
  ---------------------------------------------------
  free energy    TOTEN  =      -678.40650973 eV

  energy without entropy =     -678.40650973  energy(sigma->0) =     -678.40650973


--------------------------------------------------------------------------------------------------------




--------------------------------------- Iteration      1(   8)  ---------------------------------------


    POTLOK:  cpu time    0.4893: real time    0.4931
    SETDIJ:  cpu time    0.5145: real time    0.5145
     EDDAV:  cpu time   76.5648: real time   76.5808
       DOS:  cpu time    0.0011: real time    0.0011
    CHARGE:  cpu time    3.1323: real time    3.1324
    MIXING:  cpu time    0.0329: real time    0.0329
    --------------------------------------------
      LOOP:  cpu time   80.7347: real time   80.7548

 eigenvalue-minimisations  :  5776
 total energy-change (2. order) :-0.4850162E-01  (-0.1180230E+00)
 number of electron     511.9999998 magnetization 
 augmentation part      -29.4639057 magnetization 

 Broyden mixing:
  rms(total) = 0.66692E-01    rms(broyden)= 0.66692E-01
  rms(prec ) = 0.82497E-01
  weight for this iteration     100.00

 eigenvalues of (default mixing * dielectric matrix)
  average eigenvalue GAMMA=   1.9978
  2.6777  1.6579  1.6579

 Free energy of the ion-electron system (eV)
  ---------------------------------------------------
  alpha Z        PSCENC =       210.77028614
  Ewald energy   TEWEN  =    -14473.96235955
  -Hartree energ DENC   =      -992.71474869
  -exchange      EXHF   =         0.00000000
  -V(xc)+E(xc)   XCENC  =     -1157.07574876
  PAW double counting   =      4738.28220425    -2500.16404970
  entropy T*S    EENTRO =        -0.00000000
  eigenvalues    EBANDS =       303.92854498
  atomic energy  EATOM  =     13192.48085998
  Solvation  Ediel_sol  =         0.00000000
  ---------------------------------------------------
  free energy    TOTEN  =      -678.45501135 eV

  energy without entropy =     -678.45501135  energy(sigma->0) =     -678.45501135


--------------------------------------------------------------------------------------------------------




--------------------------------------- Iteration      1(   9)  ---------------------------------------


    POTLOK:  cpu time    0.4885: real time    0.4917
    SETDIJ:  cpu time    0.5174: real time    0.5174
     EDDAV:  cpu time   79.3400: real time   79.3567
       DOS:  cpu time    0.0012: real time    0.0012
    CHARGE:  cpu time    3.1430: real time    3.1431
    MIXING:  cpu time    0.0545: real time    0.0545
    --------------------------------------------
      LOOP:  cpu time   83.5446: real time   83.5645

 eigenvalue-minimisations  :  6048
 total energy-change (2. order) :-0.2367841E-01  (-0.1190318E-01)
 number of electron     511.9999998 magnetization 
 augmentation part      -29.4692798 magnetization 

 Broyden mixing:
  rms(total) = 0.30236E-01    rms(broyden)= 0.30236E-01
  rms(prec ) = 0.35112E-01
  weight for this iteration     100.00

 eigenvalues of (default mixing * dielectric matrix)
  average eigenvalue GAMMA=   1.7750
  2.5939  1.8114  1.8114  0.8832

 Free energy of the ion-electron system (eV)
  ---------------------------------------------------
  alpha Z        PSCENC =       210.77028614
  Ewald energy   TEWEN  =    -14473.96235955
  -Hartree energ DENC   =      -999.79568371
  -exchange      EXHF   =         0.00000000
  -V(xc)+E(xc)   XCENC  =     -1155.83212260
  PAW double counting   =      4741.92390893    -2503.90159283
  entropy T*S    EENTRO =        -0.00000000
  eigenvalues    EBANDS =       309.83801389
  atomic energy  EATOM  =     13192.48085998
  Solvation  Ediel_sol  =         0.00000000
  ---------------------------------------------------
  free energy    TOTEN  =      -678.47868976 eV

  energy without entropy =     -678.47868976  energy(sigma->0) =     -678.47868976


--------------------------------------------------------------------------------------------------------




--------------------------------------- Iteration      1(  10)  ---------------------------------------


    POTLOK:  cpu time    0.4908: real time    0.4920
    SETDIJ:  cpu time    0.5121: real time    0.5121
     EDDAV:  cpu time   79.0786: real time   79.0911
       DOS:  cpu time    0.0011: real time    0.0011
    CHARGE:  cpu time    3.1334: real time    3.1335
    MIXING:  cpu time    0.0351: real time    0.0351
    --------------------------------------------
      LOOP:  cpu time   83.2511: real time   83.2650

 eigenvalue-minimisations  :  6024
 total energy-change (2. order) :-0.2379682E-02  (-0.9423151E-03)
 number of electron     511.9999998 magnetization 
 augmentation part      -29.4795168 magnetization 

 Broyden mixing:
  rms(total) = 0.12550E-01    rms(broyden)= 0.12550E-01
  rms(prec ) = 0.14967E-01
  weight for this iteration     100.00

 eigenvalues of (default mixing * dielectric matrix)
  average eigenvalue GAMMA=   1.8559
  2.6897  2.6897  1.4964  1.4964  0.9071

 Free energy of the ion-electron system (eV)
  ---------------------------------------------------
  alpha Z        PSCENC =       210.77028614
  Ewald energy   TEWEN  =    -14473.96235955
  -Hartree energ DENC   =      -998.55513703
  -exchange      EXHF   =         0.00000000
  -V(xc)+E(xc)   XCENC  =     -1156.01665883
  PAW double counting   =      4734.59466311    -2496.38803991
  entropy T*S    EENTRO =        -0.00000000
  eigenvalues    EBANDS =       308.59531663
  atomic energy  EATOM  =     13192.48085998
  Solvation  Ediel_sol  =         0.00000000
  ---------------------------------------------------
  free energy    TOTEN  =      -678.48106944 eV

  energy without entropy =     -678.48106944  energy(sigma->0) =     -678.48106944


--------------------------------------------------------------------------------------------------------




--------------------------------------- Iteration      1(  11)  ---------------------------------------


    POTLOK:  cpu time    0.4870: real time    0.4898
    SETDIJ:  cpu time    0.5144: real time    0.5145
     EDDAV:  cpu time   76.8185: real time   76.8389
       DOS:  cpu time    0.0016: real time    0.0016
    CHARGE:  cpu time    3.1387: real time    3.1390
    MIXING:  cpu time    0.0379: real time    0.0379
    --------------------------------------------
      LOOP:  cpu time   80.9981: real time   81.0216

 eigenvalue-minimisations  :  5776
 total energy-change (2. order) :-0.1707906E-02  (-0.2880705E-03)
 number of electron     511.9999998 magnetization 
 augmentation part      -29.4827334 magnetization 

 Broyden mixing:
  rms(total) = 0.43437E-02    rms(broyden)= 0.43436E-02
  rms(prec ) = 0.60915E-02
  weight for this iteration     100.00

 eigenvalues of (default mixing * dielectric matrix)
  average eigenvalue GAMMA=   1.7608
  2.8328  2.0442  1.8132  1.8132  1.1989  0.8625

 Free energy of the ion-electron system (eV)
  ---------------------------------------------------
  alpha Z        PSCENC =       210.77028614
  Ewald energy   TEWEN  =    -14473.96235955
  -Hartree energ DENC   =      -998.34267606
  -exchange      EXHF   =         0.00000000
  -V(xc)+E(xc)   XCENC  =     -1156.04296717
  PAW double counting   =      4729.45249277    -2491.12496578
  entropy T*S    EENTRO =        -0.00000000
  eigenvalues    EBANDS =       308.28655231
  atomic energy  EATOM  =     13192.48085998
  Solvation  Ediel_sol  =         0.00000000
  ---------------------------------------------------
  free energy    TOTEN  =      -678.48277735 eV

  energy without entropy =     -678.48277735  energy(sigma->0) =     -678.48277735


--------------------------------------------------------------------------------------------------------




--------------------------------------- Iteration      1(  12)  ---------------------------------------


    POTLOK:  cpu time    0.4897: real time    0.4913
    SETDIJ:  cpu time    0.5143: real time    0.5143
     EDDAV:  cpu time   80.1812: real time   80.2092
       DOS:  cpu time    0.0011: real time    0.0011
    CHARGE:  cpu time    3.1499: real time    3.1501
    MIXING:  cpu time    0.0273: real time    0.0273
    --------------------------------------------
      LOOP:  cpu time   84.3636: real time   84.3934

 eigenvalue-minimisations  :  6128
 total energy-change (2. order) :-0.2560677E-04  (-0.4907356E-04)
 number of electron     511.9999998 magnetization 
 augmentation part      -29.4807924 magnetization 

 Broyden mixing:
  rms(total) = 0.18313E-02    rms(broyden)= 0.18313E-02
  rms(prec ) = 0.22266E-02
  weight for this iteration     100.00

 eigenvalues of (default mixing * dielectric matrix)
  average eigenvalue GAMMA=   1.8313
  3.1612  2.7026  1.7655  1.7655  0.8935  1.2652  1.2652

 Free energy of the ion-electron system (eV)
  ---------------------------------------------------
  alpha Z        PSCENC =       210.77028614
  Ewald energy   TEWEN  =    -14473.96235955
  -Hartree energ DENC   =      -998.98934322
  -exchange      EXHF   =         0.00000000
  -V(xc)+E(xc)   XCENC  =     -1155.96857603
  PAW double counting   =      4730.87510172    -2492.59413141
  entropy T*S    EENTRO =        -0.00000000
  eigenvalues    EBANDS =       308.90535941
  atomic energy  EATOM  =     13192.48085998
  Solvation  Ediel_sol  =         0.00000000
  ---------------------------------------------------
  free energy    TOTEN  =      -678.48280296 eV

  energy without entropy =     -678.48280296  energy(sigma->0) =     -678.48280296


--------------------------------------------------------------------------------------------------------




--------------------------------------- Iteration      1(  13)  ---------------------------------------


    POTLOK:  cpu time    0.4888: real time    0.4903
    SETDIJ:  cpu time    0.5134: real time    0.5134
     EDDAV:  cpu time   77.2698: real time   77.2848
       DOS:  cpu time    0.0014: real time    0.0014
    CHARGE:  cpu time    3.1145: real time    3.1146
    MIXING:  cpu time    0.0238: real time    0.0238
    --------------------------------------------
      LOOP:  cpu time   81.4119: real time   81.4283

 eigenvalue-minimisations  :  5832
 total energy-change (2. order) :-0.3840944E-04  (-0.1434242E-04)
 number of electron     511.9999998 magnetization 
 augmentation part      -29.4805238 magnetization 

 Broyden mixing:
  rms(total) = 0.63725E-03    rms(broyden)= 0.63723E-03
  rms(prec ) = 0.85373E-03
  weight for this iteration     100.00

 eigenvalues of (default mixing * dielectric matrix)
  average eigenvalue GAMMA=   1.7687
  3.1419  2.5723  1.9221  1.9221  1.3618  1.3618  0.9339  0.9339

 Free energy of the ion-electron system (eV)
  ---------------------------------------------------
  alpha Z        PSCENC =       210.77028614
  Ewald energy   TEWEN  =    -14473.96235955
  -Hartree energ DENC   =      -999.02144751
  -exchange      EXHF   =         0.00000000
  -V(xc)+E(xc)   XCENC  =     -1155.97642555
  PAW double counting   =      4730.36867620    -2492.07900092
  entropy T*S    EENTRO =        -0.00000000
  eigenvalues    EBANDS =       308.93656984
  atomic energy  EATOM  =     13192.48085998
  Solvation  Ediel_sol  =         0.00000000
  ---------------------------------------------------
  free energy    TOTEN  =      -678.48284137 eV

  energy without entropy =     -678.48284137  energy(sigma->0) =     -678.48284137


--------------------------------------------------------------------------------------------------------




--------------------------------------- Iteration      1(  14)  ---------------------------------------


    POTLOK:  cpu time    0.4894: real time    0.4910
    SETDIJ:  cpu time    0.5151: real time    0.5151
     EDDAV:  cpu time   79.8625: real time   79.8776
       DOS:  cpu time    0.0011: real time    0.0011
    CHARGE:  cpu time    3.1191: real time    3.1193
    MIXING:  cpu time    0.0428: real time    0.0428
    --------------------------------------------
      LOOP:  cpu time   84.0300: real time   84.0470

 eigenvalue-minimisations  :  6096
 total energy-change (2. order) :-0.1442306E-05  (-0.1116083E-05)
 number of electron     511.9999998 magnetization 
 augmentation part      -29.4805204 magnetization 

 Broyden mixing:
  rms(total) = 0.24798E-03    rms(broyden)= 0.24794E-03
  rms(prec ) = 0.33417E-03
  weight for this iteration     100.00

 eigenvalues of (default mixing * dielectric matrix)
  average eigenvalue GAMMA=   1.7666
  3.2096  2.6029  2.2584  1.6964  1.6964  1.2509  1.2509  0.9249  1.0092

 Free energy of the ion-electron system (eV)
  ---------------------------------------------------
  alpha Z        PSCENC =       210.77028614
  Ewald energy   TEWEN  =    -14473.96235955
  -Hartree energ DENC   =      -999.05198900
  -exchange      EXHF   =         0.00000000
  -V(xc)+E(xc)   XCENC  =     -1155.97064947
  PAW double counting   =      4730.47337432    -2492.18521731
  entropy T*S    EENTRO =        -0.00000000
  eigenvalues    EBANDS =       308.96285207
  atomic energy  EATOM  =     13192.48085998
  Solvation  Ediel_sol  =         0.00000000
  ---------------------------------------------------
  free energy    TOTEN  =      -678.48284281 eV

  energy without entropy =     -678.48284281  energy(sigma->0) =     -678.48284281


--------------------------------------------------------------------------------------------------------




--------------------------------------- Iteration      1(  15)  ---------------------------------------


    POTLOK:  cpu time    0.4916: real time    0.4927
    SETDIJ:  cpu time    0.5102: real time    0.5102
     EDDAV:  cpu time   78.7002: real time   78.7214
       DOS:  cpu time    0.0017: real time    0.0017
    CHARGE:  cpu time    3.1201: real time    3.1202
    MIXING:  cpu time    0.0372: real time    0.0372
    --------------------------------------------
      LOOP:  cpu time   82.8610: real time   82.8834

 eigenvalue-minimisations  :  5992
 total energy-change (2. order) :-0.5469725E-05  (-0.3535657E-06)
 number of electron     511.9999998 magnetization 
 augmentation part      -29.4803204 magnetization 

 Broyden mixing:
  rms(total) = 0.81982E-04    rms(broyden)= 0.81844E-04
  rms(prec ) = 0.11005E-03
  weight for this iteration     100.00

 eigenvalues of (default mixing * dielectric matrix)
  average eigenvalue GAMMA=   1.7038
  3.2398  2.6064  2.1559  1.6857  1.6857  1.3970  1.3970  1.0535  0.9083  0.9083

 Free energy of the ion-electron system (eV)
  ---------------------------------------------------
  alpha Z        PSCENC =       210.77028614
  Ewald energy   TEWEN  =    -14473.96235955
  -Hartree energ DENC   =      -999.09032377
  -exchange      EXHF   =         0.00000000
  -V(xc)+E(xc)   XCENC  =     -1155.96801937
  PAW double counting   =      4730.58319057    -2492.29847670
  entropy T*S    EENTRO =        -0.00000000
  eigenvalues    EBANDS =       309.00199441
  atomic energy  EATOM  =     13192.48085998
  Solvation  Ediel_sol  =         0.00000000
  ---------------------------------------------------
  free energy    TOTEN  =      -678.48284828 eV

  energy without entropy =     -678.48284828  energy(sigma->0) =     -678.48284828


--------------------------------------------------------------------------------------------------------




--------------------------------------- Iteration      1(  16)  ---------------------------------------


    POTLOK:  cpu time    0.4901: real time    0.4913
    SETDIJ:  cpu time    0.5151: real time    0.5151
     EDDAV:  cpu time   81.3373: real time   81.3591
       DOS:  cpu time    0.0011: real time    0.0011
    CHARGE:  cpu time    3.0831: real time    3.0833
    MIXING:  cpu time    0.0427: real time    0.0427
    --------------------------------------------
      LOOP:  cpu time   85.4694: real time   85.4927

 eigenvalue-minimisations  :  6240
 total energy-change (2. order) : 0.5758211E-06  (-0.2510336E-07)
 number of electron     511.9999998 magnetization 
 augmentation part      -29.4803237 magnetization 

 Broyden mixing:
  rms(total) = 0.48145E-04    rms(broyden)= 0.47910E-04
  rms(prec ) = 0.63783E-04
  weight for this iteration     100.00

 eigenvalues of (default mixing * dielectric matrix)
  average eigenvalue GAMMA=   1.7163
  3.2933  2.6416  2.0024  2.0024  1.5161  1.5161  1.6407  0.9111  1.1526  1.1017
  1.1017

 Free energy of the ion-electron system (eV)
  ---------------------------------------------------
  alpha Z        PSCENC =       210.77028614
  Ewald energy   TEWEN  =    -14473.96235955
  -Hartree energ DENC   =      -999.08806329
  -exchange      EXHF   =         0.00000000
  -V(xc)+E(xc)   XCENC  =     -1155.96822250
  PAW double counting   =      4730.57243541    -2492.28727884
  entropy T*S    EENTRO =        -0.00000000
  eigenvalues    EBANDS =       308.99949494
  atomic energy  EATOM  =     13192.48085998
  Solvation  Ediel_sol  =         0.00000000
  ---------------------------------------------------
  free energy    TOTEN  =      -678.48284770 eV

  energy without entropy =     -678.48284770  energy(sigma->0) =     -678.48284770


--------------------------------------------------------------------------------------------------------




--------------------------------------- Iteration      1(  17)  ---------------------------------------


    POTLOK:  cpu time    0.4923: real time    0.4931
    SETDIJ:  cpu time    0.5176: real time    0.5182
     EDDAV:  cpu time   78.1969: real time   78.2206
       DOS:  cpu time    0.0018: real time    0.0018
    CHARGE:  cpu time    3.0903: real time    3.0912
    MIXING:  cpu time    0.0330: real time    0.0330
    --------------------------------------------
      LOOP:  cpu time   82.3319: real time   82.3579

 eigenvalue-minimisations  :  5928
 total energy-change (2. order) : 0.2911602E-06  (-0.6895773E-08)
 number of electron     511.9999998 magnetization 
 augmentation part      -29.4803333 magnetization 

 Broyden mixing:
  rms(total) = 0.16737E-04    rms(broyden)= 0.16047E-04
  rms(prec ) = 0.19067E-04
  weight for this iteration     100.00

 eigenvalues of (default mixing * dielectric matrix)
  average eigenvalue GAMMA=   1.6835
  3.2715  2.6078  2.1122  2.1122  1.6036  1.6036  1.4507  1.4507  0.9849  0.9216
  1.0414  1.0414

 Free energy of the ion-electron system (eV)
  ---------------------------------------------------
  alpha Z        PSCENC =       210.77028614
  Ewald energy   TEWEN  =    -14473.96235955
  -Hartree energ DENC   =      -999.08616775
  -exchange      EXHF   =         0.00000000
  -V(xc)+E(xc)   XCENC  =     -1155.96832779
  PAW double counting   =      4730.57043338    -2492.28501556
  entropy T*S    EENTRO =        -0.00000000
  eigenvalues    EBANDS =       308.99744374
  atomic energy  EATOM  =     13192.48085998
  Solvation  Ediel_sol  =         0.00000000
  ---------------------------------------------------
  free energy    TOTEN  =      -678.48284741 eV

  energy without entropy =     -678.48284741  energy(sigma->0) =     -678.48284741


--------------------------------------------------------------------------------------------------------




--------------------------------------- Iteration      1(  18)  ---------------------------------------


    POTLOK:  cpu time    0.4902: real time    0.4918
    SETDIJ:  cpu time    0.5142: real time    0.5149
     EDDAV:  cpu time   52.1128: real time   52.1344
       DOS:  cpu time    0.0012: real time    0.0012
    CHARGE:  cpu time    3.0872: real time    3.0873
    MIXING:  cpu time    0.0395: real time    0.0395
    --------------------------------------------
      LOOP:  cpu time   56.2450: real time   56.2690

 eigenvalue-minimisations  :  3312
 total energy-change (2. order) :-0.1398876E-06  (-0.1177292E-08)
 number of electron     511.9999998 magnetization 
 augmentation part      -29.4803298 magnetization 

 Broyden mixing:
  rms(total) = 0.86944E-05    rms(broyden)= 0.72797E-05
  rms(prec ) = 0.94278E-05
  weight for this iteration     100.00
  WARNING: grid for Broyden might be to small

 eigenvalues of (default mixing * dielectric matrix)
  average eigenvalue GAMMA=   1.7033
  3.3171  2.6761  2.4890  2.0480  1.7964  1.7964  1.2742  1.2742  0.9227  0.9769
  1.1091  1.2312  1.2312

 Free energy of the ion-electron system (eV)
  ---------------------------------------------------
  alpha Z        PSCENC =       210.77028614
  Ewald energy   TEWEN  =    -14473.96235955
  -Hartree energ DENC   =      -999.08686595
  -exchange      EXHF   =         0.00000000
  -V(xc)+E(xc)   XCENC  =     -1155.96821126
  PAW double counting   =      4730.57589029    -2492.29055138
  entropy T*S    EENTRO =        -0.00000000
  eigenvalues    EBANDS =       308.99810417
  atomic energy  EATOM  =     13192.48085998
  Solvation  Ediel_sol  =         0.00000000
  ---------------------------------------------------
  free energy    TOTEN  =      -678.48284755 eV

  energy without entropy =     -678.48284755  energy(sigma->0) =     -678.48284755


--------------------------------------------------------------------------------------------------------




--------------------------------------- Iteration      1(  19)  ---------------------------------------


    POTLOK:  cpu time    0.4892: real time    0.4923
    SETDIJ:  cpu time    0.5100: real time    0.5100
     EDDAV:  cpu time   51.1535: real time   51.1768
       DOS:  cpu time    0.0011: real time    0.0011
    CHARGE:  cpu time    3.0851: real time    3.0862
    MIXING:  cpu time    0.0347: real time    0.0347
    --------------------------------------------
      LOOP:  cpu time   55.2736: real time   55.3011

 eigenvalue-minimisations  :  3216
 total energy-change (2. order) :-0.1801163E-07  (-0.2122625E-09)
 number of electron     511.9999998 magnetization 
 augmentation part      -29.4803284 magnetization 

 Broyden mixing:
  rms(total) = 0.54791E-05    rms(broyden)= 0.27242E-05
  rms(prec ) = 0.36708E-05
  weight for this iteration     100.00
  WARNING: grid for Broyden might be to small

 eigenvalues of (default mixing * dielectric matrix)
  average eigenvalue GAMMA=   1.6851
  3.3058  2.6961  2.4194  2.1033  1.8298  1.8298  1.4297  1.4297  1.2244  1.2244
  0.9174  0.9770  1.1019  1.1019

 Free energy of the ion-electron system (eV)
  ---------------------------------------------------
  alpha Z        PSCENC =       210.77028614
  Ewald energy   TEWEN  =    -14473.96235955
  -Hartree energ DENC   =      -999.08715856
  -exchange      EXHF   =         0.00000000
  -V(xc)+E(xc)   XCENC  =     -1155.96818254
  PAW double counting   =      4730.57696411    -2492.29163281
  entropy T*S    EENTRO =        -0.00000000
  eigenvalues    EBANDS =       308.99837565
  atomic energy  EATOM  =     13192.48085998
  Solvation  Ediel_sol  =         0.00000000
  ---------------------------------------------------
  free energy    TOTEN  =      -678.48284757 eV

  energy without entropy =     -678.48284757  energy(sigma->0) =     -678.48284757


--------------------------------------------------------------------------------------------------------




--------------------------------------- Iteration      1(  20)  ---------------------------------------


    POTLOK:  cpu time    0.4897: real time    0.4927
    SETDIJ:  cpu time    0.5140: real time    0.5140
     EDDAV:  cpu time   50.4851: real time   50.5086
       DOS:  cpu time    0.0010: real time    0.0010
    --------------------------------------------
      LOOP:  cpu time   51.4898: real time   51.5163

 eigenvalue-minimisations  :  3152
 total energy-change (2. order) : 0.7368726E-08  (-0.3838174E-10)
 number of electron     511.9999998 magnetization 
 augmentation part      -29.4803284 magnetization 

 Free energy of the ion-electron system (eV)
  ---------------------------------------------------
  alpha Z        PSCENC =       210.77028614
  Ewald energy   TEWEN  =    -14473.96235955
  -Hartree energ DENC   =      -999.08713361
  -exchange      EXHF   =         0.00000000
  -V(xc)+E(xc)   XCENC  =     -1155.96818506
  PAW double counting   =      4730.57682360    -2492.29148697
  entropy T*S    EENTRO =        -0.00000000
  eigenvalues    EBANDS =       308.99834790
  atomic energy  EATOM  =     13192.48085998
  Solvation  Ediel_sol  =         0.00000000
  ---------------------------------------------------
  free energy    TOTEN  =      -678.48284756 eV

  energy without entropy =     -678.48284756  energy(sigma->0) =     -678.48284756


--------------------------------------------------------------------------------------------------------




 average (electrostatic) potential at core
  the test charge radii are     0.9892
  (the norm of the test charge is              1.0000)
       1 -83.5974       2 -83.6774       3 -83.5078       4 -83.4896       5 -83.6513
       6 -83.5519       7 -83.5278       8 -83.5868       9 -83.5050      10 -83.4280
      11 -83.4620      12 -83.6060      13 -83.3083      14 -83.3910      15 -83.4962
      16 -83.4859      17 -83.6387      18 -83.4996      19 -83.4355      20 -83.5328
      21 -83.4670      22 -83.5492      23 -83.5513      24 -83.6953      25 -83.5272
      26 -83.5364      27 -83.5851      28 -83.5184      29 -83.3444      30 -83.3552
      31 -83.3674      32 -83.4825      33 -83.6010      34 -83.4341      35 -83.4615
      36 -83.6851      37 -83.5588      38 -83.4825      39 -83.5280      40 -83.4574
      41 -83.4211      42 -83.6068      43 -83.5249      44 -83.4327      45 -83.4190
      46 -83.3801      47 -83.3606      48 -83.3997      49 -83.7087      50 -83.4534
      51 -83.6465      52 -83.6419      53 -83.6725      54 -83.6214      55 -83.7039
      56 -83.5009      57 -83.5337      58 -83.5237      59 -83.5307      60 -83.6593
      61 -83.5131      62 -83.3673      63 -83.4141      64 -83.5381      65 -83.6952
      66 -83.4723      67 -83.5171      68 -83.5748      69 -83.5847      70 -83.5761
      71 -83.4496      72 -83.6383      73 -83.4497      74 -83.4911      75 -83.6284
      76 -83.5348      77 -83.3197      78 -83.4432      79 -83.4838      80 -83.4133
      81 -83.6114      82 -83.5741      83 -83.4833      84 -83.5926      85 -83.4457
      86 -83.5228      87 -83.6675      88 -83.5395      89 -83.4660      90 -83.4113
      91 -83.4292      92 -83.4349      93 -83.4733      94 -83.3075      95 -83.3732
      96 -83.3969      97 -83.6078      98 -83.4529      99 -83.5307     100 -83.5316
     101 -83.5817     102 -83.5451     103 -83.5659     104 -83.4581     105 -83.4882
     106 -83.5411     107 -83.4976     108 -83.6165     109 -83.3795     110 -83.2596
     111 -83.3412     112 -83.4435     113 -83.6691     114 -83.6398     115 -83.7142
     116 -83.6030     117 -83.6125     118 -83.7160     119 -83.5467     120 -83.6069
     121 -83.5578     122 -83.5813     123 -83.4990     124 -83.6436     125 -83.4976
     126 -83.4595     127 -83.5157     128 -83.4721
 
 
 
 E-fermi :   5.9088     XC(G=0):  -9.3338     alpha+bet :-11.7321


 k-point     1 :       0.0000    0.0000    0.0000
  band No.  band energies     occupation 
      1      -6.3016      2.00000
      2      -5.6982      2.00000
      3      -5.6322      2.00000
      4      -5.5815      2.00000
      5      -5.5495      2.00000
      6      -5.5291      2.00000
      7      -5.5166      2.00000
      8      -5.4714      2.00000
      9      -5.4123      2.00000
     10      -5.3011      2.00000
     11      -5.2505      2.00000
     12      -5.1913      2.00000
     13      -5.1639      2.00000
     14      -5.1596      2.00000
     15      -5.1457      2.00000
     16      -4.4874      2.00000
     17      -4.4405      2.00000
     18      -4.4308      2.00000
     19      -4.4123      2.00000
     20      -4.4102      2.00000
     21      -4.3516      2.00000
     22      -4.3346      2.00000
     23      -4.2773      2.00000
     24      -4.2449      2.00000
     25      -4.2152      2.00000
     26      -4.2020      2.00000
     27      -4.1542      2.00000
     28      -4.1096      2.00000
     29      -4.0246      2.00000
     30      -3.9808      2.00000
     31      -3.9093      2.00000
     32      -3.8953      2.00000
     33      -3.8069      2.00000
     34      -3.7787      2.00000
     35      -3.7290      2.00000
     36      -3.7027      2.00000
     37      -3.6860      2.00000
     38      -3.6515      2.00000
     39      -3.6255      2.00000
     40      -3.6016      2.00000
     41      -3.5859      2.00000
     42      -3.5652      2.00000
     43      -3.5542      2.00000
     44      -3.5429      2.00000
     45      -3.5070      2.00000
     46      -3.4934      2.00000
     47      -3.4713      2.00000
     48      -3.4443      2.00000
     49      -3.4115      2.00000
     50      -3.3801      2.00000
     51      -3.3702      2.00000
     52      -3.3335      2.00000
     53      -3.3108      2.00000
     54      -3.2630      2.00000
     55      -3.2436      2.00000
     56      -2.3786      2.00000
     57      -2.3025      2.00000
     58      -2.2493      2.00000
     59      -2.2329      2.00000
     60      -2.1934      2.00000
     61      -2.1438      2.00000
     62      -2.1275      2.00000
     63      -2.0914      2.00000
     64      -2.0669      2.00000
     65      -2.0402      2.00000
     66      -1.9774      2.00000
     67      -1.9540      2.00000
     68      -1.9333      2.00000
     69      -1.9042      2.00000
     70      -1.8942      2.00000
     71      -1.8425      2.00000
     72      -1.8342      2.00000
     73      -1.8310      2.00000
     74      -1.3868      2.00000
     75      -1.3451      2.00000
     76      -1.3077      2.00000
     77      -1.2591      2.00000
     78      -1.0116      2.00000
     79      -0.9454      2.00000
     80      -0.9314      2.00000
     81      -0.9276      2.00000
     82      -0.8921      2.00000
     83      -0.8632      2.00000
     84      -0.8411      2.00000
     85      -0.8296      2.00000
     86      -0.8077      2.00000
     87      -0.7816      2.00000
     88      -0.7668      2.00000
     89      -0.7116      2.00000
     90      -0.7006      2.00000
     91      -0.6870      2.00000
     92      -0.6533      2.00000
     93      -0.6386      2.00000
     94      -0.6168      2.00000
     95      -0.5896      2.00000
     96      -0.5623      2.00000
     97      -0.5581      2.00000
     98      -0.5485      2.00000
     99      -0.5080      2.00000
    100      -0.4717      2.00000
    101      -0.3872      2.00000
    102      -0.0186      2.00000
    103       0.0206      2.00000
[...]
   -.830E+01 -.438E+01 0.223E+00   0.777E+01 0.421E+01 0.148E+00   0.404E+00 0.131E+01 -.548E+00   0.432E-05 -.127E-05 0.880E-06
   -.874E+01 -.446E+00 0.221E+00   0.725E+01 0.365E+00 -.672E+00   0.307E+01 0.293E+00 0.327E+00   -.231E-05 0.686E-06 -.876E-06
   -.147E+01 -.124E+01 -.609E+01   0.132E+01 0.125E+01 0.557E+01   -.147E+00 -.210E+00 -.210E+00   -.107E-05 0.107E-05 -.288E-05
   0.176E+02 -.111E+02 0.324E+01   -.156E+02 0.997E+01 -.268E+01   -.542E+01 0.370E+01 -.229E+01   -.248E-06 0.124E-05 0.961E-06
   -.646E+01 0.642E+00 0.691E+01   0.577E+01 -.631E+00 -.663E+01   0.192E+01 0.736E+00 -.952E+00   -.366E-06 0.123E-05 -.163E-05
   -.400E+01 -.419E+00 -.430E+01   0.332E+01 0.371E+00 0.469E+01   0.214E+01 0.382E+00 0.947E+00   -.165E-05 0.365E-05 -.124E-05
   0.384E+01 0.130E+02 0.955E+00   -.299E+01 -.119E+02 -.792E+00   -.142E+00 -.383E+01 -.114E+01   -.257E-05 0.256E-05 -.689E-06
   -.630E+01 -.126E+01 -.106E+02   0.595E+01 0.756E+00 0.101E+02   0.181E+01 0.110E+01 0.205E+01   -.331E-05 -.221E-05 -.239E-05
   -.628E+01 0.210E+01 0.721E+01   0.571E+01 -.255E+01 -.627E+01   0.925E+00 -.575E+00 -.278E+01   -.954E-06 0.164E-05 -.421E-06
   -.565E+01 0.663E+01 -.378E+01   0.493E+01 -.621E+01 0.333E+01   0.151E+01 -.629E+00 0.199E+01   0.186E-05 0.423E-06 0.928E-06
   0.691E+01 0.654E+01 -.719E+01   -.685E+01 -.609E+01 0.697E+01   -.378E+00 -.182E+01 0.231E+01   0.378E-06 -.785E-06 0.263E-06
   -.268E+01 -.348E+01 -.844E+01   0.253E+01 0.279E+01 0.787E+01   -.298E+00 0.532E-01 0.804E+00   -.112E-06 -.217E-05 0.223E-05
   0.128E+00 0.997E+01 0.261E+00   0.688E-01 -.943E+01 0.212E+00   -.477E-01 -.178E+01 0.103E+00   0.656E-06 -.107E-05 0.665E-06
   0.834E+01 0.108E+02 -.405E+00   -.754E+01 -.103E+02 0.326E+00   -.161E+01 -.254E+01 -.210E+00   -.561E-07 -.151E-05 -.110E-05
   0.495E+00 -.127E+02 0.371E+01   -.560E+00 0.113E+02 -.263E+01   0.241E+00 0.209E+01 -.280E+01   0.152E-05 -.198E-05 0.280E-05
   0.106E+02 0.633E+01 -.522E+01   -.983E+01 -.563E+01 0.491E+01   -.231E+01 -.236E+01 0.166E+01   0.153E-05 -.161E-05 0.183E-05
   0.591E+01 0.668E+01 -.154E+01   -.519E+01 -.634E+01 0.166E+01   -.158E+01 -.115E+01 0.666E+00   0.249E-05 -.117E-05 0.363E-05
   -.220E+01 0.113E+01 -.843E+01   0.168E+01 -.119E+01 0.653E+01   0.995E+00 -.623E+00 0.191E+01   -.100E-05 0.217E-05 0.164E-05
   -.363E+00 -.291E+01 -.282E+01   -.197E+00 0.283E+01 0.306E+01   0.517E+00 0.677E+00 -.563E-01   0.183E-05 0.148E-05 -.262E-05
   0.834E+01 -.491E+01 -.364E+01   -.850E+01 0.456E+01 0.308E+01   -.140E+01 0.181E+01 0.355E+00   0.255E-06 0.282E-06 -.521E-06
   0.107E+02 0.368E+01 0.121E+02   -.101E+02 -.334E+01 -.112E+02   -.332E+01 0.140E+01 -.305E+01   -.318E-05 -.197E-05 -.168E-05
   -.238E+01 0.262E+01 0.445E+01   0.220E+01 -.297E+01 -.339E+01   0.131E+00 0.796E+00 0.470E-01   -.265E-05 -.617E-06 -.653E-07
   0.737E+01 0.819E+01 -.552E+01   -.666E+01 -.704E+01 0.510E+01   -.292E+01 -.263E+01 0.214E+01   -.202E-05 -.259E-05 -.198E-05
   0.625E+01 -.770E+01 -.207E+01   -.535E+01 0.648E+01 0.171E+01   -.192E+01 0.131E+01 0.509E+00   -.472E-05 0.146E-05 0.135E-05
   -.642E+01 -.181E+00 0.193E+00   0.653E+01 -.131E+00 -.349E+00   0.948E+00 -.120E+00 -.982E-01   -.192E-05 0.238E-05 0.566E-07
   0.521E+01 0.354E+00 0.615E+01   -.461E+01 -.473E+00 -.520E+01   -.210E+01 0.398E+00 -.173E+01   -.231E-06 -.265E-05 0.559E-06
   -.126E+02 -.980E+00 -.633E+01   0.113E+02 0.136E+01 0.612E+01   0.349E+01 -.752E+00 0.992E+00   0.701E-06 -.482E-05 0.209E-05
   0.291E+01 0.864E+01 0.114E+01   -.261E+01 -.796E+01 -.941E+00   -.592E+00 -.183E+01 -.914E+00   0.100E-05 -.232E-05 0.255E-05
   0.108E+01 -.584E+01 -.648E+01   -.129E+01 0.477E+01 0.584E+01   0.512E+00 0.243E+01 0.213E+01   0.126E-06 0.110E-05 0.218E-05
   -.385E+01 -.964E+01 0.129E+00   0.381E+01 0.838E+01 -.360E+00   0.975E+00 0.338E+01 -.135E+00   -.488E-06 -.149E-05 0.165E-05
   0.436E+01 -.118E+02 -.455E+01   -.393E+01 0.108E+02 0.382E+01   -.770E+00 0.259E+01 0.135E+01   0.225E-05 -.325E-05 0.471E-05
   -.293E+01 0.475E+01 -.590E+00   0.247E+01 -.447E+01 0.718E+00   0.839E+00 -.594E+00 0.687E+00   0.306E-05 -.356E-05 0.226E-05
   -.592E+00 0.670E+01 -.509E+01   0.751E+00 -.679E+01 0.457E+01   -.905E+00 -.182E+01 0.216E+01   -.114E-05 -.160E-05 0.156E-06
   0.415E+01 0.474E+01 0.793E+01   -.413E+01 -.365E+01 -.687E+01   -.653E+00 -.147E+01 -.359E+01   -.268E-05 0.258E-05 0.338E-05
   0.102E+02 0.153E+01 0.605E+01   -.953E+01 -.642E+00 -.526E+01   -.168E+01 -.733E+00 -.197E+01   -.440E-05 -.923E-06 -.888E-06
   0.671E+01 -.329E+00 -.547E+01   -.654E+01 0.782E+00 0.515E+01   -.119E+01 -.387E+00 0.168E+01   -.328E-05 -.186E-06 -.321E-05
   -.639E+01 0.790E+01 -.731E+00   0.484E+01 -.743E+01 -.125E+00   0.131E+01 -.197E+01 0.387E+00   0.393E-06 0.164E-05 0.664E-06
   -.873E+01 -.107E+02 -.817E+01   0.761E+01 0.969E+01 0.711E+01   0.191E+01 0.373E+01 0.374E+01   -.318E-06 -.408E-06 -.212E-05
   -.148E+02 -.553E+01 -.220E+01   0.138E+02 0.472E+01 0.201E+01   0.276E+01 0.119E+01 0.145E+01   0.201E-05 0.196E-05 -.420E-05
   -.914E+01 -.643E+01 0.149E+01   0.858E+01 0.568E+01 -.166E+01   0.177E+01 0.103E+01 -.410E+00   0.183E-05 0.487E-05 -.162E-05
   0.102E+02 -.350E+01 0.422E+01   -.920E+01 0.344E+01 -.400E+01   -.134E+01 0.120E+01 -.193E+00   -.104E-05 0.183E-05 -.130E-05
   0.178E+01 -.192E+01 0.377E+01   -.118E+01 0.257E+01 -.275E+01   -.141E+01 -.370E+00 -.221E+01   -.701E-06 -.255E-05 -.117E-05
   0.292E+01 -.763E+01 0.230E+01   -.229E+01 0.709E+01 -.222E+01   -.109E+01 0.405E+00 0.467E-01   0.209E-05 0.296E-05 0.850E-06
   0.449E+01 0.683E+01 0.118E+02   -.416E+01 -.620E+01 -.111E+02   0.176E+00 -.118E+01 -.171E+01   0.151E-05 0.374E-06 -.711E-06
   -.411E+01 -.248E+01 0.101E+00   0.357E+01 0.244E+01 0.790E-01   0.199E+01 0.885E+00 -.504E+00   -.550E-06 -.692E-06 0.122E-05
   -.416E+01 -.895E-01 0.429E+01   0.380E+01 0.112E+01 -.407E+01   0.120E+01 -.142E+01 -.255E+01   0.269E-05 -.170E-05 0.353E-05
   0.120E+01 0.364E+01 0.360E+01   -.102E+01 -.342E+01 -.335E+01   -.628E-01 -.110E+01 -.967E+00   -.547E-06 -.212E-05 0.295E-05
   -.211E+01 0.479E+01 -.511E+00   0.256E+01 -.427E+01 -.679E-01   -.955E+00 -.399E+00 0.765E+00   0.184E-05 -.194E-05 0.179E-05
   0.474E+00 0.652E+00 0.812E+01   -.280E+00 -.900E-01 -.668E+01   -.163E+01 0.164E+00 -.326E+01   0.198E-05 -.244E-05 -.859E-07
   -.239E+01 -.164E+01 0.926E+01   0.193E+01 0.251E+01 -.904E+01   0.102E+01 -.313E+00 -.307E+00   -.616E-06 -.857E-07 -.250E-05
   0.390E+01 -.123E+02 0.733E+01   -.399E+01 0.111E+02 -.704E+01   -.171E+01 0.335E+01 -.161E+01   -.665E-06 0.262E-05 -.300E-05
   -.702E+01 0.721E+00 -.166E+02   0.668E+01 -.222E+00 0.144E+02   -.119E+00 -.737E+00 0.467E+01   -.128E-05 0.329E-05 -.289E-05
   -.577E+01 0.193E+00 0.734E+01   0.609E+01 0.406E+00 -.741E+01   0.321E+00 0.236E+00 -.217E+01   0.209E-06 0.204E-05 0.322E-07
 -----------------------------------------------------------------------------------------------
   -.693E+00 -.195E+00 0.229E-02   -.693E-13 0.187E-12 0.338E-13   0.693E+00 0.195E+00 -.231E-02   -.199E-05 -.209E-05 0.240E-05
 
 
 POSITION                                       TOTAL-FORCE (eV/Angst)
 -----------------------------------------------------------------------------------
     21.80626     10.93641     10.98999         0.670817     -0.347323     -1.572908
     10.94812      2.70030     13.51425        -0.118032      0.783100      1.181320
     10.99716      5.42530     16.20952         0.658791     -0.527566      4.167264
     11.02105     19.08320      8.24804        -1.010701      0.622117     -0.061993
     13.47725     10.95072      2.73281         0.762778      0.573714     -0.517000
      2.86314      2.91254      5.42434        -0.748590     -0.915610      0.186466
     13.65474     16.39772      8.45966        -1.117243     -0.206388     -2.567489
     13.59285     19.20524     11.02674         0.696711     -1.721002      0.056879
     16.27290     10.92943      5.50830         1.023825     -0.201379      0.762603
     16.44730     13.60951      8.18370        -1.209456     -0.127063     -0.876868
     16.37845     16.31293     10.94166         0.960972      0.761837     -0.363776
     16.28626     19.30941     13.73886         0.971302     -1.214713      0.693420
      8.34149      0.07396      8.27221        -1.417325     -1.274180     -0.222892
      8.17074      2.79275     10.87069         0.084526     -0.699096      1.513129
     18.93464     16.35071     13.59750         2.030291      1.486266      0.133805
     19.05558     19.12296     16.47908         0.571287     -1.572661      0.136499
      2.90145     13.59208     10.81976        -2.497648      2.196852      0.379476
      2.74448      5.37165      2.69177         0.297329      1.827424     -0.129835
      2.81463      8.21390      5.58356        -0.068764      0.496218     -0.059123
     13.70058     11.09055     19.20122         1.214516     -2.403385      0.647853
      5.46107      2.73928      2.91925        -0.952607     -0.388805     -2.727616
      5.61843      5.37005      5.40709        -1.683612      1.123924      0.567988
      5.61085      8.01263      8.34380        -0.778772      1.373456     -1.048471
      5.27049     10.92941     10.83810         2.174711     -0.828835      1.308358
      8.29549     13.66677     16.33619        -0.355927      0.879504      1.002191
      8.30960      5.54830      8.32170        -1.299386     -0.119790     -0.996167
      8.24643      8.06432     11.01311        -0.720293      2.259241      0.759340
      8.16059     10.95223     13.69578        -0.453717      0.108411     -0.787217
     10.94354     13.62003     19.04627         0.318668     -0.112313      0.733549
     10.79500      5.51023     10.90325         1.727088     -1.181508      1.167784
     11.00319      8.27699     13.76679         0.136289     -1.004117     -0.845783
     10.86408     10.98833     16.23613         1.251709     -1.544017      1.798437
     16.38217      5.50322     10.92335        -0.006680     -1.058181      0.457144
      5.42970      8.17497      2.76300         1.098014      0.044368      0.159817
      5.53620     10.95105      5.51779        -0.439949     -0.542277     -0.831838
      5.56625     13.59164      8.22203         0.056588      1.390941     -0.631051
      7.98553      5.53501      2.77149         2.414892     -0.009774     -0.982385
      8.19991      8.22930      5.57722         0.536001      0.108400     -2.020351
      8.22206     10.96790      8.00429         0.311047      0.125572      2.544212
      8.21942     13.66942     10.94080        -1.020106      0.291120     -0.520387
     10.83585      5.40768      5.45355         1.043674     -0.187974     -1.034592
     10.99674      8.17514      8.18143        -1.359700     -0.382440     -0.581988
     10.93336     10.86967     11.03824         1.120280      0.609986     -2.004391
     10.99046     13.61552     13.76219         0.724659      1.596395     -1.791865
     13.64651     16.35242     19.02564         0.526577      0.536304      1.956776
     13.67592      8.19908     10.80393        -0.171205      0.108497      2.164643
     13.72669     10.88900     13.69920        -0.099893      0.498333     -0.275249
     13.64214     13.72055     16.44346         0.764855     -0.008544     -0.703705
     19.11728      8.41979     11.15950        -1.903227     -2.622743     -3.289577
     18.99158     10.88133     13.75756         2.790512     -0.426128     -1.684597
      8.33790     13.54345      5.49464        -0.229757      1.060188     -1.409283
     19.14051     16.45541     19.04309         0.163620     -0.952256      1.329899
     10.91186     19.01780     13.69225         0.290207      0.578240      1.304059
     11.06795     10.89113      5.48270        -1.072782      0.600713     -0.620267
     10.96356     13.55288      8.29233         0.076259      0.982364     -0.509764
     10.96779     16.51281     10.89829        -1.753346     -1.266971      0.424581
     13.73181     19.05145     16.39285        -0.391470     -0.505411      1.626717
     13.64527     10.94400      8.08512        -0.301862      1.158687      1.963754
     13.59682     13.74408     10.97899         0.322725     -0.616551      0.081578
     13.67747     16.43067     13.51084         1.176563      0.605344      0.567285
     16.43929     19.13521     19.12588        -0.364054      0.034882      1.684198
     16.35860     10.85942     11.03855         0.196113      0.736480     -0.395125
     16.37685     13.78029     13.74246         0.717271     -1.560070     -1.157529
     16.34644     16.43694     16.34760         1.848034     -1.472555      0.769266
      1.32378      1.51671      1.09010         0.397235     -1.412984      1.566914
      1.44523      4.17435      4.11742        -0.249159     -1.878694     -1.488695
      1.43005      6.97988      6.82024        -0.619686     -2.670213      0.569566
      1.50539      9.50408      9.55255        -1.440665      1.713200     -0.108509
      4.05613      1.39277      4.10525        -0.544125     -0.795876      0.096860
      4.02426      4.23363      6.86407         1.601247     -0.140976      0.890845
      4.05996      6.77037      9.60910         0.851401      1.103031      1.545973
      4.04965      9.53304     12.34903        -0.998621      1.719454     -0.393770
      6.98588      1.34931      6.87081        -1.085173     -0.136806     -0.919477
      6.85342      3.96499      9.42920        -0.049441      1.992657      0.966749
      6.69782      6.97703     12.44008        -0.033004     -1.038378     -1.149675
      6.80962      9.53115     15.12456        -0.125107      1.139272     -0.177268
      9.49726      1.41936      9.62784         1.582201      0.211228     -0.124299
      9.50718      4.14602     12.33082        -0.289733     -0.200726     -0.721826
      9.74919      6.65839     15.02323        -3.472449      2.597213     -1.720353
      9.48869      9.49109     17.86018         1.222250      0.747586     -0.678055
      4.03373      4.03276      1.28731         1.463721      0.334366      1.328571
      4.10621      6.99670      4.21819         0.703680     -2.732595     -0.975258
      4.09088      9.56634      6.86051         1.457407      0.602698      1.526252
      4.16884     12.38454      9.57400         0.359588     -1.025329     -1.838735
      6.84610      4.05523      4.00355         0.796304     -0.209818      1.533655
      6.87722      6.85527      6.69968        -0.316212     -1.364003      2.089823
      6.94791      9.62509      9.56125        -0.448698     -0.629509      0.235423
      6.71074     12.41920     12.24896         0.148612     -1.241206      0.575885
      9.61991      4.24672      6.92250        -0.813604     -2.014467     -0.289078
      9.59222      6.87799      9.68293         0.175390      0.697890     -1.722418
      9.64771      9.63875     12.32485        -1.538206     -1.659035      1.348967
      9.58574     12.37072     14.91828        -0.864192     -0.818290      0.781408
     12.23440      4.14038      9.52699         0.476509     -0.675243      0.012361
     12.28525      6.78739     12.25737        -0.042330      0.593955      0.177676
     12.50263      9.45695     15.09651        -1.561389      1.465876     -0.209348
     12.44883     12.17785     17.81914        -2.721749      1.738682     -2.217885
      6.78596      6.85645      1.28003        -0.046759      0.445291      1.111875
      6.93941      9.55838      4.07991        -2.212793     -1.482066      1.726483
      6.91935     12.32047      6.77219        -1.014807      0.085031      0.153569
      6.79475     15.10094      9.56975         1.049117     -0.432763     -0.254632
      9.57226      6.81464      4.20784        -1.501306      0.278276     -0.783239
      9.50219      9.61816      6.75113         2.197597     -0.375302      0.780535
      9.57754     12.29414      9.65926        -0.294908     -1.149691     -0.719772
      9.59398     14.94377     12.22194         0.309662      1.363558      1.483347
     12.18143      6.60587      6.81417         0.934329      2.128299     -0.366451
     12.34408      9.48343      9.45580        -0.336438      1.600790      0.621692
     12.29743     12.28945     12.29040         0.380177     -0.313740      0.814950
     12.35459     15.23488     14.89512        -0.746228     -1.921246      1.641788
     15.10491      6.88524      9.70098        -0.634791     -0.380982     -2.534289
     15.06775      9.50040     12.40613        -1.038631      0.156381     -1.187638
     15.14346     12.30105     14.96795        -1.018672      0.065873      1.357815
     15.11156     15.10164     17.79929        -0.237482     -1.496223     -0.469343
      9.70941      9.37559      1.29299         0.795547      2.718761      2.681035
      9.52470     12.19176      3.92230         1.721698      0.379117      1.256808
      9.54991     14.97216      6.88417         1.220633      0.279543     -0.576607
      9.53011     17.75372      9.59214        -0.386174      1.140943      0.022053
     12.38478      9.45542      4.20752        -0.805477      0.272407     -1.192062
     12.41495     12.41249      6.74302        -0.463454     -0.134605      0.129078
     12.19483     15.05794      9.69612         0.507693     -0.544998     -1.017084
     12.17537     17.72636     12.33062         1.452868      0.850133     -0.323815
     14.95984      9.51325      7.02957         0.840469     -0.382306     -2.329706
     15.00790     12.36991      9.67581         0.122546     -0.874490     -0.714640
     15.07296     14.99444     12.28000        -0.506857      0.112987      0.185753
     15.11234     17.74885     15.08579        -1.435990      0.725498     -1.818757
     17.74466      9.59769      9.58931         0.564783      0.564391     -0.082924
     17.88178     12.16463     12.36161        -1.806668      2.152781     -1.326268
     17.84168     14.99401     14.95752        -0.456110     -0.236649      2.447986
     17.62739     17.66953     17.90794         0.641030      0.834788     -2.239026
 -----------------------------------------------------------------------------------
    total drift:                               -0.000006     -0.000006     -0.000013


--------------------------------------------------------------------------------------------------------



  FREE ENERGIE OF THE ION-ELECTRON SYSTEM (eV)
  ---------------------------------------------------
  free  energy   TOTEN  =      -678.48284756 eV

  energy  without entropy=     -678.48284756  energy(sigma->0) =     -678.48284756
 


--------------------------------------------------------------------------------------------------------


    POTLOK:  cpu time    0.9950: real time    0.9952


--------------------------------------------------------------------------------------------------------


     LOOP+:  cpu time 1675.1691: real time 1675.6199
    4ORBIT:  cpu time    0.0000: real time    0.0000

 total amount of memory used by VASP MPI-rank0   221701. kBytes
=======================================================================

   base      :      30000. kBytes
   nonl-proj :      10690. kBytes
   fftplans  :      66746. kBytes
   grid      :      26864. kBytes
   one-center:         24. kBytes
   wavefun   :      87377. kBytes
 
  
  
 General timing and accounting informations for this job:
 ========================================================
  
                  Total CPU time used (sec):     1699.124
                            User time (sec):     1697.808
                          System time (sec):        1.316
                         Elapsed time (sec):     1700.617
  
                   Maximum memory used (kb):      338696.
                   Average memory used (kb):           0.
  
                          Minor page faults:       141213
                          Major page faults:            0
                 Voluntary context switches:         1297
