<?xml version="1.0" encoding="ISO-8859-1"?>
<modeling>
 <generator>
  <i name="program" type="string">vasp </i>
  <i name="version" type="string">5.4.4.18Apr17-6-g9f103f2a35  </i>
  <i name="subversion" type="string">(build Nov 08 2017 09:05:29) complex            parallel </i>
  <i name="platform" type="string">Intel_17.33 </i>
  <i name="date" type="string">2020 07 19 </i>
  <i name="time" type="string">00:00:39 </i>
 </generator>
 <incar>
  <i type="string" name="SYSTEM">potpaw_PBE@./ARUN.APL1ZEROSTATE</i>
  <i type="string" name="PREC">accurate</i>
  <i type="string" name="ALGO">Normal</i>
  <i type="int" name="NSIM">     4</i>
  <i type="logical" name="ADDGRID"> T  </i>
  <i type="int" name="NELM">   120</i>
  <i type="int" name="NELMIN">     4</i>
  <i name="EDIFF">      0.00000001</i>
  <i type="int" name="NSW">     0</i>
  <i type="int" name="ISYM">     2</i>
  <i name="ENMAX">    500.00000000</i>
  <i type="logical" name="LREAL"> F  </i>
  <i type="logical" name="LPLANE"> T  </i>
  <i type="int" name="ISMEAR">     0</i>
  <i name="SIGMA">      0.01000000</i>
  <i type="logical" name="LWAVE"> F  </i>
  <i type="logical" name="LCHARG"> F  </i>
  <i type="logical" name="LELF"> F  </i>
  <i type="logical" name="LAECHG"> F  </i>
  <v type="int" name="KPOINT_BSE">    -1     0     0     0</v>
  <i type="int" name="NELM">   120</i>
 </incar>
 <structure name="primitive_cell" >
  <crystal>
   <varray name="basis" >
    <v>       0.00000000      10.93733369      10.93733369 </v>
    <v>      10.93733369       0.00000000      10.93733369 </v>
    <v>      10.93733369      10.93733369       0.00000000 </v>
   </varray>
   <i name="volume">   2616.76295363 </i>
   <varray name="rec_basis" >
    <v>      -0.04571498       0.04571498       0.04571498 </v>
    <v>       0.04571498      -0.04571498       0.04571498 </v>
    <v>       0.04571498       0.04571498      -0.04571498 </v>
   </varray>
  </crystal>
  <varray name="positions" >
   <v>       0.00549225      -0.00067744      -0.00557705 </v>
   <v>       0.05865335       0.04101410       0.08001919 </v>
   <v>       0.04384825       0.07436941      -0.18663853 </v>
   <v>       0.07085552      -0.19058243       0.05891651 </v>
   <v>      -0.19764555       0.07103493       0.06660314 </v>
   <v>       0.02112086      -0.00080801      -0.25130017 </v>
   <v>       0.24075440      -0.00514727       0.00613374 </v>
   <v>       0.00021429      -0.24388643       0.00654828 </v>
   <v>       0.00942982       0.24043109      -0.00820634 </v>
   <v>      -0.23934240       0.24751639      -0.00472309 </v>
   <v>       0.25109858      -0.25719147       0.00424226 </v>
   <v>      -0.25438021       0.00849832      -0.00084369 </v>
   <v>      -0.00349602       0.25537755      -0.25770697 </v>
   <v>      -0.24153424      -0.00289932       0.25554325 </v>
   <v>      -0.00694432      -0.25165552       0.25222311 </v>
   <v>       0.25816642      -0.00031359      -0.26328688 </v>
   <v>      -0.01665271       0.00590299       0.25937635 </v>
   <v>       0.30123265       0.05738336      -0.18654049 </v>
   <v>       0.30375187      -0.17353016      -0.19153979 </v>
   <v>       0.06593642      -0.18918640      -0.18841987 </v>
   <v>      -0.18341224      -0.18363194       0.05118261 </v>
   <v>      -0.18254239       0.30993049      -0.19673705 </v>
   <v>      -0.18555371       0.06256237      -0.19122462 </v>
   <v>      -0.18479100       0.31386199       0.05639693 </v>
   <v>       0.31861767      -0.19121160       0.06045297 </v>
   <v>      -0.19778613      -0.17301052       0.31120692 </v>
   <v>       0.06550784      -0.19445582       0.31304694 </v>
   <v>       0.05843099       0.32626252      -0.19392211 </v>
   <v>      -0.18674434       0.06209448       0.31906277 </v>
   <v>      -0.24583907       0.23676649       0.24511416 </v>
   <v>      -0.24829447       0.24472457      -0.24193963 </v>
   <v>       0.24255846       0.25872479      -0.24678242 </v>
   <v>       0.25323226      -0.24397818      -0.26035561 </v>
   <v>       0.25684894      -0.25996492       0.24695103 </v>
   <v>      -0.25208576      -0.26344540       0.25674803 </v>
   <v>       0.30623889       0.06678669      -0.43231676 </v>
   <v>       0.05642354      -0.42822521       0.06694366 </v>
   <v>       0.29901095      -0.43689993       0.06350812 </v>
   <v>       0.05880520       0.05889375       0.30990983 </v>
   <v>       0.06173944       0.05529411      -0.43485430 </v>
   <v>      -0.43450257       0.05807653       0.07267317 </v>
   <v>       0.06591612       0.30942698       0.06142494 </v>
   <v>       0.06629684       0.31842538      -0.44323437 </v>
   <v>       0.07082664      -0.43790263       0.31745092 </v>
   <v>      -0.43606113       0.06331765       0.31071145 </v>
   <v>       0.31298931       0.06346581       0.06867168 </v>
   <v>      -0.43681390       0.31537331       0.05582880 </v>
   <v>       0.48915930       0.01321579      -0.25088177 </v>
   <v>      -0.23372518       0.48986843      -0.00081603 </v>
   <v>       0.24438806      -0.49615284      -0.00007117 </v>
   <v>       0.24315504       0.00295332       0.24797467 </v>
   <v>      -0.25648985       0.49178543      -0.24125501 </v>
   <v>      -0.48787170       0.26133781      -0.01288535 </v>
   <v>      -0.00241653      -0.24890454      -0.24805215 </v>
   <v>      -0.49651481      -0.26026588      -0.00854084 </v>
   <v>       0.25419354      -0.49334105       0.25308728 </v>
   <v>       0.25181030       0.00081051       0.49562699 </v>
   <v>      -0.25219457      -0.00669598      -0.24328791 </v>
   <v>      -0.24357871      -0.24973931      -0.00800946 </v>
   <v>       0.01467324       0.23872370       0.49139262 </v>
   <v>      -0.49791977       0.00842462       0.24891678 </v>
   <v>       0.25630619       0.25361859       0.49609849 </v>
   <v>      -0.49046546      -0.25306175      -0.24960306 </v>
   <v>      -0.00764329      -0.49873930       0.25719526 </v>
   <v>      -0.00741372      -0.49378828      -0.25071308 </v>
   <v>      -0.00654237      -0.25394399      -0.49835638 </v>
   <v>      -0.24470305      -0.25187229       0.49917279 </v>
   <v>       0.25023188       0.24571490       0.01606191 </v>
   <v>       0.00902715       0.25788016       0.24142537 </v>
   <v>      -0.25724986       0.00898951       0.49993269 </v>
   <v>       0.49123400       0.27163918       0.24136030 </v>
   <v>      -0.44639807      -0.18603604      -0.18269991 </v>
   <v>       0.31392968       0.30332629      -0.43454159 </v>
   <v>       0.30814423       0.30836973      -0.17327100 </v>
   <v>       0.31263450      -0.17834266      -0.44401323 </v>
   <v>       0.30901107      -0.18831980       0.31155977 </v>
   <v>      -0.17907663       0.29899901       0.31456398 </v>
   <v>      -0.42585505       0.31237048      -0.19739800 </v>
   <v>       0.32173373      -0.43707507      -0.19075353 </v>
   <v>       0.31857395      -0.43326447       0.31028077 </v>
   <v>      -0.19670854       0.31416002      -0.43698278 </v>
   <v>      -0.17941204      -0.18326530      -0.20506326 </v>
   <v>      -0.44909640      -0.17063030       0.31374487 </v>
   <v>      -0.18982543      -0.43088144      -0.18739779 </v>
   <v>      -0.18675908      -0.18585207      -0.43249891 </v>
   <v>      -0.19069591      -0.44532589       0.32175004 </v>
   <v>      -0.44052017       0.31470526       0.32054186 </v>
   <v>       0.48630025      -0.00426487       0.00973494 </v>
   <v>       0.49978522       0.00470595      -0.49853124 </v>
   <v>       0.49720266      -0.49680680      -0.00571213 </v>
   <v>       0.00202986      -0.00330855      -0.49887056 </v>
   <v>       0.00753527       0.49608863      -0.00825835 </v>
   <v>       0.00116045       0.49745779       0.49326379 </v>
   <v>      -0.18739742      -0.45074188      -0.41967813 </v>
   <v>      -0.45450904      -0.17191763       0.06328524 </v>
   <v>      -0.44568095      -0.18579957      -0.42963461 </v>
   <v>      -0.44349780       0.06267855      -0.43004240 </v>
   <v>       0.05662274      -0.43360385      -0.45264861 </v>
   <v>       0.06771833      -0.18075801      -0.43820098 </v>
   <v>      -0.44220919      -0.43503052      -0.18684944 </v>
   <v>      -0.41853844      -0.44406588       0.05644770 </v>
   <v>      -0.18280190       0.05776363      -0.43651993 </v>
   <v>       0.07236626      -0.42965263      -0.20257020 </v>
   <v>      -0.43741217       0.06683179      -0.19368409 </v>
   <v>      -0.18416592      -0.43299594       0.05559896 </v>
   <v>       0.49144225       0.24038952      -0.48864729 </v>
   <v>       0.49513902      -0.48821059       0.24218124 </v>
   <v>       0.24612263       0.49309957      -0.24551312 </v>
   <v>       0.49653366      -0.24401639       0.49904720 </v>
   <v>      -0.49136366       0.49517238      -0.25201589 </v>
   <v>       0.24352793      -0.25572458      -0.49388631 </v>
   <v>      -0.49527919      -0.24602341       0.25204436 </v>
   <v>       0.24502441      -0.49699667      -0.49757151 </v>
   <v>      -0.25085728      -0.49086655       0.49572388 </v>
   <v>      -0.25069499       0.25101191      -0.49951077 </v>
   <v>       0.49745430       0.26071294      -0.25831527 </v>
   <v>      -0.24627776       0.49848242       0.24763980 </v>
   <v>       0.30527225       0.30727954       0.32150464 </v>
   <v>       0.32497335       0.06069542       0.31473475 </v>
   <v>       0.32336198       0.30421982       0.06371844 </v>
   <v>       0.05543798       0.31060651       0.31533180 </v>
   <v>       0.23582976       0.25853997       0.25515329 </v>
   <v>      -0.24853285      -0.25680704      -0.24863881 </v>
   <v>       0.30149672      -0.43695348      -0.43442739 </v>
   <v>      -0.43850952      -0.43778010      -0.43786620 </v>
   <v>      -0.43423769       0.31738317      -0.44170910 </v>
   <v>      -0.43697897      -0.43616013       0.31824982 </v>
   <v>      -0.49829864      -0.49247589       0.49211220 </v>
  </varray>
 </structure>
 <varray name="primitive_index" >
  <v type="int" >        1 </v>
  <v type="int" >       65 </v>
  <v type="int" >      113 </v>
  <v type="int" >       77 </v>
  <v type="int" >       68 </v>
  <v type="int" >       49 </v>
  <v type="int" >        2 </v>
  <v type="int" >       13 </v>
  <v type="int" >        5 </v>
  <v type="int" >        8 </v>
  <v type="int" >       14 </v>
  <v type="int" >        4 </v>
  <v type="int" >       53 </v>
  <v type="int" >       20 </v>
  <v type="int" >       29 </v>
  <v type="int" >       50 </v>
  <v type="int" >       17 </v>
  <v type="int" >      114 </v>
  <v type="int" >      126 </v>
  <v type="int" >      125 </v>
  <v type="int" >       80 </v>
  <v type="int" >      120 </v>
  <v type="int" >      116 </v>
  <v type="int" >       72 </v>
  <v type="int" >       78 </v>
  <v type="int" >       96 </v>
  <v type="int" >       93 </v>
  <v type="int" >      117 </v>
  <v type="int" >       84 </v>
  <v type="int" >       24 </v>
  <v type="int" >       56 </v>
  <v type="int" >       54 </v>
  <v type="int" >       62 </v>
  <v type="int" >       30 </v>
  <v type="int" >       32 </v>
  <v type="int" >       98 </v>
  <v type="int" >       73 </v>
  <v type="int" >       74 </v>
  <v type="int" >       81 </v>
  <v type="int" >       97 </v>
  <v type="int" >       67 </v>
  <v type="int" >       69 </v>
  <v type="int" >      101 </v>
  <v type="int" >       89 </v>
  <v type="int" >       83 </v>
  <v type="int" >       66 </v>
  <v type="int" >       71 </v>
  <v type="int" >       51 </v>
  <v type="int" >       12 </v>
  <v type="int" >       10 </v>
  <v type="int" >       18 </v>
  <v type="int" >       60 </v>
  <v type="int" >        7 </v>
  <v type="int" >       61 </v>
  <v type="int" >       15 </v>
  <v type="int" >       26 </v>
  <v type="int" >       34 </v>
  <v type="int" >       52 </v>
  <v type="int" >       16 </v>
  <v type="int" >       37 </v>
  <v type="int" >       19 </v>
  <v type="int" >       38 </v>
  <v type="int" >       63 </v>
  <v type="int" >       25 </v>
  <v type="int" >       57 </v>
  <v type="int" >       45 </v>
  <v type="int" >       48 </v>
  <v type="int" >        6 </v>
  <v type="int" >       21 </v>
  <v type="int" >       36 </v>
  <v type="int" >       23 </v>
  <v type="int" >      127 </v>
  <v type="int" >      102 </v>
  <v type="int" >      118 </v>
  <v type="int" >      110 </v>
  <v type="int" >       94 </v>
  <v type="int" >       88 </v>
  <v type="int" >      119 </v>
  <v type="int" >      122 </v>
  <v type="int" >       90 </v>
  <v type="int" >      104 </v>
  <v type="int" >      128 </v>
  <v type="int" >       95 </v>
  <v type="int" >      124 </v>
  <v type="int" >      112 </v>
  <v type="int" >       92 </v>
  <v type="int" >       87 </v>
  <v type="int" >        3 </v>
  <v type="int" >       35 </v>
  <v type="int" >       11 </v>
  <v type="int" >       33 </v>
  <v type="int" >        9 </v>
  <v type="int" >       41 </v>
  <v type="int" >      108 </v>
  <v type="int" >       79 </v>
  <v type="int" >      111 </v>
  <v type="int" >       99 </v>
  <v type="int" >      105 </v>
  <v type="int" >      109 </v>
  <v type="int" >      123 </v>
  <v type="int" >       75 </v>
  <v type="int" >      100 </v>
  <v type="int" >      121 </v>
  <v type="int" >      115 </v>
  <v type="int" >       76 </v>
  <v type="int" >       39 </v>
  <v type="int" >       27 </v>
  <v type="int" >       58 </v>
  <v type="int" >       47 </v>
  <v type="int" >       59 </v>
  <v type="int" >       46 </v>
  <v type="int" >       31 </v>
  <v type="int" >       42 </v>
  <v type="int" >       44 </v>
  <v type="int" >       40 </v>
  <v type="int" >       55 </v>
  <v type="int" >       28 </v>
  <v type="int" >       86 </v>
  <v type="int" >       82 </v>
  <v type="int" >       70 </v>
  <v type="int" >       85 </v>
  <v type="int" >       22 </v>
  <v type="int" >       64 </v>
  <v type="int" >      106 </v>
  <v type="int" >      107 </v>
  <v type="int" >      103 </v>
  <v type="int" >       91 </v>
  <v type="int" >       43 </v>
 </varray>
 <kpoints>
  <generation param="Gamma">
   <v type="int" name="divisions">       2        2        2 </v>
   <v name="usershift">      0.00000000       0.00000000       0.00000000 </v>
   <v name="genvec1">      0.50000000       0.00000000       0.00000000 </v>
   <v name="genvec2">      0.00000000       0.50000000       0.00000000 </v>
   <v name="genvec3">      0.00000000       0.00000000       0.50000000 </v>
   <v name="shift">      0.00000000       0.00000000       0.00000000 </v>
  </generation>
  <varray name="kpointlist" >
   <v>       0.00000000       0.00000000       0.00000000 </v>
   <v>       0.50000000       0.00000000       0.00000000 </v>
   <v>       0.00000000       0.50000000       0.00000000 </v>
   <v>       0.50000000       0.50000000       0.00000000 </v>
   <v>       0.00000000       0.00000000       0.50000000 </v>
   <v>       0.50000000       0.00000000       0.50000000 </v>
   <v>       0.00000000       0.50000000       0.50000000 </v>
   <v>       0.50000000       0.50000000       0.50000000 </v>
  </varray>
  <varray name="weights" >
   <v>       0.12500000 </v>
   <v>       0.12500000 </v>
   <v>       0.12500000 </v>
   <v>       0.12500000 </v>
   <v>       0.12500000 </v>
   <v>       0.12500000 </v>
   <v>       0.12500000 </v>
   <v>       0.12500000 </v>
  </varray>
 </kpoints>
 <parameters>
  <separator name="general" >
   <i type="string" name="SYSTEM">potpaw_PBE@./ARUN.APL1ZEROSTATE</i>
   <i type="logical" name="LCOMPAT"> F  </i>
  </separator>
  <separator name="electronic" >
   <i type="string" name="PREC">accura</i>
   <i name="ENMAX">    500.00000000</i>
   <i name="ENAUG">    322.06900000</i>
   <i name="EDIFF">      0.00000001</i>
   <i type="int" name="IALGO">    38</i>
   <i type="int" name="IWAVPR">    10</i>
   <i type="int" name="NBANDS">   322</i>
   <i name="NELECT">    512.00000000</i>
   <i type="int" name="TURBO">     0</i>
   <i type="int" name="IRESTART">     0</i>
   <i type="int" name="NREBOOT">     0</i>
   <i type="int" name="NMIN">     0</i>
   <i name="EREF">      0.00000000</i>
   <separator name="electronic smearing" >
    <i type="int" name="ISMEAR">     0</i>
    <i name="SIGMA">      0.01000000</i>
    <i name="KSPACING">      0.50000000</i>
    <i type="logical" name="KGAMMA"> T  </i>
   </separator>
   <separator name="electronic projectors" >
    <i type="logical" name="LREAL"> F  </i>
    <v name="ROPT">      0.00000000</v>
    <i type="int" name="LMAXPAW">  -100</i>
    <i type="int" name="LMAXMIX">     2</i>
    <i type="logical" name="NLSPLINE"> F  </i>
   </separator>
   <separator name="electronic startup" >
    <i type="int" name="ISTART">     0</i>
    <i type="int" name="ICHARG">     2</i>
    <i type="int" name="INIWAV">     1</i>
   </separator>
   <separator name="electronic spin" >
    <i type="int" name="ISPIN">     1</i>
    <i type="logical" name="LNONCOLLINEAR"> F  </i>
    <v name="MAGMOM">      1.00000000      1.00000000      1.00000000      1.00000000      1.00000000      1.00000000      1.00000000      1.00000000      1.00000000      1.00000000      1.00000000      1.00000000      1.00000000      1.00000000      1.00000000      1.00000000      1.00000000      1.00000000      1.00000000      1.00000000
      1.00000000      1.00000000      1.00000000      1.00000000      1.00000000      1.00000000      1.00000000      1.00000000      1.00000000      1.00000000      1.00000000      1.00000000      1.00000000      1.00000000      1.00000000      1.00000000      1.00000000      1.00000000      1.00000000      1.00000000
      1.00000000      1.00000000      1.00000000      1.00000000      1.00000000      1.00000000      1.00000000      1.00000000      1.00000000      1.00000000      1.00000000      1.00000000      1.00000000      1.00000000      1.00000000      1.00000000      1.00000000      1.00000000      1.00000000      1.00000000
      1.00000000      1.00000000      1.00000000      1.00000000      1.00000000      1.00000000      1.00000000      1.00000000      1.00000000      1.00000000      1.00000000      1.00000000      1.00000000      1.00000000      1.00000000      1.00000000      1.00000000      1.00000000      1.00000000      1.00000000
      1.00000000      1.00000000      1.00000000      1.00000000      1.00000000      1.00000000      1.00000000      1.00000000      1.00000000      1.00000000      1.00000000      1.00000000      1.00000000      1.00000000      1.00000000      1.00000000      1.00000000      1.00000000      1.00000000      1.00000000
      1.00000000      1.00000000      1.00000000      1.00000000      1.00000000      1.00000000      1.00000000      1.00000000      1.00000000      1.00000000      1.00000000      1.00000000      1.00000000      1.00000000      1.00000000      1.00000000      1.00000000      1.00000000      1.00000000      1.00000000
      1.00000000      1.00000000      1.00000000      1.00000000      1.00000000      1.00000000      1.00000000      1.00000000</v>
    <i name="NUPDOWN">     -1.00000000</i>
    <i type="logical" name="LSORBIT"> F  </i>
    <v name="SAXIS">      0.00000000      0.00000000      1.00000000</v>
    <i type="logical" name="LSPIRAL"> F  </i>
    <v name="QSPIRAL">      0.00000000      0.00000000      0.00000000</v>
    <i type="logical" name="LZEROZ"> F  </i>
   </separator>
   <separator name="electronic exchange-correlation" >
    <i type="logical" name="LASPH"> F  </i>
    <i type="logical" name="LMETAGGA"> F  </i>
   </separator>
   <separator name="electronic convergence" >
    <i type="int" name="NELM">   120</i>
    <i type="int" name="NELMDL">    -5</i>
    <i type="int" name="NELMIN">     4</i>
    <i name="ENINI">    500.00000000</i>
    <separator name="electronic convergence detail" >
     <i type="logical" name="LDIAG"> T  </i>
     <i type="logical" name="LSUBROT"> F  </i>
     <i name="WEIMIN">      0.00000000</i>
     <i name="EBREAK">      0.00000000</i>
     <i name="DEPER">      0.30000000</i>
     <i type="int" name="NRMM">     4</i>
     <i name="TIME">      0.40000000</i>
    </separator>
   </separator>
   <separator name="electronic mixer" >
    <i name="AMIX">      0.40000000</i>
    <i name="BMIX">      1.00000000</i>
    <i name="AMIN">      0.10000000</i>
    <i name="AMIX_MAG">      1.60000000</i>
    <i name="BMIX_MAG">      1.00000000</i>
    <separator name="electronic mixer details" >
     <i type="int" name="IMIX">     4</i>
     <i type="logical" name="MIXFIRST"> F  </i>
     <i type="int" name="MAXMIX">   -45</i>
     <i name="WC">    100.00000000</i>
     <i type="int" name="INIMIX">     1</i>
     <i type="int" name="MIXPRE">     1</i>
     <i type="int" name="MREMOVE">     5</i>
    </separator>
   </separator>
   <separator name="electronic dipolcorrection" >
    <i type="logical" name="LDIPOL"> F  </i>
    <i type="logical" name="LMONO"> F  </i>
    <i type="int" name="IDIPOL">     0</i>
    <i name="EPSILON">      1.00000000</i>
    <v name="DIPOL">   -100.00000000   -100.00000000   -100.00000000</v>
    <i name="EFIELD">      0.00000000</i>
   </separator>
  </separator>
  <separator name="grids" >
   <i type="int" name="NGX">   120</i>
   <i type="int" name="NGY">   120</i>
   <i type="int" name="NGZ">   120</i>
   <i type="int" name="NGXF">   240</i>
   <i type="int" name="NGYF">   240</i>
   <i type="int" name="NGZF">   240</i>
   <i type="logical" name="ADDGRID"> T  </i>
  </separator>
  <separator name="ionic" >
   <i type="int" name="NSW">     0</i>
   <i type="int" name="IBRION">    -1</i>
   <i type="int" name="MDALGO">     0</i>
   <i type="int" name="ISIF">     2</i>
   <i name="PSTRESS">      0.00000000</i>
   <i name="EDIFFG">      0.00000010</i>
   <i type="int" name="NFREE">     0</i>
   <i name="POTIM">      0.50000000</i>
   <i name="SMASS">     -3.00000000</i>
   <i name="SCALEE">      1.00000000</i>
  </separator>
  <separator name="ionic md" >
   <i name="TEBEG">      0.00010000</i>
   <i name="TEEND">      0.00010000</i>
   <i type="int" name="NBLOCK">     1</i>
   <i type="int" name="KBLOCK">     1</i>
   <i type="int" name="NPACO">   256</i>
   <i name="APACO">     16.00000000</i>
  </separator>
  <separator name="symmetry" >
   <i type="int" name="ISYM">     2</i>
   <i name="SYMPREC">      0.00001000</i>
  </separator>
  <separator name="dos" >
   <i type="int" name="LORBIT">     0</i>
   <v name="RWIGS">     -1.00000000</v>
   <i type="int" name="NEDOS">   301</i>
   <i name="EMIN">     10.00000000</i>
   <i name="EMAX">    -10.00000000</i>
   <i name="EFERMI">      0.00000000</i>
  </separator>
  <separator name="writing" >
   <i type="int" name="NWRITE">     2</i>
   <i type="logical" name="LWAVE"> F  </i>
   <i type="logical" name="LDOWNSAMPLE"> F  </i>
   <i type="logical" name="LCHARG"> F  </i>
   <i type="logical" name="LPARD"> F  </i>
   <i type="logical" name="LVTOT"> F  </i>
   <i type="logical" name="LVHAR"> F  </i>
   <i type="logical" name="LELF"> F  </i>
   <i type="logical" name="LOPTICS"> F  </i>
   <v name="STM">      0.00000000      0.00000000      0.00000000      0.00000000      0.00000000      0.00000000      0.00000000</v>
  </separator>
  <separator name="performance" >
   <i type="int" name="NPAR">     2</i>
   <i type="int" name="NSIM">     4</i>
   <i type="int" name="NBLK">    -1</i>
   <i type="logical" name="LPLANE"> T  </i>
   <i type="logical" name="LSCALAPACK"> T  </i>
   <i type="logical" name="LSCAAWARE"> F  </i>
   <i type="logical" name="LSCALU"> F  </i>
   <i type="logical" name="LASYNC"> F  </i>
   <i type="logical" name="LORBITALREAL"> F  </i>
  </separator>
  <separator name="miscellaneous" >
   <i type="int" name="IDIOT">     3</i>
   <i type="int" name="ISPECIAL">     0</i>
   <i type="logical" name="LMUSIC"> F  </i>
   <v name="POMASS">     28.08500000</v>
   <v name="DARWINR">      0.00000000</v>
   <v name="DARWINV">      1.00000000</v>
   <i type="logical" name="LCORR"> T  </i>
  </separator>
  <i type="logical" name="GGA_COMPAT"> T  </i>
  <i type="logical" name="LBERRY"> F  </i>
  <i type="int" name="ICORELEVEL">     0</i>
  <i type="logical" name="LDAU"> F  </i>
  <i type="int" name="I_CONSTRAINED_M">     0</i>
  <separator name="electronic exchange-correlation" >
   <i type="string" name="GGA">--</i>
   <i type="int" name="VOSKOWN">     0</i>
   <i type="logical" name="LHFCALC"> F  </i>
   <i type="string" name="PRECFOCK"></i>
   <i type="logical" name="LSYMGRAD"> F  </i>
   <i type="logical" name="LHFONE"> F  </i>
   <i type="logical" name="LRHFCALC"> F  </i>
   <i type="logical" name="LTHOMAS"> F  </i>
   <i type="logical" name="LMODELHF"> F  </i>
   <i name="ENCUT4O">     -1.00000000</i>
   <i type="int" name="EXXOEP">     0</i>
   <i type="int" name="FOURORBIT">     0</i>
   <i name="AEXX">      0.00000000</i>
   <i name="HFALPHA">      0.00000000</i>
   <i name="MCALPHA">      0.00000000</i>
   <i name="ALDAX">      1.00000000</i>
   <i name="AGGAX">      1.00000000</i>
   <i name="ALDAC">      1.00000000</i>
   <i name="AGGAC">      1.00000000</i>
   <i type="int" name="NKREDX">     1</i>
   <i type="int" name="NKREDY">     1</i>
   <i type="int" name="NKREDZ">     1</i>
   <i type="logical" name="SHIFTRED"> F  </i>
   <i type="logical" name="ODDONLY"> F  </i>
   <i type="logical" name="EVENONLY"> F  </i>
   <i type="int" name="LMAXFOCK">     0</i>
   <i type="int" name="NMAXFOCKAE">     0</i>
   <i type="logical" name="LFOCKAEDFT"> F  </i>
   <i name="HFSCREEN">      0.00000000</i>
   <i name="HFSCREENC">      0.00000000</i>
   <i type="int" name="NBANDSGWLOW">     0</i>
  </separator>
  <separator name="vdW DFT" >
   <i type="logical" name="LUSE_VDW"> F  </i>
   <i name="Zab_VDW">     -0.84910000</i>
   <i name="PARAM1">      0.12340000</i>
   <i name="PARAM2">      1.00000000</i>
   <i name="PARAM3">      0.00000000</i>
  </separator>
  <separator name="model GW" >
   <i type="int" name="MODEL_GW">     0</i>
   <i name="MODEL_EPS0">     12.26607635</i>
   <i name="MODEL_ALPHA">      1.00000000</i>
  </separator>
  <separator name="linear response parameters" >
   <i type="logical" name="LEPSILON"> F  </i>
   <i type="logical" name="LRPA"> F  </i>
   <i type="logical" name="LNABLA"> F  </i>
   <i type="logical" name="LVEL"> F  </i>
   <i type="int" name="KINTER">     0</i>
   <i name="CSHIFT">      0.10000000</i>
   <i name="OMEGAMAX">     -1.00000000</i>
   <i name="DEG_THRESHOLD">      0.00200000</i>
   <i name="RTIME">     -0.10000000</i>
   <i name="WPLASMAI">      0.00000000</i>
   <v name="DFIELD">      0.00000000      0.00000000      0.00000000</v>
   <v name="WPLASMA">      0.00000000      0.00000000      0.00000000      0.00000000      0.00000000      0.00000000      0.00000000      0.00000000      0.00000000</v>
  </separator>
  <separator name="orbital magnetization" >
   <i type="logical" name="NUCIND"> F  </i>
   <v name="MAGPOS">      0.00000000      0.00000000      0.00000000</v>
   <i type="logical" name="LNICSALL"> T  </i>
   <i type="logical" name="ORBITALMAG"> F  </i>
   <i type="logical" name="LMAGBLOCH"> F  </i>
   <i type="logical" name="LCHIMAG"> F  </i>
   <i type="logical" name="LGAUGE"> T  </i>
   <i type="int" name="MAGATOM">     0</i>
   <v name="MAGDIPOL">      0.00000000      0.00000000      0.00000000</v>
   <v name="AVECCONST">      0.00000000      0.00000000      0.00000000</v>
  </separator>
  <separator name="response functions" >
   <i type="logical" name="LADDER"> F  </i>
   <i type="logical" name="LRPAFORCE"> F  </i>
   <i type="logical" name="LFXC"> F  </i>
   <i type="logical" name="LHARTREE"> T  </i>
   <i type="int" name="IBSE">     0</i>
   <v type="int" name="KPOINT">    -1     0     0     0</v>
   <i type="logical" name="LTCTE"> F  </i>
   <i type="logical" name="LTETE"> F  </i>
   <i type="logical" name="LTRIPLET"> F  </i>
   <i type="logical" name="LFXCEPS"> F  </i>
   <i type="logical" name="LFXHEG"> F  </i>
   <i type="int" name="NATURALO">     2</i>
   <i type="logical" name="L2ORDER"> F  </i>
   <i type="logical" name="LMP2LT"> F  </i>
   <i type="logical" name="LUSEW"> F  </i>
   <i name="ENCUTGW">     -2.00000000</i>
   <i name="ENCUTGWSOFT">     -2.00000000</i>
   <i name="ENCUTLF">     -1.00000000</i>
   <i type="int" name="LMAXMP2">    -1</i>
   <i name="SCISSOR">      0.00000000</i>
   <i type="int" name="NOMEGA">     0</i>
   <i type="int" name="NOMEGAR">     0</i>
   <i type="int" name="NBANDSGW">    -1</i>
   <i type="int" name="NBANDSO">    -1</i>
   <i type="int" name="NBANDSV">    -1</i>
   <i type="int" name="NELM">   120</i>
   <i type="int" name="NELMHF">     1</i>
   <i type="int" name="DIM">     3</i>
   <i type="int" name="ANTIRES">     0</i>
   <i name="OMEGAMAX">    -30.00000000</i>
   <i name="OMEGAMIN">    -30.00000000</i>
   <i name="OMEGATL">   -200.00000000</i>
   <i type="int" name="OMEGAGRID">   140</i>
   <i name="CSHIFT">     -0.10000000</i>
   <i type="logical" name="SELFENERGY"> F  </i>
   <i type="logical" name="LSPECTRAL"> F  </i>
   <i type="logical" name="LSPECTRALGW"> F  </i>
   <i type="logical" name="LSINGLES"> F  </i>
   <i type="logical" name="LFERMIGW"> F  </i>
   <i type="logical" name="ODDONLYGW"> F  </i>
   <i type="logical" name="EVENONLYGW"> F  </i>
   <i type="int" name="NKREDLFX">     1</i>
   <i type="int" name="NKREDLFY">     1</i>
   <i type="int" name="NKREDLFZ">     1</i>
   <i type="int" name="MAXMEM">  2800</i>
   <i type="int" name="TELESCOPE">     0</i>
   <i type="int" name="TAUPAR">     1</i>
   <i type="int" name="OMEGAPAR">    -1</i>
   <i name="LAMBDA">      1.00000000</i>
  </separator>
  <separator name="External order field" >
   <i name="OFIELD_KAPPA">      0.00000000</i>
   <v name="OFIELD_K">      0.00000000      0.00000000      0.00000000</v>
   <i name="OFIELD_Q6_NEAR">      0.00000000</i>
   <i name="OFIELD_Q6_FAR">      0.00000000</i>
   <i name="OFIELD_A">      0.00000000</i>
  </separator>
 </parameters>
 <atominfo>
  <atoms>     128 </atoms>
  <types>       1 </types>
  <array name="atoms" >
   <dimension dim="1">ion</dimension>
   <field type="string">element</field>
   <field type="int">atomtype</field>
   <set>
    <rc><c>Si</c><c>   1</c></rc>
    <rc><c>Si</c><c>   1</c></rc>
    <rc><c>Si</c><c>   1</c></rc>
    <rc><c>Si</c><c>   1</c></rc>
    <rc><c>Si</c><c>   1</c></rc>
    <rc><c>Si</c><c>   1</c></rc>
    <rc><c>Si</c><c>   1</c></rc>
    <rc><c>Si</c><c>   1</c></rc>
    <rc><c>Si</c><c>   1</c></rc>
    <rc><c>Si</c><c>   1</c></rc>
    <rc><c>Si</c><c>   1</c></rc>
    <rc><c>Si</c><c>   1</c></rc>
    <rc><c>Si</c><c>   1</c></rc>
    <rc><c>Si</c><c>   1</c></rc>
    <rc><c>Si</c><c>   1</c></rc>
    <rc><c>Si</c><c>   1</c></rc>
    <rc><c>Si</c><c>   1</c></rc>
    <rc><c>Si</c><c>   1</c></rc>
    <rc><c>Si</c><c>   1</c></rc>
    <rc><c>Si</c><c>   1</c></rc>
    <rc><c>Si</c><c>   1</c></rc>
    <rc><c>Si</c><c>   1</c></rc>
    <rc><c>Si</c><c>   1</c></rc>
    <rc><c>Si</c><c>   1</c></rc>
    <rc><c>Si</c><c>   1</c></rc>
    <rc><c>Si</c><c>   1</c></rc>
    <rc><c>Si</c><c>   1</c></rc>
    <rc><c>Si</c><c>   1</c></rc>
    <rc><c>Si</c><c>   1</c></rc>
    <rc><c>Si</c><c>   1</c></rc>
    <rc><c>Si</c><c>   1</c></rc>
    <rc><c>Si</c><c>   1</c></rc>
    <rc><c>Si</c><c>   1</c></rc>
    <rc><c>Si</c><c>   1</c></rc>
    <rc><c>Si</c><c>   1</c></rc>
    <rc><c>Si</c><c>   1</c></rc>
    <rc><c>Si</c><c>   1</c></rc>
    <rc><c>Si</c><c>   1</c></rc>
    <rc><c>Si</c><c>   1</c></rc>
    <rc><c>Si</c><c>   1</c></rc>
    <rc><c>Si</c><c>   1</c></rc>
    <rc><c>Si</c><c>   1</c></rc>
    <rc><c>Si</c><c>   1</c></rc>
    <rc><c>Si</c><c>   1</c></rc>
    <rc><c>Si</c><c>   1</c></rc>
    <rc><c>Si</c><c>   1</c></rc>
    <rc><c>Si</c><c>   1</c></rc>
    <rc><c>Si</c><c>   1</c></rc>
    <rc><c>Si</c><c>   1</c></rc>
    <rc><c>Si</c><c>   1</c></rc>
    <rc><c>Si</c><c>   1</c></rc>
    <rc><c>Si</c><c>   1</c></rc>
    <rc><c>Si</c><c>   1</c></rc>
    <rc><c>Si</c><c>   1</c></rc>
    <rc><c>Si</c><c>   1</c></rc>
    <rc><c>Si</c><c>   1</c></rc>
    <rc><c>Si</c><c>   1</c></rc>
    <rc><c>Si</c><c>   1</c></rc>
    <rc><c>Si</c><c>   1</c></rc>
    <rc><c>Si</c><c>   1</c></rc>
    <rc><c>Si</c><c>   1</c></rc>
    <rc><c>Si</c><c>   1</c></rc>
    <rc><c>Si</c><c>   1</c></rc>
    <rc><c>Si</c><c>   1</c></rc>
    <rc><c>Si</c><c>   1</c></rc>
    <rc><c>Si</c><c>   1</c></rc>
    <rc><c>Si</c><c>   1</c></rc>
    <rc><c>Si</c><c>   1</c></rc>
    <rc><c>Si</c><c>   1</c></rc>
    <rc><c>Si</c><c>   1</c></rc>
    <rc><c>Si</c><c>   1</c></rc>
    <rc><c>Si</c><c>   1</c></rc>
    <rc><c>Si</c><c>   1</c></rc>
    <rc><c>Si</c><c>   1</c></rc>
    <rc><c>Si</c><c>   1</c></rc>
    <rc><c>Si</c><c>   1</c></rc>
    <rc><c>Si</c><c>   1</c></rc>
    <rc><c>Si</c><c>   1</c></rc>
    <rc><c>Si</c><c>   1</c></rc>
    <rc><c>Si</c><c>   1</c></rc>
    <rc><c>Si</c><c>   1</c></rc>
    <rc><c>Si</c><c>   1</c></rc>
    <rc><c>Si</c><c>   1</c></rc>
    <rc><c>Si</c><c>   1</c></rc>
    <rc><c>Si</c><c>   1</c></rc>
    <rc><c>Si</c><c>   1</c></rc>
    <rc><c>Si</c><c>   1</c></rc>
    <rc><c>Si</c><c>   1</c></rc>
    <rc><c>Si</c><c>   1</c></rc>
    <rc><c>Si</c><c>   1</c></rc>
    <rc><c>Si</c><c>   1</c></rc>
    <rc><c>Si</c><c>   1</c></rc>
    <rc><c>Si</c><c>   1</c></rc>
    <rc><c>Si</c><c>   1</c></rc>
    <rc><c>Si</c><c>   1</c></rc>
    <rc><c>Si</c><c>   1</c></rc>
    <rc><c>Si</c><c>   1</c></rc>
    <rc><c>Si</c><c>   1</c></rc>
    <rc><c>Si</c><c>   1</c></rc>
    <rc><c>Si</c><c>   1</c></rc>
    <rc><c>Si</c><c>   1</c></rc>
    <rc><c>Si</c><c>   1</c></rc>
    <rc><c>Si</c><c>   1</c></rc>
    <rc><c>Si</c><c>   1</c></rc>
    <rc><c>Si</c><c>   1</c></rc>
    <rc><c>Si</c><c>   1</c></rc>
    <rc><c>Si</c><c>   1</c></rc>
    <rc><c>Si</c><c>   1</c></rc>
    <rc><c>Si</c><c>   1</c></rc>
    <rc><c>Si</c><c>   1</c></rc>
    <rc><c>Si</c><c>   1</c></rc>
    <rc><c>Si</c><c>   1</c></rc>
    <rc><c>Si</c><c>   1</c></rc>
    <rc><c>Si</c><c>   1</c></rc>
    <rc><c>Si</c><c>   1</c></rc>
    <rc><c>Si</c><c>   1</c></rc>
    <rc><c>Si</c><c>   1</c></rc>
    <rc><c>Si</c><c>   1</c></rc>
    <rc><c>Si</c><c>   1</c></rc>
    <rc><c>Si</c><c>   1</c></rc>
    <rc><c>Si</c><c>   1</c></rc>
    <rc><c>Si</c><c>   1</c></rc>
    <rc><c>Si</c><c>   1</c></rc>
    <rc><c>Si</c><c>   1</c></rc>
    <rc><c>Si</c><c>   1</c></rc>
    <rc><c>Si</c><c>   1</c></rc>
    <rc><c>Si</c><c>   1</c></rc>
    <rc><c>Si</c><c>   1</c></rc>
   </set>
  </array>
  <array name="atomtypes" >
   <dimension dim="1">type</dimension>
   <field type="int">atomspertype</field>
   <field type="string">element</field>
   <field>mass</field>
   <field>valence</field>
   <field type="string">pseudopotential</field>
   <set>
    <rc><c> 128</c><c>Si</c><c>     28.08500000</c><c>      4.00000000</c><c> PAW_PBE Si 05Jan2001                   </c></rc>
   </set>
  </array>
 </atominfo>
 <structure name="initialpos" >
  <crystal>
   <varray name="basis" >
    <v>       0.00000000      10.93733369      10.93733369 </v>
    <v>      10.93733369       0.00000000      10.93733369 </v>
    <v>      10.93733369      10.93733369       0.00000000 </v>
   </varray>
   <i name="volume">   2616.76295363 </i>
   <varray name="rec_basis" >
    <v>      -0.04571498       0.04571498       0.04571498 </v>
    <v>       0.04571498      -0.04571498       0.04571498 </v>
    <v>       0.04571498       0.04571498      -0.04571498 </v>
   </varray>
  </crystal>
  <varray name="positions" >
   <v>       0.00549225       0.99932256       0.99442295 </v>
   <v>       0.24075440       0.99485273       0.00613374 </v>
   <v>       0.48630025       0.99573513       0.00973494 </v>
   <v>       0.74561979       0.00849832       0.99915631 </v>
   <v>       0.00942982       0.24043109       0.99179366 </v>
   <v>       0.25023188       0.24571490       0.01606191 </v>
   <v>       0.51212830       0.26133781       0.98711465 </v>
   <v>       0.76065760       0.24751639       0.99527691 </v>
   <v>       0.00753527       0.49608863       0.99174165 </v>
   <v>       0.24438806       0.50384716       0.99992883 </v>
   <v>       0.49720266       0.50319320       0.99428787 </v>
   <v>       0.76627482       0.48986843       0.99918397 </v>
   <v>       0.00021429       0.75611357       0.00654828 </v>
   <v>       0.25109858       0.74280853       0.00424226 </v>
   <v>       0.50348519       0.73973412       0.99145916 </v>
   <v>       0.75642129       0.75026069       0.99199054 </v>
   <v>       0.98334729       0.00590299       0.25937635 </v>
   <v>       0.24315504       0.00295332       0.24797467 </v>
   <v>       0.50208023       0.00842462       0.24891678 </v>
   <v>       0.75846576       0.99710068       0.25554325 </v>
   <v>       0.00902715       0.25788016       0.24142537 </v>
   <v>       0.23582976       0.25853997       0.25515329 </v>
   <v>       0.49123400       0.27163918       0.24136030 </v>
   <v>       0.75416093       0.23676649       0.24511416 </v>
   <v>       0.99235671       0.50126070       0.25719526 </v>
   <v>       0.25419354       0.50665895       0.25308728 </v>
   <v>       0.49513902       0.51178941       0.24218124 </v>
   <v>       0.75372224       0.49848242       0.24763980 </v>
   <v>       0.99305568       0.74834448       0.25222311 </v>
   <v>       0.25684894       0.74003508       0.24695103 </v>
   <v>       0.50472081       0.75397659       0.25204436 </v>
   <v>       0.74791424       0.73655460       0.25674803 </v>
   <v>       0.00202986       0.99669145       0.50112944 </v>
   <v>       0.25181030       0.00081051       0.49562699 </v>
   <v>       0.49978522       0.00470595       0.50146876 </v>
   <v>       0.74275014       0.00898951       0.49993269 </v>
   <v>       0.01467324       0.23872370       0.49139262 </v>
   <v>       0.25630619       0.25361859       0.49609849 </v>
   <v>       0.49144225       0.24038952       0.51135271 </v>
   <v>       0.74930501       0.25101191       0.50048923 </v>
   <v>       0.00116045       0.49745779       0.49326379 </v>
   <v>       0.24502441       0.50300333       0.50242849 </v>
   <v>       0.50170136       0.50752411       0.49211220 </v>
   <v>       0.74914272       0.50913345       0.49572388 </v>
   <v>       0.99345763       0.74605601       0.50164362 </v>
   <v>       0.24352793       0.74427542       0.50611369 </v>
   <v>       0.49653366       0.75598361       0.49904720 </v>
   <v>       0.75529695       0.74812771       0.49917279 </v>
   <v>       0.02112086       0.99919199       0.74869983 </v>
   <v>       0.25816642       0.99968641       0.73671312 </v>
   <v>       0.48915930       0.01321579       0.74911823 </v>
   <v>       0.74780543       0.99330402       0.75671209 </v>
   <v>       0.99650398       0.25537755       0.74229303 </v>
   <v>       0.24255846       0.25872479       0.75321758 </v>
   <v>       0.49745430       0.26071294       0.74168473 </v>
   <v>       0.75170553       0.24472457       0.75806037 </v>
   <v>       0.99258628       0.50621172       0.74928692 </v>
   <v>       0.24612263       0.49309957       0.75448688 </v>
   <v>       0.50863634       0.49517238       0.74798411 </v>
   <v>       0.74351015       0.49178543       0.75874499 </v>
   <v>       0.99758347       0.75109546       0.75194785 </v>
   <v>       0.25323226       0.75602182       0.73964439 </v>
   <v>       0.50953454       0.74693825       0.75039694 </v>
   <v>       0.75146715       0.74319296       0.75136119 </v>
   <v>       0.05865335       0.04101410       0.08001919 </v>
   <v>       0.31298931       0.06346581       0.06867168 </v>
   <v>       0.56549743       0.05807653       0.07267317 </v>
   <v>       0.80235445       0.07103493       0.06660314 </v>
   <v>       0.06591612       0.30942698       0.06142494 </v>
   <v>       0.32336198       0.30421982       0.06371844 </v>
   <v>       0.56318610       0.31537331       0.05582880 </v>
   <v>       0.81520900       0.31386199       0.05639693 </v>
   <v>       0.05642354       0.57177479       0.06694366 </v>
   <v>       0.29901095       0.56310007       0.06350812 </v>
   <v>       0.58146156       0.55593412       0.05644770 </v>
   <v>       0.81583408       0.56700406       0.05559896 </v>
   <v>       0.07085552       0.80941757       0.05891651 </v>
   <v>       0.31861767       0.80878840       0.06045297 </v>
   <v>       0.54549096       0.82808237       0.06328524 </v>
   <v>       0.81658776       0.81636806       0.05118261 </v>
   <v>       0.05880520       0.05889375       0.30990983 </v>
   <v>       0.32497335       0.06069542       0.31473475 </v>
   <v>       0.56393887       0.06331765       0.31071145 </v>
   <v>       0.81325566       0.06209448       0.31906277 </v>
   <v>       0.05543798       0.31060651       0.31533180 </v>
   <v>       0.30527225       0.30727954       0.32150464 </v>
   <v>       0.55947983       0.31470526       0.32054186 </v>
   <v>       0.82092337       0.29899901       0.31456398 </v>
   <v>       0.07082664       0.56209737       0.31745092 </v>
   <v>       0.31857395       0.56673553       0.31028077 </v>
   <v>       0.56302103       0.56383987       0.31824982 </v>
   <v>       0.80930409       0.55467411       0.32175004 </v>
   <v>       0.06550784       0.80554418       0.31304694 </v>
   <v>       0.30901107       0.81168020       0.31155977 </v>
   <v>       0.55090360       0.82936970       0.31374487 </v>
   <v>       0.80221387       0.82698948       0.31120692 </v>
   <v>       0.06173944       0.05529411       0.56514570 </v>
   <v>       0.30623889       0.06678669       0.56768324 </v>
   <v>       0.55650220       0.06267855       0.56995760 </v>
   <v>       0.81719810       0.05776363       0.56348007 </v>
   <v>       0.06629684       0.31842538       0.55676563 </v>
   <v>       0.31392968       0.30332629       0.56545841 </v>
   <v>       0.56576231       0.31738317       0.55829090 </v>
   <v>       0.80329146       0.31416002       0.56301722 </v>
   <v>       0.05662274       0.56639615       0.54735139 </v>
   <v>       0.30149672       0.56304652       0.56557261 </v>
   <v>       0.56149048       0.56221990       0.56213380 </v>
   <v>       0.81260258       0.54925812       0.58032187 </v>
   <v>       0.06771833       0.81924199       0.56179902 </v>
   <v>       0.31263450       0.82165734       0.55598677 </v>
   <v>       0.55431905       0.81420043       0.57036539 </v>
   <v>       0.81324092       0.81414793       0.56750109 </v>
   <v>       0.04384825       0.07436941       0.81336147 </v>
   <v>       0.30123265       0.05738336       0.81345951 </v>
   <v>       0.56258783       0.06683179       0.80631591 </v>
   <v>       0.81444629       0.06256237       0.80877538 </v>
   <v>       0.05843099       0.32626252       0.80607789 </v>
   <v>       0.30814423       0.30836973       0.82672900 </v>
   <v>       0.57414495       0.31237048       0.80260200 </v>
   <v>       0.81745761       0.30993049       0.80326295 </v>
   <v>       0.07236626       0.57034737       0.79742980 </v>
   <v>       0.32173373       0.56292493       0.80924647 </v>
   <v>       0.55779081       0.56496948       0.81315056 </v>
   <v>       0.81017457       0.56911856       0.81260221 </v>
   <v>       0.06593642       0.81081360       0.81158013 </v>
   <v>       0.30375187       0.82646984       0.80846021 </v>
   <v>       0.55360193       0.81396396       0.81730009 </v>
   <v>       0.82058796       0.81673470       0.79493674 </v>
  </varray>
 </structure>
 <calculation>
  <scstep>
   <time name="dav">   70.50   70.52</time>
   <time name="total">   71.51   71.54</time>
   <energy>
    <i name="alphaZ">    210.77028614 </i>
    <i name="ewald"> -14473.96235955 </i>
    <i name="hartreedc">   -754.10560853 </i>
    <i name="XCdc">  -1195.40424764 </i>
    <i name="pawpsdc">   4221.13331941 </i>
    <i name="pawaedc">  -1969.18571412 </i>
    <i name="eentropy">     -0.00194326 </i>
    <i name="bandstr">   2151.61081194 </i>
    <i name="atom">  13192.48085998 </i>
    <i name="e_fr_energy">   1383.33540439 </i>
    <i name="e_wo_entrp">   1383.33734765 </i>
    <i name="e_0_energy">   1383.33637602 </i>
   </energy>
  </scstep>
  <scstep>
   <time name="dav">   80.36   80.37</time>
   <time name="total">   80.36   80.37</time>
   <energy>
    <i name="e_fr_energy">   -536.50946588 </i>
    <i name="e_wo_entrp">   -536.50946588 </i>
    <i name="e_0_energy">   -536.50946588 </i>
   </energy>
  </scstep>
  <scstep>
   <time name="dav">   82.27   82.28</time>
   <time name="total">   82.27   82.29</time>
   <energy>
    <i name="e_fr_energy">   -686.18253560 </i>
    <i name="e_wo_entrp">   -686.18253560 </i>
    <i name="e_0_energy">   -686.18253560 </i>
   </energy>
  </scstep>
  <scstep>
   <time name="dav">   81.27   81.28</time>
   <time name="total">   81.27   81.28</time>
   <energy>
    <i name="e_fr_energy">   -690.34696222 </i>
    <i name="e_wo_entrp">   -690.34696222 </i>
    <i name="e_0_energy">   -690.34696222 </i>
   </energy>
  </scstep>
  <scstep>
   <time name="dav">   82.16   82.18</time>
   <time name="total">   85.34   85.36</time>
   <energy>
    <i name="e_fr_energy">   -690.48976739 </i>
    <i name="e_wo_entrp">   -690.48976739 </i>
    <i name="e_0_energy">   -690.48976739 </i>
   </energy>
  </scstep>
  <scstep>
   <time name="dav">   78.29   78.30</time>
   <time name="total">   82.47   82.48</time>
   <energy>
    <i name="e_fr_energy">   -681.92375141 </i>
    <i name="e_wo_entrp">   -681.92375141 </i>
    <i name="e_0_energy">   -681.92375141 </i>
   </energy>
  </scstep>
  <scstep>
   <time name="dav">   77.97   77.98</time>
   <time name="total">   82.17   82.19</time>
   <energy>
    <i name="e_fr_energy">   -678.40650973 </i>
    <i name="e_wo_entrp">   -678.40650973 </i>
    <i name="e_0_energy">   -678.40650973 </i>
   </energy>
  </scstep>
  <scstep>
   <time name="dav">   76.56   76.58</time>
   <time name="total">   80.73   80.75</time>
   <energy>
    <i name="e_fr_energy">   -678.45501135 </i>
    <i name="e_wo_entrp">   -678.45501135 </i>
    <i name="e_0_energy">   -678.45501135 </i>
   </energy>
  </scstep>
  <scstep>
   <time name="dav">   79.34   79.36</time>
   <time name="total">   83.54   83.56</time>
   <energy>
    <i name="e_fr_energy">   -678.47868976 </i>
    <i name="e_wo_entrp">   -678.47868976 </i>
    <i name="e_0_energy">   -678.47868976 </i>
   </energy>
  </scstep>
  <scstep>
   <time name="dav">   79.08   79.09</time>
   <time name="total">   83.25   83.27</time>
   <energy>
    <i name="e_fr_energy">   -678.48106944 </i>
    <i name="e_wo_entrp">   -678.48106944 </i>
    <i name="e_0_energy">   -678.48106944 </i>
   </energy>
  </scstep>
  <scstep>
   <time name="dav">   76.82   76.84</time>
   <time name="total">   81.00   81.02</time>
   <energy>
    <i name="e_fr_energy">   -678.48277735 </i>
    <i name="e_wo_entrp">   -678.48277735 </i>
    <i name="e_0_energy">   -678.48277735 </i>
   </energy>
  </scstep>
  <scstep>
   <time name="dav">   80.18   80.21</time>
   <time name="total">   84.36   84.39</time>
   <energy>
    <i name="e_fr_energy">   -678.48280296 </i>
    <i name="e_wo_entrp">   -678.48280296 </i>
    <i name="e_0_energy">   -678.48280296 </i>
   </energy>
  </scstep>
  <scstep>
   <time name="dav">   77.27   77.28</time>
   <time name="total">   81.41   81.43</time>
   <energy>
    <i name="e_fr_energy">   -678.48284137 </i>
    <i name="e_wo_entrp">   -678.48284137 </i>
    <i name="e_0_energy">   -678.48284137 </i>
   </energy>
  </scstep>
  <scstep>
   <time name="dav">   79.86   79.88</time>
   <time name="total">   84.03   84.05</time>
   <energy>
    <i name="e_fr_energy">   -678.48284281 </i>
    <i name="e_wo_entrp">   -678.48284281 </i>
    <i name="e_0_energy">   -678.48284281 </i>
   </energy>
  </scstep>
  <scstep>
   <time name="dav">   78.70   78.72</time>
   <time name="total">   82.86   82.88</time>
   <energy>
    <i name="e_fr_energy">   -678.48284828 </i>
    <i name="e_wo_entrp">   -678.48284828 </i>
    <i name="e_0_energy">   -678.48284828 </i>
   </energy>
  </scstep>
  <scstep>
   <time name="dav">   81.34   81.36</time>
   <time name="total">   85.47   85.49</time>
   <energy>
    <i name="e_fr_energy">   -678.48284770 </i>
    <i name="e_wo_entrp">   -678.48284770 </i>
    <i name="e_0_energy">   -678.48284770 </i>
   </energy>
  </scstep>
  <scstep>
   <time name="dav">   78.20   78.22</time>
   <time name="total">   82.33   82.36</time>
   <energy>
    <i name="e_fr_energy">   -678.48284741 </i>
    <i name="e_wo_entrp">   -678.48284741 </i>
    <i name="e_0_energy">   -678.48284741 </i>
   </energy>
  </scstep>
  <scstep>
   <time name="dav">   52.11   52.13</time>
   <time name="total">   56.24   56.27</time>
   <energy>
    <i name="e_fr_energy">   -678.48284755 </i>
    <i name="e_wo_entrp">   -678.48284755 </i>
    <i name="e_0_energy">   -678.48284755 </i>
   </energy>
  </scstep>
  <scstep>
   <time name="dav">   51.15   51.18</time>
   <time name="total">   55.27   55.30</time>
   <energy>
    <i name="e_fr_energy">   -678.48284757 </i>
    <i name="e_wo_entrp">   -678.48284757 </i>
    <i name="e_0_energy">   -678.48284757 </i>
   </energy>
  </scstep>
  <scstep>
   <time name="dav">   50.49   50.51</time>
   <time name="total">   51.49   51.52</time>
   <energy>
    <i name="alphaZ">    210.77028614 </i>
    <i name="ewald"> -14473.96235955 </i>
    <i name="hartreedc">   -999.08713361 </i>
    <i name="XCdc">  -1155.96818506 </i>
    <i name="pawpsdc">   4730.57682360 </i>
    <i name="pawaedc">  -2492.29148697 </i>
    <i name="eentropy">     -0.00000000 </i>
    <i name="bandstr">    308.99834790 </i>
    <i name="atom">  13192.48085998 </i>
    <i name="e_fr_energy">   -678.48284756 </i>
    <i name="e_wo_entrp">   -678.48284756 </i>
    <i name="e_0_energy">   -678.48284756 </i>
   </energy>
  </scstep>
  <structure>
   <crystal>
    <varray name="basis" >
     <v>       0.00000000      10.93733369      10.93733369 </v>
     <v>      10.93733369       0.00000000      10.93733369 </v>
     <v>      10.93733369      10.93733369       0.00000000 </v>
    </varray>
    <i name="volume">   2616.76295363 </i>
    <varray name="rec_basis" >
     <v>      -0.04571498       0.04571498       0.04571498 </v>
     <v>       0.04571498      -0.04571498       0.04571498 </v>
     <v>       0.04571498       0.04571498      -0.04571498 </v>
    </varray>
   </crystal>
   <varray name="positions" >
    <v>       0.00549225       0.99932256       0.99442295 </v>
    <v>       0.24075440       0.99485273       0.00613374 </v>
    <v>       0.48630025       0.99573513       0.00973494 </v>
    <v>       0.74561979       0.00849832       0.99915631 </v>
    <v>       0.00942982       0.24043109       0.99179366 </v>
    <v>       0.25023188       0.24571490       0.01606191 </v>
    <v>       0.51212830       0.26133781       0.98711465 </v>
    <v>       0.76065760       0.24751639       0.99527691 </v>
    <v>       0.00753527       0.49608863       0.99174165 </v>
    <v>       0.24438806       0.50384716       0.99992883 </v>
    <v>       0.49720266       0.50319320       0.99428787 </v>
    <v>       0.76627482       0.48986843       0.99918397 </v>
    <v>       0.00021429       0.75611357       0.00654828 </v>
    <v>       0.25109858       0.74280853       0.00424226 </v>
    <v>       0.50348519       0.73973412       0.99145916 </v>
    <v>       0.75642129       0.75026069       0.99199054 </v>
    <v>       0.98334729       0.00590299       0.25937635 </v>
    <v>       0.24315504       0.00295332       0.24797467 </v>
    <v>       0.50208023       0.00842462       0.24891678 </v>
    <v>       0.75846576       0.99710068       0.25554325 </v>
    <v>       0.00902715       0.25788016       0.24142537 </v>
    <v>       0.23582976       0.25853997       0.25515329 </v>
    <v>       0.49123400       0.27163918       0.24136030 </v>
    <v>       0.75416093       0.23676649       0.24511416 </v>
    <v>       0.99235671       0.50126070       0.25719526 </v>
    <v>       0.25419354       0.50665895       0.25308728 </v>
    <v>       0.49513902       0.51178941       0.24218124 </v>
    <v>       0.75372224       0.49848242       0.24763980 </v>
    <v>       0.99305568       0.74834448       0.25222311 </v>
    <v>       0.25684894       0.74003508       0.24695103 </v>
    <v>       0.50472081       0.75397659       0.25204436 </v>
    <v>       0.74791424       0.73655460       0.25674803 </v>
    <v>       0.00202986       0.99669145       0.50112944 </v>
    <v>       0.25181030       0.00081051       0.49562699 </v>
    <v>       0.49978522       0.00470595       0.50146876 </v>
    <v>       0.74275014       0.00898951       0.49993269 </v>
    <v>       0.01467324       0.23872370       0.49139262 </v>
    <v>       0.25630619       0.25361859       0.49609849 </v>
    <v>       0.49144225       0.24038952       0.51135271 </v>
    <v>       0.74930501       0.25101191       0.50048923 </v>
    <v>       0.00116045       0.49745779       0.49326379 </v>
    <v>       0.24502441       0.50300333       0.50242849 </v>
    <v>       0.50170136       0.50752411       0.49211220 </v>
    <v>       0.74914272       0.50913345       0.49572388 </v>
    <v>       0.99345763       0.74605601       0.50164362 </v>
    <v>       0.24352793       0.74427542       0.50611369 </v>
    <v>       0.49653366       0.75598361       0.49904720 </v>
    <v>       0.75529695       0.74812771       0.49917279 </v>
    <v>       0.02112086       0.99919199       0.74869983 </v>
    <v>       0.25816642       0.99968641       0.73671312 </v>
    <v>       0.48915930       0.01321579       0.74911823 </v>
    <v>       0.74780543       0.99330402       0.75671209 </v>
    <v>       0.99650398       0.25537755       0.74229303 </v>
    <v>       0.24255846       0.25872479       0.75321758 </v>
    <v>       0.49745430       0.26071294       0.74168473 </v>
    <v>       0.75170553       0.24472457       0.75806037 </v>
    <v>       0.99258628       0.50621172       0.74928692 </v>
    <v>       0.24612263       0.49309957       0.75448688 </v>
    <v>       0.50863634       0.49517238       0.74798411 </v>
    <v>       0.74351015       0.49178543       0.75874499 </v>
    <v>       0.99758347       0.75109546       0.75194785 </v>
    <v>       0.25323226       0.75602182       0.73964439 </v>
    <v>       0.50953454       0.74693825       0.75039694 </v>
    <v>       0.75146715       0.74319296       0.75136119 </v>
    <v>       0.05865335       0.04101410       0.08001919 </v>
    <v>       0.31298931       0.06346581       0.06867168 </v>
    <v>       0.56549743       0.05807653       0.07267317 </v>
    <v>       0.80235445       0.07103493       0.06660314 </v>
    <v>       0.06591612       0.30942698       0.06142494 </v>
    <v>       0.32336198       0.30421982       0.06371844 </v>
    <v>       0.56318610       0.31537331       0.05582880 </v>
    <v>       0.81520900       0.31386199       0.05639693 </v>
    <v>       0.05642354       0.57177479       0.06694366 </v>
    <v>       0.29901095       0.56310007       0.06350812 </v>
    <v>       0.58146156       0.55593412       0.05644770 </v>
    <v>       0.81583408       0.56700406       0.05559896 </v>
    <v>       0.07085552       0.80941757       0.05891651 </v>
    <v>       0.31861767       0.80878840       0.06045297 </v>
    <v>       0.54549096       0.82808237       0.06328524 </v>
    <v>       0.81658776       0.81636806       0.05118261 </v>
    <v>       0.05880520       0.05889375       0.30990983 </v>
    <v>       0.32497335       0.06069542       0.31473475 </v>
    <v>       0.56393887       0.06331765       0.31071145 </v>
    <v>       0.81325566       0.06209448       0.31906277 </v>
    <v>       0.05543798       0.31060651       0.31533180 </v>
    <v>       0.30527225       0.30727954       0.32150464 </v>
    <v>       0.55947983       0.31470526       0.32054186 </v>
    <v>       0.82092337       0.29899901       0.31456398 </v>
    <v>       0.07082664       0.56209737       0.31745092 </v>
    <v>       0.31857395       0.56673553       0.31028077 </v>
    <v>       0.56302103       0.56383987       0.31824982 </v>
    <v>       0.80930409       0.55467411       0.32175004 </v>
    <v>       0.06550784       0.80554418       0.31304694 </v>
    <v>       0.30901107       0.81168020       0.31155977 </v>
    <v>       0.55090360       0.82936970       0.31374487 </v>
    <v>       0.80221387       0.82698948       0.31120692 </v>
    <v>       0.06173944       0.05529411       0.56514570 </v>
    <v>       0.30623889       0.06678669       0.56768324 </v>
    <v>       0.55650220       0.06267855       0.56995760 </v>
    <v>       0.81719810       0.05776363       0.56348007 </v>
    <v>       0.06629684       0.31842538       0.55676563 </v>
    <v>       0.31392968       0.30332629       0.56545841 </v>
    <v>       0.56576231       0.31738317       0.55829090 </v>
    <v>       0.80329146       0.31416002       0.56301722 </v>
    <v>       0.05662274       0.56639615       0.54735139 </v>
    <v>       0.30149672       0.56304652       0.56557261 </v>
    <v>       0.56149048       0.56221990       0.56213380 </v>
    <v>       0.81260258       0.54925812       0.58032187 </v>
    <v>       0.06771833       0.81924199       0.56179902 </v>
    <v>       0.31263450       0.82165734       0.55598677 </v>
    <v>       0.55431905       0.81420043       0.57036539 </v>
    <v>       0.81324092       0.81414793       0.56750109 </v>
    <v>       0.04384825       0.07436941       0.81336147 </v>
    <v>       0.30123265       0.05738336       0.81345951 </v>
    <v>       0.56258783       0.06683179       0.80631591 </v>
    <v>       0.81444629       0.06256237       0.80877538 </v>
    <v>       0.05843099       0.32626252       0.80607789 </v>
    <v>       0.30814423       0.30836973       0.82672900 </v>
    <v>       0.57414495       0.31237048       0.80260200 </v>
    <v>       0.81745761       0.30993049       0.80326295 </v>
    <v>       0.07236626       0.57034737       0.79742980 </v>
    <v>       0.32173373       0.56292493       0.80924647 </v>
    <v>       0.55779081       0.56496948       0.81315056 </v>
    <v>       0.81017457       0.56911856       0.81260221 </v>
    <v>       0.06593642       0.81081360       0.81158013 </v>
    <v>       0.30375187       0.82646984       0.80846021 </v>
    <v>       0.55360193       0.81396396       0.81730009 </v>
    <v>       0.82058796       0.81673470       0.79493674 </v>
   </varray>
  </structure>
  <varray name="forces" >
   <v>       0.67081678      -0.34732281      -1.57290819 </v>
   <v>      -0.11803204       0.78310048       1.18131977 </v>
   <v>       0.65879093      -0.52756609       4.16726376 </v>
   <v>      -1.01070078       0.62211744      -0.06199296 </v>
   <v>       0.76277758       0.57371449      -0.51700019 </v>
   <v>      -0.74858967      -0.91561039       0.18646638 </v>
   <v>      -1.11724315      -0.20638797      -2.56748875 </v>
   <v>       0.69671144      -1.72100185       0.05687913 </v>
   <v>       1.02382506      -0.20137871       0.76260260 </v>
   <v>      -1.20945600      -0.12706327      -0.87686828 </v>
   <v>       0.96097240       0.76183734      -0.36377648 </v>
   <v>       0.97130186      -1.21471301       0.69342038 </v>
   <v>      -1.41732504      -1.27417953      -0.22289206 </v>
   <v>       0.08452581      -0.69909599       1.51312882 </v>
   <v>       2.03029056       1.48626575       0.13380487 </v>
   <v>       0.57128678      -1.57266113       0.13649921 </v>
   <v>      -2.49764764       2.19685173       0.37947575 </v>
   <v>       0.29732897       1.82742392      -0.12983491 </v>
   <v>      -0.06876355       0.49621785      -0.05912327 </v>
   <v>       1.21451595      -2.40338486       0.64785324 </v>
   <v>      -0.95260679      -0.38880490      -2.72761617 </v>
   <v>      -1.68361174       1.12392435       0.56798822 </v>
   <v>      -0.77877224       1.37345595      -1.04847149 </v>
   <v>       2.17471059      -0.82883501       1.30835771 </v>
   <v>      -0.35592667       0.87950361       1.00219093 </v>
   <v>      -1.29938611      -0.11978956      -0.99616680 </v>
   <v>      -0.72029287       2.25924133       0.75933986 </v>
   <v>      -0.45371691       0.10841051      -0.78721657 </v>
   <v>       0.31866797      -0.11231268       0.73354873 </v>
   <v>       1.72708752      -1.18150762       1.16778389 </v>
   <v>       0.13628871      -1.00411681      -0.84578266 </v>
   <v>       1.25170933      -1.54401697       1.79843721 </v>
   <v>      -0.00668004      -1.05818103       0.45714432 </v>
   <v>       1.09801406       0.04436782       0.15981665 </v>
   <v>      -0.43994863      -0.54227699      -0.83183759 </v>
   <v>       0.05658798       1.39094105      -0.63105107 </v>
   <v>       2.41489176      -0.00977430      -0.98238464 </v>
   <v>       0.53600118       0.10839965      -2.02035098 </v>
   <v>       0.31104702       0.12557221       2.54421156 </v>
   <v>      -1.02010629       0.29112003      -0.52038743 </v>
   <v>       1.04367365      -0.18797386      -1.03459171 </v>
   <v>      -1.35970019      -0.38243994      -0.58198812 </v>
   <v>       1.12027954       0.60998600      -2.00439065 </v>
   <v>       0.72465884       1.59639515      -1.79186470 </v>
   <v>       0.52657676       0.53630357       1.95677632 </v>
   <v>      -0.17120501       0.10849731       2.16464257 </v>
   <v>      -0.09989324       0.49833294      -0.27524854 </v>
   <v>       0.76485513      -0.00854409      -0.70370476 </v>
   <v>      -1.90322747      -2.62274334      -3.28957748 </v>
   <v>       2.79051211      -0.42612788      -1.68459696 </v>
   <v>      -0.22975723       1.06018766      -1.40928276 </v>
   <v>       0.16361982      -0.95225641       1.32989897 </v>
   <v>       0.29020683       0.57824047       1.30405879 </v>
   <v>      -1.07278178       0.60071289      -0.62026650 </v>
   <v>       0.07625883       0.98236393      -0.50976392 </v>
   <v>      -1.75334558      -1.26697089       0.42458075 </v>
   <v>      -0.39147005      -0.50541098       1.62671719 </v>
   <v>      -0.30186224       1.15868727       1.96375366 </v>
   <v>       0.32272498      -0.61655127       0.08157833 </v>
   <v>       1.17656303       0.60534448       0.56728502 </v>
   <v>      -0.36405371       0.03488170       1.68419791 </v>
   <v>       0.19611340       0.73648006      -0.39512537 </v>
   <v>       0.71727068      -1.56007018      -1.15752854 </v>
   <v>       1.84803355      -1.47255518       0.76926625 </v>
   <v>       0.39723473      -1.41298418       1.56691433 </v>
   <v>      -0.24915860      -1.87869415      -1.48869460 </v>
   <v>      -0.61968629      -2.67021294       0.56956617 </v>
   <v>      -1.44066510       1.71319968      -0.10850860 </v>
   <v>      -0.54412488      -0.79587575       0.09686035 </v>
   <v>       1.60124677      -0.14097618       0.89084455 </v>
   <v>       0.85140074       1.10303117       1.54597269 </v>
   <v>      -0.99862083       1.71945407      -0.39377021 </v>
   <v>      -1.08517286      -0.13680613      -0.91947706 </v>
   <v>      -0.04944084       1.99265689       0.96674850 </v>
   <v>      -0.03300448      -1.03837824      -1.14967508 </v>
   <v>      -0.12510656       1.13927206      -0.17726818 </v>
   <v>       1.58220077       0.21122808      -0.12429944 </v>
   <v>      -0.28973328      -0.20072633      -0.72182615 </v>
   <v>      -3.47244903       2.59721270      -1.72035327 </v>
   <v>       1.22224990       0.74758580      -0.67805496 </v>
   <v>       1.46372081       0.33436589       1.32857138 </v>
   <v>       0.70368024      -2.73259505      -0.97525835 </v>
   <v>       1.45740730       0.60269812       1.52625166 </v>
   <v>       0.35958753      -1.02532883      -1.83873480 </v>
   <v>       0.79630384      -0.20981825       1.53365536 </v>
   <v>      -0.31621236      -1.36400339       2.08982349 </v>
   <v>      -0.44869756      -0.62950909       0.23542337 </v>
   <v>       0.14861236      -1.24120565       0.57588472 </v>
   <v>      -0.81360429      -2.01446706      -0.28907806 </v>
   <v>       0.17538995       0.69788990      -1.72241764 </v>
   <v>      -1.53820581      -1.65903510       1.34896726 </v>
   <v>      -0.86419201      -0.81829016       0.78140756 </v>
   <v>       0.47650932      -0.67524300       0.01236109 </v>
   <v>      -0.04233045       0.59395533       0.17767579 </v>
   <v>      -1.56138870       1.46587642      -0.20934790 </v>
   <v>      -2.72174853       1.73868151      -2.21788465 </v>
   <v>      -0.04675922       0.44529126       1.11187506 </v>
   <v>      -2.21279330      -1.48206588       1.72648250 </v>
   <v>      -1.01480677       0.08503061       0.15356913 </v>
   <v>       1.04911651      -0.43276284      -0.25463235 </v>
   <v>      -1.50130595       0.27827564      -0.78323890 </v>
   <v>       2.19759653      -0.37530156       0.78053484 </v>
   <v>      -0.29490798      -1.14969078      -0.71977215 </v>
   <v>       0.30966166       1.36355794       1.48334723 </v>
   <v>       0.93432929       2.12829924      -0.36645100 </v>
   <v>      -0.33643785       1.60079020       0.62169230 </v>
   <v>       0.38017702      -0.31373969       0.81495002 </v>
   <v>      -0.74622838      -1.92124623       1.64178815 </v>
   <v>      -0.63479143      -0.38098193      -2.53428910 </v>
   <v>      -1.03863065       0.15638145      -1.18763774 </v>
   <v>      -1.01867183       0.06587292       1.35781497 </v>
   <v>      -0.23748168      -1.49622305      -0.46934294 </v>
   <v>       0.79554684       2.71876128       2.68103549 </v>
   <v>       1.72169812       0.37911652       1.25680780 </v>
   <v>       1.22063324       0.27954252      -0.57660723 </v>
   <v>      -0.38617358       1.14094338       0.02205265 </v>
   <v>      -0.80547707       0.27240713      -1.19206191 </v>
   <v>      -0.46345444      -0.13460481       0.12907808 </v>
   <v>       0.50769330      -0.54499750      -1.01708377 </v>
   <v>       1.45286829       0.85013319      -0.32381544 </v>
   <v>       0.84046851      -0.38230633      -2.32970630 </v>
   <v>       0.12254588      -0.87449015      -0.71463974 </v>
   <v>      -0.50685723       0.11298713       0.18575272 </v>
   <v>      -1.43598976       0.72549810      -1.81875744 </v>
   <v>       0.56478338       0.56439075      -0.08292441 </v>
   <v>      -1.80666757       2.15278104      -1.32626825 </v>
   <v>      -0.45611015      -0.23664935       2.44798598 </v>
   <v>       0.64102974       0.83478822      -2.23902587 </v>
  </varray>
  <varray name="stress" >
   <v>      14.15332940      -0.10698685       2.40745215 </v>
   <v>      -0.10698687      12.82483898      -3.83719096 </v>
   <v>       2.40745217      -3.83719096      11.31356111 </v>
  </varray>
  <energy>
   <i name="e_fr_energy">   -678.48284756 </i>
   <i name="e_wo_entrp">   -678.48284756 </i>
   <i name="e_0_energy">     -0.00000000 </i>
  </energy>
  <time name="totalsc"> 1675.17 1675.62</time>
  <eigenvalues>
   <array>
    <dimension dim="1">band</dimension>
    <dimension dim="2">kpoint</dimension>
    <dimension dim="3">spin</dimension>
    <field>eigene</field>
    <field>occ</field>
    <set>
     <set comment="spin 1">
      <set comment="kpoint 1">
       <r>   -6.3016    1.0000 </r>
       <r>   -5.6982    1.0000 </r>
       <r>   -5.6322    1.0000 </r>
       <r>   -5.5815    1.0000 </r>
       <r>   -5.5495    1.0000 </r>
       <r>   -5.5291    1.0000 </r>
       <r>   -5.5166    1.0000 </r>
       <r>   -5.4714    1.0000 </r>
       <r>   -5.4123    1.0000 </r>
       <r>   -5.3011    1.0000 </r>
       <r>   -5.2505    1.0000 </r>
       <r>   -5.1913    1.0000 </r>
       <r>   -5.1639    1.0000 </r>
       <r>   -5.1596    1.0000 </r>
       <r>   -5.1457    1.0000 </r>
       <r>   -4.4874    1.0000 </r>
       <r>   -4.4405    1.0000 </r>
       <r>   -4.4308    1.0000 </r>
       <r>   -4.4123    1.0000 </r>
       <r>   -4.4102    1.0000 </r>
       <r>   -4.3516    1.0000 </r>
       <r>   -4.3346    1.0000 </r>
       <r>   -4.2773    1.0000 </r>
       <r>   -4.2449    1.0000 </r>
       <r>   -4.2152    1.0000 </r>
       <r>   -4.2020    1.0000 </r>
       <r>   -4.1542    1.0000 </r>
       <r>   -4.1096    1.0000 </r>
       <r>   -4.0246    1.0000 </r>
       <r>   -3.9808    1.0000 </r>
       <r>   -3.9093    1.0000 </r>
       <r>   -3.8953    1.0000 </r>
       <r>   -3.8069    1.0000 </r>
       <r>   -3.7787    1.0000 </r>
       <r>   -3.7290    1.0000 </r>
       <r>   -3.7027    1.0000 </r>
       <r>   -3.6860    1.0000 </r>
       <r>   -3.6515    1.0000 </r>
       <r>   -3.6255    1.0000 </r>
       <r>   -3.6016    1.0000 </r>
       <r>   -3.5859    1.0000 </r>
       <r>   -3.5652    1.0000 </r>
       <r>   -3.5542    1.0000 </r>
       <r>   -3.5429    1.0000 </r>
       <r>   -3.5070    1.0000 </r>
       <r>   -3.4934    1.0000 </r>
       <r>   -3.4713    1.0000 </r>
       <r>   -3.4443    1.0000 </r>
       <r>   -3.4115    1.0000 </r>
       <r>   -3.3801    1.0000 </r>
       <r>   -3.3702    1.0000 </r>
       <r>   -3.3335    1.0000 </r>
       <r>   -3.3108    1.0000 </r>
       <r>   -3.2630    1.0000 </r>
       <r>   -3.2436    1.0000 </r>
       <r>   -2.3786    1.0000 </r>
       <r>   -2.3025    1.0000 </r>
       <r>   -2.2493    1.0000 </r>
       <r>   -2.2329    1.0000 </r>
       <r>   -2.1934    1.0000 </r>
       <r>   -2.1438    1.0000 </r>
       <r>   -2.1275    1.0000 </r>
       <r>   -2.0914    1.0000 </r>
       <r>   -2.0669    1.0000 </r>
       <r>   -2.0402    1.0000 </r>
       <r>   -1.9774    1.0000 </r>
       <r>   -1.9540    1.0000 </r>
       <r>   -1.9333    1.0000 </r>
       <r>   -1.9042    1.0000 </r>
       <r>   -1.8942    1.0000 </r>
       <r>   -1.8425    1.0000 </r>
       <r>   -1.8342    1.0000 </r>
       <r>   -1.8310    1.0000 </r>
       <r>   -1.3868    1.0000 </r>
       <r>   -1.3451    1.0000 </r>
       <r>   -1.3077    1.0000 </r>
       <r>   -1.2591    1.0000 </r>
       <r>   -1.0116    1.0000 </r>
       <r>   -0.9454    1.0000 </r>
       <r>   -0.9314    1.0000 </r>
       <r>   -0.9276    1.0000 </r>
       <r>   -0.8921    1.0000 </r>
       <r>   -0.8632    1.0000 </r>
       <r>   -0.8411    1.0000 </r>
       <r>   -0.8296    1.0000 </r>
       <r>   -0.8077    1.0000 </r>
       <r>   -0.7816    1.0000 </r>
       <r>   -0.7668    1.0000 </r>
       <r>   -0.7116    1.0000 </r>
       <r>   -0.7006    1.0000 </r>
       <r>   -0.6870    1.0000 </r>
       <r>   -0.6533    1.0000 </r>
       <r>   -0.6386    1.0000 </r>
       <r>   -0.6168    1.0000 </r>
       <r>   -0.5896    1.0000 </r>
       <r>   -0.5623    1.0000 </r>
       <r>   -0.5581    1.0000 </r>
       <r>   -0.5485    1.0000 </r>
       <r>   -0.5080    1.0000 </r>
       <r>   -0.4717    1.0000 </r>
       <r>   -0.3872    1.0000 </r>
       <r>   -0.0186    1.0000 </r>
       <r>    0.0206    1.0000 </r>
       <r>    0.1024    1.0000 </r>
       <r>    0.1082    1.0000 </r>
       <r>    0.1235    1.0000 </r>
       <r>    0.1559    1.0000 </r>
       <r>    0.2254    1.0000 </r>
       <r>    0.2697    1.0000 </r>
       <r>    0.2732    1.0000 </r>
       <r>    0.3050    1.0000 </r>
       <r>    0.3500    1.0000 </r>
       <r>    0.3949    1.0000 </r>
       <r>    1.3857    1.0000 </r>
       <r>    1.4416    1.0000 </r>
       <r>    1.4802    1.0000 </r>
       <r>    1.4999    1.0000 </r>
       <r>    1.5245    1.0000 </r>
       <r>    1.5571    1.0000 </r>
       <r>    1.5926    1.0000 </r>
       <r>    1.6256    1.0000 </r>
       <r>    1.6327    1.0000 </r>
       <r>    1.6597    1.0000 </r>
       <r>    1.6731    1.0000 </r>
       <r>    1.6878    1.0000 </r>
       <r>    1.7199    1.0000 </r>
       <r>    1.7285    1.0000 </r>
       <r>    1.7347    1.0000 </r>
       <r>    1.7651    1.0000 </r>
       <r>    1.7854    1.0000 </r>
       <r>    1.8007    1.0000 </r>
       <r>    1.8097    1.0000 </r>
       <r>    1.8226    1.0000 </r>
       <r>    1.8280    1.0000 </r>
       <r>    1.8370    1.0000 </r>
       <r>    1.8577    1.0000 </r>
       <r>    1.8679    1.0000 </r>
       <r>    1.8814    1.0000 </r>
       <r>    1.9035    1.0000 </r>
       <r>    1.9092    1.0000 </r>
       <r>    1.9337    1.0000 </r>
       <r>    1.9424    1.0000 </r>
       <r>    1.9604    1.0000 </r>
       <r>    1.9677    1.0000 </r>
       <r>    1.9745    1.0000 </r>
       <r>    1.9861    1.0000 </r>
       <r>    2.0175    1.0000 </r>
       <r>    2.0272    1.0000 </r>
       <r>    2.0316    1.0000 </r>
       <r>    2.0641    1.0000 </r>
       <r>    2.0685    1.0000 </r>
       <r>    2.0770    1.0000 </r>
       <r>    2.0816    1.0000 </r>
       <r>    2.1047    1.0000 </r>
       <r>    2.1266    1.0000 </r>
       <r>    2.1323    1.0000 </r>
       <r>    2.1497    1.0000 </r>
       <r>    2.1581    1.0000 </r>
       <r>    2.1876    1.0000 </r>
       <r>    2.1991    1.0000 </r>
       <r>    2.2086    1.0000 </r>
       <r>    2.2318    1.0000 </r>
       <r>    2.2401    1.0000 </r>
       <r>    2.2633    1.0000 </r>
       <r>    2.2705    1.0000 </r>
       <r>    2.2911    1.0000 </r>
       <r>    2.3013    1.0000 </r>
       <r>    2.3182    1.0000 </r>
       <r>    2.3486    1.0000 </r>
       <r>    2.3622    1.0000 </r>
       <r>    2.3845    1.0000 </r>
       <r>    2.4142    1.0000 </r>
       <r>    2.4464    1.0000 </r>
       <r>    2.4577    1.0000 </r>
       <r>    2.5424    1.0000 </r>
       <r>    2.7784    1.0000 </r>
       <r>    2.7888    1.0000 </r>
       <r>    2.8157    1.0000 </r>
       <r>    2.8232    1.0000 </r>
       <r>    2.8713    1.0000 </r>
       <r>    2.8906    1.0000 </r>
       <r>    3.1974    1.0000 </r>
       <r>    3.2246    1.0000 </r>
       <r>    3.2388    1.0000 </r>
       <r>    3.2657    1.0000 </r>
       <r>    3.3097    1.0000 </r>
       <r>    3.3264    1.0000 </r>
       <r>    3.3547    1.0000 </r>
       <r>    3.3606    1.0000 </r>
       <r>    3.3840    1.0000 </r>
       <r>    3.3910    1.0000 </r>
       <r>    3.3936    1.0000 </r>
       <r>    3.4258    1.0000 </r>
       <r>    3.4282    1.0000 </r>
       <r>    3.4603    1.0000 </r>
       <r>    3.4713    1.0000 </r>
       <r>    3.4846    1.0000 </r>
       <r>    3.5030    1.0000 </r>
       <r>    3.5110    1.0000 </r>
       <r>    3.5271    1.0000 </r>
       <r>    3.5443    1.0000 </r>
       <r>    3.5617    1.0000 </r>
       <r>    3.5805    1.0000 </r>
       <r>    3.6050    1.0000 </r>
       <r>    3.6331    1.0000 </r>
       <r>    3.6649    1.0000 </r>
       <r>    3.6927    1.0000 </r>
       <r>    3.7318    1.0000 </r>
       <r>    3.7735    1.0000 </r>
       <r>    3.7867    1.0000 </r>
       <r>    3.8013    1.0000 </r>
       <r>    3.8335    1.0000 </r>
       <r>    3.8561    1.0000 </r>
       <r>    3.8761    1.0000 </r>
       <r>    3.8845    1.0000 </r>
       <r>    3.9221    1.0000 </r>
       <r>    3.9429    1.0000 </r>
       <r>    4.1222    1.0000 </r>
       <r>    4.1567    1.0000 </r>
       <r>    4.1851    1.0000 </r>
       <r>    4.2513    1.0000 </r>
       <r>    4.2956    1.0000 </r>
       <r>    4.3024    1.0000 </r>
       <r>    4.3200    1.0000 </r>
       <r>    4.3343    1.0000 </r>
       <r>    4.3678    1.0000 </r>
       <r>    4.3885    1.0000 </r>
       <r>    4.4114    1.0000 </r>
       <r>    4.4398    1.0000 </r>
       <r>    4.4646    1.0000 </r>
       <r>    4.4747    1.0000 </r>
       <r>    4.4878    1.0000 </r>
       <r>    4.5093    1.0000 </r>
       <r>    4.5279    1.0000 </r>
       <r>    4.5534    1.0000 </r>
       <r>    4.6392    1.0000 </r>
       <r>    4.6546    1.0000 </r>
       <r>    4.7322    1.0000 </r>
       <r>    4.8344    1.0000 </r>
       <r>    4.8654    1.0000 </r>
       <r>    4.8820    1.0000 </r>
       <r>    4.9173    1.0000 </r>
       <r>    4.9404    1.0000 </r>
       <r>    4.9791    1.0000 </r>
       <r>    4.9979    1.0000 </r>
       <r>    5.0145    1.0000 </r>
       <r>    5.0368    1.0000 </r>
       <r>    5.0667    1.0000 </r>
       <r>    5.0970    1.0000 </r>
       <r>    5.1081    1.0000 </r>
       <r>    5.1410    1.0000 </r>
       <r>    5.1936    1.0000 </r>
       <r>    5.3035    1.0000 </r>
       <r>    5.6935    1.0000 </r>
       <r>    5.7583    1.0000 </r>
       <r>    5.8331    1.0000 </r>
       <r>    6.1769    0.0000 </r>
       <r>    6.1995    0.0000 </r>
       <r>    6.2120    0.0000 </r>
       <r>    6.2532    0.0000 </r>
       <r>    6.2773    0.0000 </r>
       <r>    6.3114    0.0000 </r>
       <r>    6.5218    0.0000 </r>
       <r>    6.5577    0.0000 </r>
       <r>    6.6310    0.0000 </r>
       <r>    6.6570    0.0000 </r>
       <r>    6.7057    0.0000 </r>
       <r>    6.7233    0.0000 </r>
       <r>    6.7891    0.0000 </r>
       <r>    6.8224    0.0000 </r>
       <r>    6.8549    0.0000 </r>
       <r>    6.8669    0.0000 </r>
       <r>    6.8882    0.0000 </r>
       <r>    6.9297    0.0000 </r>
       <r>    6.9331    0.0000 </r>
       <r>    6.9408    0.0000 </r>
       <r>    6.9621    0.0000 </r>
       <r>    6.9776    0.0000 </r>
       <r>    6.9977    0.0000 </r>
       <r>    7.0086    0.0000 </r>
       <r>    7.0342    0.0000 </r>
       <r>    7.0493    0.0000 </r>
       <r>    7.0637    0.0000 </r>
       <r>    7.0749    0.0000 </r>
       <r>    7.1017    0.0000 </r>
       <r>    7.1227    0.0000 </r>
       <r>    7.1362    0.0000 </r>
       <r>    7.1629    0.0000 </r>
       <r>    7.1859    0.0000 </r>
       <r>    7.1955    0.0000 </r>
       <r>    7.2032    0.0000 </r>
       <r>    7.2409    0.0000 </r>
       <r>    7.2500    0.0000 </r>
       <r>    7.2584    0.0000 </r>
       <r>    7.2996    0.0000 </r>
       <r>    7.3316    0.0000 </r>
       <r>    7.4064    0.0000 </r>
       <r>    7.4759    0.0000 </r>
       <r>    7.4967    0.0000 </r>
       <r>    7.5047    0.0000 </r>
       <r>    7.5299    0.0000 </r>
       <r>    7.5318    0.0000 </r>
       <r>    7.5767    0.0000 </r>
       <r>    7.6057    0.0000 </r>
       <r>    7.8143    0.0000 </r>
       <r>    7.8584    0.0000 </r>
       <r>    7.9073    0.0000 </r>
       <r>    7.9158    0.0000 </r>
       <r>    7.9258    0.0000 </r>
       <r>    7.9679    0.0000 </r>
       <r>    7.9973    0.0000 </r>
       <r>    8.0200    0.0000 </r>
       <r>    8.0392    0.0000 </r>
       <r>    8.0664    0.0000 </r>
       <r>    8.1103    0.0000 </r>
       <r>    8.1340    0.0000 </r>
       <r>    8.1784    0.0000 </r>
       <r>    8.2257    0.0000 </r>
       <r>    8.2392    0.0000 </r>
       <r>    8.5145    0.0000 </r>
       <r>    8.5577    0.0000 </r>
       <r>    8.5989    0.0000 </r>
      </set>
      <set comment="kpoint 2">
       <r>   -6.1437    1.0000 </r>
       <r>   -6.0719    1.0000 </r>
       <r>   -5.7566    1.0000 </r>
       <r>   -5.6228    1.0000 </r>
       <r>   -5.5650    1.0000 </r>
       <r>   -5.5532    1.0000 </r>
       <r>   -5.5398    1.0000 </r>
       <r>   -5.4537    1.0000 </r>
       <r>   -5.2465    1.0000 </r>
       <r>   -5.1488    1.0000 </r>
       <r>   -5.1075    1.0000 </r>
       <r>   -5.0458    1.0000 </r>
       <r>   -4.9906    1.0000 </r>
       <r>   -4.9779    1.0000 </r>
       <r>   -4.7589    1.0000 </r>
[...]
       <r>    -3.1129    39.0239   100.3153 </r>
       <r>    -3.0582    38.4867   102.4180 </r>
       <r>    -3.0036    51.0015   105.2045 </r>
       <r>    -2.9489    50.7232   107.9758 </r>
       <r>    -2.8943    31.4657   109.6950 </r>
       <r>    -2.8397    17.4652   110.6492 </r>
       <r>    -2.7850    41.5221   112.9178 </r>
       <r>    -2.7304    29.3487   114.5213 </r>
       <r>    -2.6758    36.5832   116.5200 </r>
       <r>    -2.6211    43.7160   118.9084 </r>
       <r>    -2.5665    28.8335   120.4838 </r>
       <r>    -2.5119    26.4078   121.9266 </r>
       <r>    -2.4572    11.6522   122.5632 </r>
       <r>    -2.4026     3.4208   122.7501 </r>
       <r>    -2.3480     4.5742   123.0000 </r>
       <r>    -2.2933     4.2779   123.2337 </r>
       <r>    -2.2387    14.6674   124.0351 </r>
       <r>    -2.1841    16.1534   124.9176 </r>
       <r>    -2.1294    25.7056   126.3221 </r>
       <r>    -2.0748    26.8243   127.7876 </r>
       <r>    -2.0202    33.3107   129.6076 </r>
       <r>    -1.9655    20.5640   130.7311 </r>
       <r>    -1.9109    24.0304   132.0440 </r>
       <r>    -1.8562     8.4713   132.5069 </r>
       <r>    -1.8016    13.6017   133.2500 </r>
       <r>    -1.7470     0.0000   133.2500 </r>
       <r>    -1.6923     0.0000   133.2500 </r>
       <r>    -1.6377     9.9067   133.7913 </r>
       <r>    -1.5831    14.8039   134.6001 </r>
       <r>    -1.5284    58.3266   137.7868 </r>
       <r>    -1.4738    24.5053   139.1256 </r>
       <r>    -1.4192    41.9080   141.4153 </r>
       <r>    -1.3645    46.4789   143.9547 </r>
       <r>    -1.3099    42.4205   146.2723 </r>
       <r>    -1.2553    72.4811   150.2323 </r>
       <r>    -1.2006    56.8681   153.3394 </r>
       <r>    -1.1460    75.6264   157.4712 </r>
       <r>    -1.0914    62.4770   160.8847 </r>
       <r>    -1.0367    59.2212   164.1202 </r>
       <r>    -0.9821    54.3217   167.0881 </r>
       <r>    -0.9274    77.9892   171.3491 </r>
       <r>    -0.8728    65.4590   174.9255 </r>
       <r>    -0.8182    61.4524   178.2830 </r>
       <r>    -0.7635    64.8743   181.8274 </r>
       <r>    -0.7089    33.4159   183.6531 </r>
       <r>    -0.6543    55.2596   186.6722 </r>
       <r>    -0.5996    24.6364   188.0182 </r>
       <r>    -0.5450    27.3694   189.5135 </r>
       <r>    -0.4904    18.4865   190.5235 </r>
       <r>    -0.4357    14.3747   191.3089 </r>
       <r>    -0.3811    35.5273   193.2499 </r>
       <r>    -0.3265    45.3774   195.7292 </r>
       <r>    -0.2718    49.4745   198.4322 </r>
       <r>    -0.2172    58.6729   201.6379 </r>
       <r>    -0.1626    52.7239   204.5185 </r>
       <r>    -0.1079    42.0693   206.8169 </r>
       <r>    -0.0533    34.3994   208.6964 </r>
       <r>     0.0013    38.8785   210.8205 </r>
       <r>     0.0560    26.6893   212.2787 </r>
       <r>     0.1106    14.8350   213.0892 </r>
       <r>     0.1653    20.7582   214.2233 </r>
       <r>     0.2199     1.4786   214.3041 </r>
       <r>     0.2745    18.9791   215.3410 </r>
       <r>     0.3292    31.4381   217.0587 </r>
       <r>     0.3838    22.2665   218.2752 </r>
       <r>     0.4384    26.2591   219.7099 </r>
       <r>     0.4931    22.4208   220.9348 </r>
       <r>     0.5477    33.4553   222.7627 </r>
       <r>     0.6023    14.2968   223.5438 </r>
       <r>     0.6570    20.9236   224.6870 </r>
       <r>     0.7116    22.8703   225.9365 </r>
       <r>     0.7662    20.5222   227.0577 </r>
       <r>     0.8209    12.6706   227.7500 </r>
       <r>     0.8755     2.0594   227.8625 </r>
       <r>     0.9301    15.9124   228.7319 </r>
       <r>     0.9848    24.1348   230.0505 </r>
       <r>     1.0394    19.3455   231.1074 </r>
       <r>     1.0941    17.8570   232.0831 </r>
       <r>     1.1487    46.4438   234.6205 </r>
       <r>     1.2033    17.5637   235.5801 </r>
       <r>     1.2580    23.9525   236.8888 </r>
       <r>     1.3126    37.7380   238.9506 </r>
       <r>     1.3672    29.2334   240.5478 </r>
       <r>     1.4219    44.3722   242.9721 </r>
       <r>     1.4765    72.3219   246.9234 </r>
       <r>     1.5311    81.3649   251.3688 </r>
       <r>     1.5858    71.5629   255.2787 </r>
       <r>     1.6404    99.7764   260.7300 </r>
       <r>     1.6950    69.2354   264.5127 </r>
       <r>     1.7497    54.4546   267.4879 </r>
       <r>     1.8043    37.6006   269.5422 </r>
       <r>     1.8589    35.6520   271.4901 </r>
       <r>     1.9136    34.9699   273.4007 </r>
       <r>     1.9682    18.2086   274.3955 </r>
       <r>     2.0228    25.4355   275.7852 </r>
       <r>     2.0775    77.5896   280.0243 </r>
       <r>     2.1321   104.3228   285.7240 </r>
       <r>     2.1868    96.8726   291.0167 </r>
       <r>     2.2414   117.6054   297.4422 </r>
       <r>     2.2960   110.1256   303.4589 </r>
       <r>     2.3507   111.6759   309.5604 </r>
       <r>     2.4053   112.4121   315.7021 </r>
       <r>     2.4599    79.7893   320.0614 </r>
       <r>     2.5146    42.9099   322.4058 </r>
       <r>     2.5692    29.8961   324.0392 </r>
       <r>     2.6238    31.6007   325.7657 </r>
       <r>     2.6785    68.4095   329.5033 </r>
       <r>     2.7331    83.7910   334.0813 </r>
       <r>     2.7877   101.4133   339.6220 </r>
       <r>     2.8424   100.3018   345.1020 </r>
       <r>     2.8970    82.4450   349.6064 </r>
       <r>     2.9516    92.7583   354.6744 </r>
       <r>     3.0063    84.9424   359.3152 </r>
       <r>     3.0609    96.5369   364.5896 </r>
       <r>     3.1156    95.8049   369.8240 </r>
       <r>     3.1702    60.7718   373.1443 </r>
       <r>     3.2248    83.9390   377.7303 </r>
       <r>     3.2795   108.1247   383.6378 </r>
       <r>     3.3341    86.0551   388.3394 </r>
       <r>     3.3887    91.2684   393.3259 </r>
       <r>     3.4434    82.2057   397.8172 </r>
       <r>     3.4980    95.6074   403.0408 </r>
       <r>     3.5526    85.8968   407.7338 </r>
       <r>     3.6073    82.8908   412.2626 </r>
       <r>     3.6619    64.0163   415.7602 </r>
       <r>     3.7165    66.8170   419.4107 </r>
       <r>     3.7712    75.5658   423.5393 </r>
       <r>     3.8258   104.8013   429.2651 </r>
       <r>     3.8804    93.3001   434.3626 </r>
       <r>     3.9351    66.9384   438.0198 </r>
       <r>     3.9897    69.4028   441.8117 </r>
       <r>     4.0443    77.2798   446.0339 </r>
       <r>     4.0990    57.7973   449.1916 </r>
       <r>     4.1536    63.0196   452.6348 </r>
       <r>     4.2083    77.6212   456.8756 </r>
       <r>     4.2629    49.7148   459.5918 </r>
       <r>     4.3175    66.0441   463.2001 </r>
       <r>     4.3722    82.6338   467.7149 </r>
       <r>     4.4268    74.0379   471.7599 </r>
       <r>     4.4814    64.1162   475.2629 </r>
       <r>     4.5361    82.8150   479.7875 </r>
       <r>     4.5907    62.8252   483.2201 </r>
       <r>     4.6453    42.2143   485.5265 </r>
       <r>     4.7000    51.8361   488.3586 </r>
       <r>     4.7546    33.7009   490.1998 </r>
       <r>     4.8092    23.1856   491.4666 </r>
       <r>     4.8639    30.2783   493.1208 </r>
       <r>     4.9185    43.6694   495.5067 </r>
       <r>     4.9731    33.8778   497.3576 </r>
       <r>     5.0278    45.9337   499.8672 </r>
       <r>     5.0824    37.0661   501.8923 </r>
       <r>     5.1371    26.0518   503.3157 </r>
       <r>     5.1917     5.8125   503.6333 </r>
       <r>     5.2463     6.7127   504.0000 </r>
       <r>     5.3010    10.6811   504.5836 </r>
       <r>     5.3556     3.8894   504.7961 </r>
       <r>     5.4102    23.6011   506.0855 </r>
       <r>     5.4649    22.5475   507.3174 </r>
       <r>     5.5195    26.5790   508.7695 </r>
       <r>     5.5741    23.6354   510.0609 </r>
       <r>     5.6288    12.7256   510.7561 </r>
       <r>     5.6834     9.3898   511.2692 </r>
       <r>     5.7380     4.2348   511.5005 </r>
       <r>     5.7927     4.5663   511.7500 </r>
       <r>     5.8473     4.4749   511.9945 </r>
       <r>     5.9019     0.1009   512.0000 </r>
       <r>     5.9566     0.0000   512.0000 </r>
       <r>     6.0112     0.0000   512.0000 </r>
       <r>     6.0658     0.0000   512.0000 </r>
       <r>     6.1205     1.0534   512.0576 </r>
       <r>     6.1751    17.4331   513.0100 </r>
       <r>     6.2298    21.3003   514.1738 </r>
       <r>     6.2844    14.8088   514.9828 </r>
       <r>     6.3390    22.3506   516.2040 </r>
       <r>     6.3937    15.1843   517.0336 </r>
       <r>     6.4483    29.3213   518.6356 </r>
       <r>     6.5029    24.9681   519.9997 </r>
       <r>     6.5576    21.5195   521.1755 </r>
       <r>     6.6122     6.0533   521.5062 </r>
       <r>     6.6668    23.6425   522.7979 </r>
       <r>     6.7215    26.5591   524.2490 </r>
       <r>     6.7761    41.1038   526.4947 </r>
       <r>     6.8307    27.0014   527.9699 </r>
       <r>     6.8854    32.1270   529.7252 </r>
       <r>     6.9400    37.9803   531.8003 </r>
       <r>     6.9946    37.7154   533.8609 </r>
       <r>     7.0493    55.0822   536.8703 </r>
       <r>     7.1039    25.4165   538.2589 </r>
       <r>     7.1586    28.4695   539.8144 </r>
       <r>     7.2132    45.3079   542.2898 </r>
       <r>     7.2678    62.1944   545.6878 </r>
       <r>     7.3225    62.8581   549.1221 </r>
       <r>     7.3771    77.8366   553.3747 </r>
       <r>     7.4317    85.5758   558.0502 </r>
       <r>     7.4864    68.7731   561.8076 </r>
       <r>     7.5410    88.7025   566.6539 </r>
       <r>     7.5956    67.6181   570.3483 </r>
       <r>     7.6503    99.8412   575.8031 </r>
       <r>     7.7049    88.5945   580.6435 </r>
       <r>     7.7595    82.0820   585.1281 </r>
       <r>     7.8142    92.8894   590.2031 </r>
       <r>     7.8688    95.0456   595.3960 </r>
       <r>     7.9234   100.7554   600.9008 </r>
       <r>     7.9781    95.5913   606.1235 </r>
       <r>     8.0327    81.1644   610.5580 </r>
       <r>     8.0873    79.2754   614.8892 </r>
       <r>     8.1420    83.6180   619.4577 </r>
       <r>     8.1966    98.0991   624.8174 </r>
       <r>     8.2513    81.5118   629.2709 </r>
       <r>     8.3059    70.3211   633.1130 </r>
       <r>     8.3605    81.8715   637.5860 </r>
       <r>     8.4152    62.6387   641.0083 </r>
       <r>     8.4698    36.6500   643.0107 </r>
       <r>     8.5244     8.5863   643.4799 </r>
       <r>     8.5791     4.9501   643.7503 </r>
       <r>     8.6337     4.5701   644.0000 </r>
       <r>     8.6883     0.0000   644.0000 </r>
       <r>     8.7430     0.0000   644.0000 </r>
       <r>     8.7976     0.0000   644.0000 </r>
       <r>     8.8522     0.0000   644.0000 </r>
       <r>     8.9069     0.0000   644.0000 </r>
       <r>     8.9615     0.0000   644.0000 </r>
       <r>     9.0161     0.0000   644.0000 </r>
       <r>     9.0708     0.0000   644.0000 </r>
       <r>     9.1254     0.0000   644.0000 </r>
       <r>     9.1801     0.0000   644.0000 </r>
       <r>     9.2347     0.0000   644.0000 </r>
       <r>     9.2893     0.0000   644.0000 </r>
       <r>     9.3440     0.0000   644.0000 </r>
      </set>
     </set>
    </array>
   </total>
  </dos>
 </calculation>
 <structure name="finalpos" >
  <crystal>
   <varray name="basis" >
    <v>       0.00000000      10.93733369      10.93733369 </v>
    <v>      10.93733369       0.00000000      10.93733369 </v>
    <v>      10.93733369      10.93733369       0.00000000 </v>
   </varray>
   <i name="volume">   2616.76295363 </i>
   <varray name="rec_basis" >
    <v>      -0.04571498       0.04571498       0.04571498 </v>
    <v>       0.04571498      -0.04571498       0.04571498 </v>
    <v>       0.04571498       0.04571498      -0.04571498 </v>
   </varray>
  </crystal>
  <varray name="positions" >
   <v>       0.00549225       0.99932256       0.99442295 </v>
   <v>       0.24075440       0.99485273       0.00613374 </v>
   <v>       0.48630025       0.99573513       0.00973494 </v>
   <v>       0.74561979       0.00849832       0.99915631 </v>
   <v>       0.00942982       0.24043109       0.99179366 </v>
   <v>       0.25023188       0.24571490       0.01606191 </v>
   <v>       0.51212830       0.26133781       0.98711465 </v>
   <v>       0.76065760       0.24751639       0.99527691 </v>
   <v>       0.00753527       0.49608863       0.99174165 </v>
   <v>       0.24438806       0.50384716       0.99992883 </v>
   <v>       0.49720266       0.50319320       0.99428787 </v>
   <v>       0.76627482       0.48986843       0.99918397 </v>
   <v>       0.00021429       0.75611357       0.00654828 </v>
   <v>       0.25109858       0.74280853       0.00424226 </v>
   <v>       0.50348519       0.73973412       0.99145916 </v>
   <v>       0.75642129       0.75026069       0.99199054 </v>
   <v>       0.98334729       0.00590299       0.25937635 </v>
   <v>       0.24315504       0.00295332       0.24797467 </v>
   <v>       0.50208023       0.00842462       0.24891678 </v>
   <v>       0.75846576       0.99710068       0.25554325 </v>
   <v>       0.00902715       0.25788016       0.24142537 </v>
   <v>       0.23582976       0.25853997       0.25515329 </v>
   <v>       0.49123400       0.27163918       0.24136030 </v>
   <v>       0.75416093       0.23676649       0.24511416 </v>
   <v>       0.99235671       0.50126070       0.25719526 </v>
   <v>       0.25419354       0.50665895       0.25308728 </v>
   <v>       0.49513902       0.51178941       0.24218124 </v>
   <v>       0.75372224       0.49848242       0.24763980 </v>
   <v>       0.99305568       0.74834448       0.25222311 </v>
   <v>       0.25684894       0.74003508       0.24695103 </v>
   <v>       0.50472081       0.75397659       0.25204436 </v>
   <v>       0.74791424       0.73655460       0.25674803 </v>
   <v>       0.00202986       0.99669145       0.50112944 </v>
   <v>       0.25181030       0.00081051       0.49562699 </v>
   <v>       0.49978522       0.00470595       0.50146876 </v>
   <v>       0.74275014       0.00898951       0.49993269 </v>
   <v>       0.01467324       0.23872370       0.49139262 </v>
   <v>       0.25630619       0.25361859       0.49609849 </v>
   <v>       0.49144225       0.24038952       0.51135271 </v>
   <v>       0.74930501       0.25101191       0.50048923 </v>
   <v>       0.00116045       0.49745779       0.49326379 </v>
   <v>       0.24502441       0.50300333       0.50242849 </v>
   <v>       0.50170136       0.50752411       0.49211220 </v>
   <v>       0.74914272       0.50913345       0.49572388 </v>
   <v>       0.99345763       0.74605601       0.50164362 </v>
   <v>       0.24352793       0.74427542       0.50611369 </v>
   <v>       0.49653366       0.75598361       0.49904720 </v>
   <v>       0.75529695       0.74812771       0.49917279 </v>
   <v>       0.02112086       0.99919199       0.74869983 </v>
   <v>       0.25816642       0.99968641       0.73671312 </v>
   <v>       0.48915930       0.01321579       0.74911823 </v>
   <v>       0.74780543       0.99330402       0.75671209 </v>
   <v>       0.99650398       0.25537755       0.74229303 </v>
   <v>       0.24255846       0.25872479       0.75321758 </v>
   <v>       0.49745430       0.26071294       0.74168473 </v>
   <v>       0.75170553       0.24472457       0.75806037 </v>
   <v>       0.99258628       0.50621172       0.74928692 </v>
   <v>       0.24612263       0.49309957       0.75448688 </v>
   <v>       0.50863634       0.49517238       0.74798411 </v>
   <v>       0.74351015       0.49178543       0.75874499 </v>
   <v>       0.99758347       0.75109546       0.75194785 </v>
   <v>       0.25323226       0.75602182       0.73964439 </v>
   <v>       0.50953454       0.74693825       0.75039694 </v>
   <v>       0.75146715       0.74319296       0.75136119 </v>
   <v>       0.05865335       0.04101410       0.08001919 </v>
   <v>       0.31298931       0.06346581       0.06867168 </v>
   <v>       0.56549743       0.05807653       0.07267317 </v>
   <v>       0.80235445       0.07103493       0.06660314 </v>
   <v>       0.06591612       0.30942698       0.06142494 </v>
   <v>       0.32336198       0.30421982       0.06371844 </v>
   <v>       0.56318610       0.31537331       0.05582880 </v>
   <v>       0.81520900       0.31386199       0.05639693 </v>
   <v>       0.05642354       0.57177479       0.06694366 </v>
   <v>       0.29901095       0.56310007       0.06350812 </v>
   <v>       0.58146156       0.55593412       0.05644770 </v>
   <v>       0.81583408       0.56700406       0.05559896 </v>
   <v>       0.07085552       0.80941757       0.05891651 </v>
   <v>       0.31861767       0.80878840       0.06045297 </v>
   <v>       0.54549096       0.82808237       0.06328524 </v>
   <v>       0.81658776       0.81636806       0.05118261 </v>
   <v>       0.05880520       0.05889375       0.30990983 </v>
   <v>       0.32497335       0.06069542       0.31473475 </v>
   <v>       0.56393887       0.06331765       0.31071145 </v>
   <v>       0.81325566       0.06209448       0.31906277 </v>
   <v>       0.05543798       0.31060651       0.31533180 </v>
   <v>       0.30527225       0.30727954       0.32150464 </v>
   <v>       0.55947983       0.31470526       0.32054186 </v>
   <v>       0.82092337       0.29899901       0.31456398 </v>
   <v>       0.07082664       0.56209737       0.31745092 </v>
   <v>       0.31857395       0.56673553       0.31028077 </v>
   <v>       0.56302103       0.56383987       0.31824982 </v>
   <v>       0.80930409       0.55467411       0.32175004 </v>
   <v>       0.06550784       0.80554418       0.31304694 </v>
   <v>       0.30901107       0.81168020       0.31155977 </v>
   <v>       0.55090360       0.82936970       0.31374487 </v>
   <v>       0.80221387       0.82698948       0.31120692 </v>
   <v>       0.06173944       0.05529411       0.56514570 </v>
   <v>       0.30623889       0.06678669       0.56768324 </v>
   <v>       0.55650220       0.06267855       0.56995760 </v>
   <v>       0.81719810       0.05776363       0.56348007 </v>
   <v>       0.06629684       0.31842538       0.55676563 </v>
   <v>       0.31392968       0.30332629       0.56545841 </v>
   <v>       0.56576231       0.31738317       0.55829090 </v>
   <v>       0.80329146       0.31416002       0.56301722 </v>
   <v>       0.05662274       0.56639615       0.54735139 </v>
   <v>       0.30149672       0.56304652       0.56557261 </v>
   <v>       0.56149048       0.56221990       0.56213380 </v>
   <v>       0.81260258       0.54925812       0.58032187 </v>
   <v>       0.06771833       0.81924199       0.56179902 </v>
   <v>       0.31263450       0.82165734       0.55598677 </v>
   <v>       0.55431905       0.81420043       0.57036539 </v>
   <v>       0.81324092       0.81414793       0.56750109 </v>
   <v>       0.04384825       0.07436941       0.81336147 </v>
   <v>       0.30123265       0.05738336       0.81345951 </v>
   <v>       0.56258783       0.06683179       0.80631591 </v>
   <v>       0.81444629       0.06256237       0.80877538 </v>
   <v>       0.05843099       0.32626252       0.80607789 </v>
   <v>       0.30814423       0.30836973       0.82672900 </v>
   <v>       0.57414495       0.31237048       0.80260200 </v>
   <v>       0.81745761       0.30993049       0.80326295 </v>
   <v>       0.07236626       0.57034737       0.79742980 </v>
   <v>       0.32173373       0.56292493       0.80924647 </v>
   <v>       0.55779081       0.56496948       0.81315056 </v>
   <v>       0.81017457       0.56911856       0.81260221 </v>
   <v>       0.06593642       0.81081360       0.81158013 </v>
   <v>       0.30375187       0.82646984       0.80846021 </v>
   <v>       0.55360193       0.81396396       0.81730009 </v>
   <v>       0.82058796       0.81673470       0.79493674 </v>
  </varray>
 </structure>
</modeling>
