potpaw_PBE@./ARUN.APL1ZEROSTATE         
           1
     0.000000   10.937334   10.937334
    10.937334    0.000000   10.937334
    10.937334   10.937334    0.000000
   Si
 128
Direct configuration=     1
   0.00549225  0.99932256  0.99442295
   0.24075440  0.99485273  0.00613374
   0.48630025  0.99573513  0.00973494
   0.74561979  0.00849832  0.99915631
   0.00942982  0.24043109  0.99179366
   0.25023188  0.24571490  0.01606191
   0.51212830  0.26133781  0.98711465
   0.76065760  0.24751639  0.99527691
   0.00753527  0.49608863  0.99174165
   0.24438806  0.50384716  0.99992883
   0.49720266  0.50319320  0.99428787
   0.76627482  0.48986843  0.99918397
   0.00021429  0.75611357  0.00654828
   0.25109858  0.74280853  0.00424226
   0.50348519  0.73973412  0.99145916
   0.75642129  0.75026069  0.99199054
   0.98334729  0.00590299  0.25937635
   0.24315504  0.00295332  0.24797467
   0.50208023  0.00842462  0.24891678
   0.75846576  0.99710068  0.25554325
   0.00902715  0.25788016  0.24142537
   0.23582976  0.25853997  0.25515329
   0.49123400  0.27163918  0.24136030
   0.75416093  0.23676649  0.24511416
   0.99235671  0.50126070  0.25719526
   0.25419354  0.50665895  0.25308728
   0.49513902  0.51178941  0.24218124
   0.75372224  0.49848242  0.24763980
   0.99305568  0.74834448  0.25222311
   0.25684894  0.74003508  0.24695103
   0.50472081  0.75397659  0.25204436
   0.74791424  0.73655460  0.25674803
   0.00202986  0.99669145  0.50112944
   0.25181030  0.00081051  0.49562699
   0.49978522  0.00470595  0.50146876
   0.74275014  0.00898951  0.49993269
   0.01467324  0.23872370  0.49139262
   0.25630619  0.25361859  0.49609849
   0.49144225  0.24038952  0.51135271
   0.74930501  0.25101191  0.50048923
   0.00116045  0.49745779  0.49326379
   0.24502441  0.50300333  0.50242849
   0.50170136  0.50752411  0.49211220
   0.74914272  0.50913345  0.49572388
   0.99345763  0.74605601  0.50164362
   0.24352793  0.74427542  0.50611369
   0.49653366  0.75598361  0.49904720
   0.75529695  0.74812771  0.49917279
   0.02112086  0.99919199  0.74869983
   0.25816642  0.99968641  0.73671312
   0.48915930  0.01321579  0.74911823
   0.74780543  0.99330402  0.75671209
   0.99650398  0.25537755  0.74229303
   0.24255846  0.25872479  0.75321758
   0.49745430  0.26071294  0.74168473
   0.75170553  0.24472457  0.75806037
   0.99258628  0.50621172  0.74928692
   0.24612263  0.49309957  0.75448688
   0.50863634  0.49517238  0.74798411
   0.74351015  0.49178543  0.75874499
   0.99758347  0.75109546  0.75194785
   0.25323226  0.75602182  0.73964439
   0.50953454  0.74693825  0.75039694
   0.75146715  0.74319296  0.75136119
   0.05865335  0.04101410  0.08001919
   0.31298931  0.06346581  0.06867168
   0.56549743  0.05807653  0.07267317
   0.80235445  0.07103493  0.06660314
   0.06591612  0.30942698  0.06142494
   0.32336198  0.30421982  0.06371844
   0.56318610  0.31537331  0.05582880
   0.81520900  0.31386199  0.05639693
   0.05642354  0.57177479  0.06694366
   0.29901095  0.56310007  0.06350812
   0.58146156  0.55593412  0.05644770
   0.81583408  0.56700406  0.05559896
   0.07085552  0.80941757  0.05891651
   0.31861767  0.80878840  0.06045297
   0.54549096  0.82808237  0.06328524
   0.81658776  0.81636806  0.05118261
   0.05880520  0.05889375  0.30990983
   0.32497335  0.06069542  0.31473475
   0.56393887  0.06331765  0.31071145
   0.81325566  0.06209448  0.31906277
   0.05543798  0.31060651  0.31533180
   0.30527225  0.30727954  0.32150464
   0.55947983  0.31470526  0.32054186
   0.82092337  0.29899901  0.31456398
   0.07082664  0.56209737  0.31745092
   0.31857395  0.56673553  0.31028077
   0.56302103  0.56383987  0.31824982
   0.80930409  0.55467411  0.32175004
   0.06550784  0.80554418  0.31304694
   0.30901107  0.81168020  0.31155977
   0.55090360  0.82936970  0.31374487
   0.80221387  0.82698948  0.31120692
   0.06173944  0.05529411  0.56514570
   0.30623889  0.06678669  0.56768324
   0.55650220  0.06267855  0.56995760
   0.81719810  0.05776363  0.56348007
   0.06629684  0.31842538  0.55676563
   0.31392968  0.30332629  0.56545841
   0.56576231  0.31738317  0.55829090
   0.80329146  0.31416002  0.56301722
   0.05662274  0.56639615  0.54735139
   0.30149672  0.56304652  0.56557261
   0.56149048  0.56221990  0.56213380
   0.81260258  0.54925812  0.58032187
   0.06771833  0.81924199  0.56179902
   0.31263450  0.82165734  0.55598677
   0.55431905  0.81420043  0.57036539
   0.81324092  0.81414793  0.56750109
   0.04384825  0.07436941  0.81336147
   0.30123265  0.05738336  0.81345951
   0.56258783  0.06683179  0.80631591
   0.81444629  0.06256237  0.80877538
   0.05843099  0.32626252  0.80607789
   0.30814423  0.30836973  0.82672900
   0.57414495  0.31237048  0.80260200
   0.81745761  0.30993049  0.80326295
   0.07236626  0.57034737  0.79742980
   0.32173373  0.56292493  0.80924647
   0.55779081  0.56496948  0.81315056
   0.81017457  0.56911856  0.81260221
   0.06593642  0.81081360  0.81158013
   0.30375187  0.82646984  0.80846021
   0.55360193  0.81396396  0.81730009
   0.82058796  0.81673470  0.79493674
