 128 128   0   0
  0.2044346E+02  0.1546773E-08  0.1546773E-08  0.1546773E-08  0.5000000E-15
  1.000000000000000E-004
  CAR 
 potpaw_PBE@./ARUN.APL1ZEROSTATE         
      9.35407100     -7.06780237  301      5.86442291      1.00000000
     -7.068  0.0000E+00  0.0000E+00
     -7.013  0.0000E+00  0.0000E+00
     -6.958  0.0000E+00  0.0000E+00
     -6.904  0.0000E+00  0.0000E+00
     -6.849  0.0000E+00  0.0000E+00
     -6.794  0.0000E+00  0.0000E+00
     -6.739  0.0000E+00  0.0000E+00
     -6.685  0.0000E+00  0.0000E+00
     -6.630  0.0000E+00  0.0000E+00
     -6.575  0.0000E+00  0.0000E+00
     -6.520  0.0000E+00  0.0000E+00
     -6.466  0.0000E+00  0.0000E+00
     -6.411  0.0000E+00  0.0000E+00
     -6.356  0.1914E-05  0.1047E-06
     -6.301  0.4556E+01  0.2494E+00
     -6.247  0.1114E-01  0.2500E+00
     -6.192  0.2037E+01  0.3615E+00
     -6.137  0.1913E+02  0.1409E+01
     -6.082  0.1547E+02  0.2256E+01
     -6.028  0.2269E+02  0.3498E+01
     -5.973  0.4610E+01  0.3750E+01
     -5.918  0.1513E-10  0.3750E+01
     -5.864  0.6832E+01  0.4124E+01
     -5.809  0.1160E+02  0.4759E+01
     -5.754  0.2038E+02  0.5874E+01
     -5.699  0.3263E+02  0.7661E+01
     -5.645  0.3025E+02  0.9317E+01
     -5.590  0.1932E+02  0.1037E+02
     -5.535  0.2347E+02  0.1166E+02
     -5.480  0.2855E+02  0.1322E+02
     -5.426  0.2088E+02  0.1436E+02
     -5.371  0.7040E+01  0.1475E+02
     -5.316  0.1321E+01  0.1482E+02
     -5.261  0.9566E+01  0.1535E+02
     -5.207  0.2529E+02  0.1673E+02
     -5.152  0.3345E+02  0.1856E+02
     -5.097  0.5056E+02  0.2133E+02
     -5.042  0.3985E+02  0.2351E+02
     -4.988  0.3571E+02  0.2547E+02
     -4.933  0.3902E+02  0.2760E+02
     -4.878  0.1331E+02  0.2833E+02
     -4.823  0.2213E+02  0.2954E+02
     -4.769  0.2000E+02  0.3064E+02
     -4.714  0.4476E+02  0.3309E+02
     -4.659  0.4452E+02  0.3552E+02
     -4.605  0.2063E+02  0.3665E+02
     -4.550  0.2420E+02  0.3798E+02
     -4.495  0.4036E+02  0.4019E+02
     -4.440  0.3660E+02  0.4219E+02
     -4.386  0.1797E+02  0.4317E+02
     -4.331  0.2840E+02  0.4473E+02
     -4.276  0.2967E+02  0.4635E+02
     -4.221  0.5254E+02  0.4923E+02
     -4.167  0.5880E+02  0.5245E+02
     -4.112  0.6747E+02  0.5614E+02
     -4.057  0.4130E+02  0.5840E+02
     -4.002  0.5835E+02  0.6160E+02
     -3.948  0.3533E+02  0.6353E+02
     -3.893  0.4858E+02  0.6619E+02
     -3.838  0.4892E+02  0.6887E+02
     -3.783  0.5459E+02  0.7185E+02
     -3.729  0.4687E+02  0.7442E+02
     -3.674  0.5178E+02  0.7725E+02
     -3.619  0.3628E+02  0.7924E+02
     -3.564  0.2767E+02  0.8075E+02
     -3.510  0.3580E+02  0.8271E+02
     -3.455  0.5570E+02  0.8576E+02
     -3.400  0.6127E+02  0.8912E+02
     -3.346  0.4667E+02  0.9167E+02
     -3.291  0.4764E+02  0.9428E+02
     -3.236  0.2510E+02  0.9565E+02
     -3.181  0.4036E+02  0.9786E+02
     -3.127  0.4424E+02  0.1003E+03
     -3.072  0.4603E+02  0.1028E+03
     -3.017  0.4733E+02  0.1054E+03
     -2.962  0.3387E+02  0.1072E+03
     -2.908  0.3132E+02  0.1090E+03
     -2.853  0.2482E+02  0.1103E+03
     -2.798  0.3548E+02  0.1123E+03
     -2.743  0.3379E+02  0.1141E+03
     -2.689  0.4027E+02  0.1163E+03
     -2.634  0.2662E+02  0.1178E+03
     -2.579  0.2836E+02  0.1193E+03
     -2.524  0.4188E+02  0.1216E+03
     -2.470  0.1560E+02  0.1225E+03
     -2.415  0.5050E+01  0.1228E+03
     -2.360  0.4566E+01  0.1230E+03
     -2.305  0.3870E+01  0.1232E+03
     -2.251  0.1288E+02  0.1239E+03
     -2.196  0.7078E+01  0.1243E+03
     -2.141  0.2772E+02  0.1258E+03
     -2.087  0.3603E+02  0.1278E+03
     -2.032  0.2617E+02  0.1292E+03
     -1.977  0.3235E+02  0.1310E+03
     -1.922  0.1285E+02  0.1317E+03
     -1.868  0.1468E+02  0.1325E+03
     -1.813  0.8924E+01  0.1330E+03
     -1.758  0.4710E+01  0.1332E+03
     -1.703  0.2976E+01  0.1334E+03
     -1.649  0.1366E+02  0.1342E+03
     -1.594  0.1777E+02  0.1351E+03
     -1.539  0.4561E+02  0.1376E+03
     -1.484  0.4858E+02  0.1403E+03
     -1.430  0.1567E+02  0.1411E+03
     -1.375  0.4509E+02  0.1436E+03
     -1.320  0.5610E+02  0.1467E+03
     -1.265  0.5268E+02  0.1496E+03
     -1.211  0.6067E+02  0.1529E+03
     -1.156  0.7013E+02  0.1567E+03
     -1.101  0.4898E+02  0.1594E+03
     -1.046  0.5804E+02  0.1626E+03
     -0.992  0.6835E+02  0.1663E+03
     -0.937  0.8171E+02  0.1708E+03
     -0.882  0.6903E+02  0.1746E+03
     -0.827  0.4537E+02  0.1771E+03
     -0.773  0.5086E+02  0.1798E+03
     -0.718  0.5938E+02  0.1831E+03
     -0.663  0.3648E+02  0.1851E+03
     -0.609  0.4290E+02  0.1874E+03
     -0.554  0.3488E+02  0.1894E+03
     -0.499  0.1603E+02  0.1902E+03
     -0.444  0.1482E+02  0.1910E+03
     -0.390  0.3567E+02  0.1930E+03
     -0.335  0.3946E+02  0.1952E+03
     -0.280  0.5428E+02  0.1981E+03
     -0.225  0.5510E+02  0.2011E+03
     -0.171  0.4054E+02  0.2034E+03
     -0.116  0.4873E+02  0.2060E+03
     -0.061  0.4196E+02  0.2083E+03
     -0.006  0.3680E+02  0.2103E+03
      0.048  0.4055E+02  0.2126E+03
      0.103  0.1910E+02  0.2136E+03
      0.158  0.2636E+01  0.2138E+03
      0.213  0.1282E+02  0.2145E+03
      0.267  0.1403E+02  0.2152E+03
      0.322  0.3012E+02  0.2169E+03
      0.377  0.3170E+02  0.2186E+03
      0.432  0.2694E+02  0.2201E+03
      0.486  0.3420E+02  0.2220E+03
      0.541  0.5586E+01  0.2223E+03
      0.596  0.2114E+02  0.2234E+03
      0.650  0.2590E+02  0.2248E+03
      0.705  0.2146E+02  0.2260E+03
      0.760  0.1961E+02  0.2271E+03
      0.815  0.3130E+01  0.2273E+03
      0.869  0.9463E+01  0.2278E+03
      0.924  0.1413E+02  0.2285E+03
      0.979  0.2283E+02  0.2298E+03
      1.034  0.2445E+02  0.2311E+03
      1.088  0.2777E+02  0.2327E+03
      1.143  0.3444E+02  0.2345E+03
      1.198  0.2341E+02  0.2358E+03
      1.253  0.3039E+02  0.2375E+03
      1.307  0.2515E+02  0.2389E+03
      1.362  0.3713E+02  0.2409E+03
      1.417  0.5737E+02  0.2440E+03
      1.472  0.6079E+02  0.2474E+03
      1.526  0.6570E+02  0.2510E+03
      1.581  0.9793E+02  0.2563E+03
      1.636  0.7727E+02  0.2605E+03
      1.691  0.6147E+02  0.2639E+03
      1.745  0.5385E+02  0.2669E+03
      1.800  0.4767E+02  0.2695E+03
      1.855  0.4040E+02  0.2717E+03
      1.909  0.2775E+02  0.2732E+03
      1.964  0.2294E+02  0.2745E+03
      2.019  0.3408E+02  0.2763E+03
      2.074  0.7617E+02  0.2805E+03
      2.128  0.8753E+02  0.2853E+03
      2.183  0.1206E+03  0.2919E+03
      2.238  0.1047E+03  0.2976E+03
      2.293  0.1130E+03  0.3038E+03
      2.347  0.1052E+03  0.3096E+03
      2.402  0.7670E+02  0.3138E+03
      2.457  0.8778E+02  0.3186E+03
      2.512  0.6100E+02  0.3219E+03
      2.566  0.2931E+02  0.3235E+03
      2.621  0.5167E+02  0.3263E+03
      2.676  0.6881E+02  0.3301E+03
      2.731  0.9034E+02  0.3350E+03
      2.785  0.9889E+02  0.3405E+03
      2.840  0.8763E+02  0.3453E+03
      2.895  0.8233E+02  0.3498E+03
      2.950  0.9467E+02  0.3549E+03
      3.004  0.9827E+02  0.3603E+03
      3.059  0.9646E+02  0.3656E+03
      3.114  0.7154E+02  0.3695E+03
      3.168  0.6772E+02  0.3732E+03
      3.223  0.8621E+02  0.3779E+03
      3.278  0.8430E+02  0.3826E+03
      3.333  0.1020E+03  0.3881E+03
      3.387  0.1071E+03  0.3940E+03
      3.442  0.7284E+02  0.3980E+03
      3.497  0.8996E+02  0.4029E+03
      3.552  0.9318E+02  0.4080E+03
      3.606  0.8292E+02  0.4126E+03
      3.661  0.7036E+02  0.4164E+03
      3.716  0.6603E+02  0.4200E+03
      3.771  0.7796E+02  0.4243E+03
      3.825  0.8469E+02  0.4289E+03
      3.880  0.8025E+02  0.4333E+03
      3.935  0.8093E+02  0.4377E+03
      3.990  0.7654E+02  0.4419E+03
      4.044  0.6805E+02  0.4457E+03
      4.099  0.5730E+02  0.4488E+03
      4.154  0.6598E+02  0.4524E+03
      4.209  0.7973E+02  0.4568E+03
      4.263  0.5431E+02  0.4597E+03
      4.318  0.6840E+02  0.4635E+03
      4.373  0.6513E+02  0.4671E+03
      4.428  0.7413E+02  0.4711E+03
      4.482  0.8257E+02  0.4756E+03
      4.537  0.4077E+02  0.4779E+03
      4.592  0.8148E+02  0.4823E+03
      4.646  0.6320E+02  0.4858E+03
      4.701  0.4686E+02  0.4883E+03
      4.756  0.3478E+02  0.4903E+03
      4.811  0.2915E+02  0.4918E+03
      4.865  0.2195E+02  0.4931E+03
      4.920  0.2401E+02  0.4944E+03
      4.975  0.3888E+02  0.4965E+03
      5.030  0.5082E+02  0.4993E+03
      5.084  0.4657E+02  0.5018E+03
      5.139  0.2008E+02  0.5029E+03
      5.194  0.1123E+02  0.5035E+03
      5.249  0.1301E+02  0.5042E+03
      5.303  0.1087E+01  0.5043E+03
      5.358  0.8894E+01  0.5048E+03
      5.413  0.2290E+02  0.5060E+03
      5.468  0.2594E+02  0.5075E+03
      5.522  0.1218E+02  0.5081E+03
      5.577  0.1602E+02  0.5090E+03
      5.632  0.3443E+02  0.5109E+03
      5.687  0.6422E+01  0.5112E+03
      5.741  0.4764E-02  0.5113E+03
      5.796  0.9204E+01  0.5118E+03
      5.851  0.4496E+01  0.5120E+03
      5.905  0.0000E+00  0.5120E+03
      5.960  0.0000E+00  0.5120E+03
      6.015  0.0000E+00  0.5120E+03
      6.070  0.4364E-08  0.5120E+03
      6.124  0.7736E+01  0.5124E+03
      6.179  0.2227E+02  0.5136E+03
      6.234  0.1647E+02  0.5145E+03
      6.289  0.8802E+01  0.5150E+03
      6.343  0.2713E+02  0.5165E+03
      6.398  0.2402E+02  0.5178E+03
      6.453  0.1293E+02  0.5185E+03
      6.508  0.2837E+02  0.5201E+03
      6.562  0.2130E+02  0.5213E+03
      6.617  0.1798E+02  0.5222E+03
      6.672  0.1399E+02  0.5230E+03
      6.727  0.2844E+02  0.5246E+03
      6.781  0.3213E+02  0.5263E+03
      6.836  0.3273E+02  0.5281E+03
      6.891  0.3622E+02  0.5301E+03
      6.946  0.3872E+02  0.5322E+03
      7.000  0.4040E+02  0.5344E+03
      7.055  0.4709E+02  0.5370E+03
      7.110  0.2656E+02  0.5385E+03
      7.164  0.3211E+02  0.5402E+03
      7.219  0.4226E+02  0.5425E+03
      7.274  0.5156E+02  0.5453E+03
      7.329  0.7155E+02  0.5493E+03
      7.383  0.7992E+02  0.5536E+03
      7.438  0.8062E+02  0.5581E+03
      7.493  0.9443E+02  0.5632E+03
      7.548  0.8035E+02  0.5676E+03
      7.602  0.8671E+02  0.5724E+03
      7.657  0.7687E+02  0.5766E+03
      7.712  0.8873E+02  0.5814E+03
      7.767  0.7930E+02  0.5858E+03
      7.821  0.8138E+02  0.5902E+03
      7.876  0.9727E+02  0.5956E+03
      7.931  0.9489E+02  0.6007E+03
      7.986  0.1064E+03  0.6066E+03
      8.040  0.9495E+02  0.6118E+03
      8.095  0.6798E+02  0.6155E+03
      8.150  0.7760E+02  0.6197E+03
      8.205  0.8916E+02  0.6246E+03
      8.259  0.8973E+02  0.6295E+03
      8.314  0.7450E+02  0.6336E+03
      8.369  0.8820E+02  0.6384E+03
      8.423  0.6582E+02  0.6420E+03
      8.478  0.2573E+02  0.6434E+03
      8.533  0.5518E+01  0.6437E+03
      8.588  0.1114E-01  0.6438E+03
      8.642  0.4556E+01  0.6440E+03
      8.697  0.0000E+00  0.6440E+03
      8.752  0.0000E+00  0.6440E+03
      8.807  0.0000E+00  0.6440E+03
      8.861  0.0000E+00  0.6440E+03
      8.916  0.0000E+00  0.6440E+03
      8.971  0.0000E+00  0.6440E+03
      9.026  0.0000E+00  0.6440E+03
      9.080  0.0000E+00  0.6440E+03
      9.135  0.0000E+00  0.6440E+03
      9.190  0.0000E+00  0.6440E+03
      9.245  0.0000E+00  0.6440E+03
      9.299  0.0000E+00  0.6440E+03
      9.354  0.0000E+00  0.6440E+03
