 vasp.5.4.4.18Apr17-6-g9f103f2a35 (build Nov 08 2017 09:05:29) complex          
  
 executed on          Intel_17.33 date 2020.07.18  22:11:31
 running on   32 total cores
 distrk:  each k-point on   32 cores,    1 groups
 distr:  one band on NCORES_PER_BAND=  16 cores,    2 groups


--------------------------------------------------------------------------------------------------------


 INCAR:
 POTCAR:   PAW_PBE Si 05Jan2001                   

 ----------------------------------------------------------------------------- 
|                                                                             |
|           W    W    AA    RRRRR   N    N  II  N    N   GGGG   !!!           |
|           W    W   A  A   R    R  NN   N  II  NN   N  G    G  !!!           |
|           W    W  A    A  R    R  N N  N  II  N N  N  G       !!!           |
|           W WW W  AAAAAA  RRRRR   N  N N  II  N  N N  G  GGG   !            |
|           WW  WW  A    A  R   R   N   NN  II  N   NN  G    G                |
|           W    W  A    A  R    R  N    N  II  N    N   GGGG   !!!           |
|                                                                             |
|      For optimal performance we recommend to set                            |
|        NCORE= 4 - approx SQRT( number of cores)                             |
|      NCORE specifies how many cores store one orbital (NPAR=cpu/NCORE).     |
|      This setting can  greatly improve the performance of VASP for DFT.     |
|      The default,   NCORE=1            might be grossly inefficient         |
|      on modern multi-core architectures or massively parallel machines.     |
|      Do your own testing !!!!                                               |
|      Unfortunately you need to use the default for GW and RPA calculations. |
|      (for HF NCORE is supported but not extensively tested yet)             |
|                                                                             |
 ----------------------------------------------------------------------------- 

 POTCAR:   PAW_PBE Si 05Jan2001                   
   VRHFIN =Si: s2p2                                                             
   LEXCH  = PE                                                                  
   EATOM  =   103.0669 eV,    7.5752 Ry                                         
                                                                                
   TITEL  = PAW_PBE Si 05Jan2001                                                
   LULTRA =        F    use ultrasoft PP ?                                      
   IUNSCR =        1    unscreen: 0-lin 1-nonlin 2-no                           
   RPACOR =    1.500    partial core radius                                     
   POMASS =   28.085; ZVAL   =    4.000    mass and valenz                      
   RCORE  =    1.900    outmost cutoff radius                                   
   RWIGS  =    2.480; RWIGS  =    1.312    wigner-seitz radius (au A)           
   ENMAX  =  245.345; ENMIN  =  184.009 eV                                      
   ICORE  =        2    local potential                                         
   LCOR   =        T    correct aug charges                                     
   LPAW   =        T    paw PP                                                  
   EAUG   =  322.069                                                            
   DEXC   =    -.007                                                            
   RMAX   =    2.944    core radius for proj-oper                               
   RAUG   =    1.300    factor for augmentation sphere                          
   RDEP   =    1.993    radius for radial grids                                 
   QCUT   =   -4.246; QGAM   =    8.493    optimization parameters              
                                                                                
   Description                                                                  
     l     E      TYP  RCUT    TYP  RCUT                                        
     0   .000     23  1.900                                                     
     0   .000     23  1.900                                                     
     1   .000     23  1.900                                                     
     1   .000     23  1.900                                                     
     2   .000      7  1.900                                                     
  local pseudopotential read in
  partial core-charges read in
  atomic valenz-charges read in
  non local Contribution for L=           0  read in
    real space projection operators read in
  non local Contribution for L=           0  read in
    real space projection operators read in
  non local Contribution for L=           1  read in
    real space projection operators read in
  non local Contribution for L=           1  read in
    real space projection operators read in
    PAW grid and wavefunctions read in
 
   number of l-projection  operators is LMAX  =           4
   number of lm-projection operators is LMMAX =           8
 

 ----------------------------------------------------------------------------- 
|                                                                             |
|  ADVICE TO THIS USER RUNNING 'VASP/VAMP'   (HEAR YOUR MASTER'S VOICE ...):  |
|                                                                             |
|      You have a (more or less) 'large supercell' and for larger cells       |
|      it might be more efficient to use real space projection operators      |
|      So try LREAL= Auto  in the INCAR   file.                               |
|      Mind: If you want to do a very accurate calculations keep the          |
|      reciprocal projection scheme          (i.e. LREAL=.FALSE.)             |
|                                                                             |
 ----------------------------------------------------------------------------- 

 PAW_PBE Si 05Jan2001                   :
 energy of atom  1       EATOM= -103.0669
 kinetic energy error for atom=    0.0006 (will be added to EATOM!!)
 
 
 POSCAR: kk                                      
  positions in direct lattice
  No initial velocities read in
 exchange correlation table for  LEXCH =        8
   RHO(1)=    0.500       N(1)  =     2000
   RHO(2)=  100.500       N(2)  =     4000
 


--------------------------------------------------------------------------------------------------------


 ion  position               nearest neighbor table
   1  0.989  0.007  0.996- 113 2.31  68 2.40  77 2.51  65 2.51
   2  0.243  0.002  0.005-  65 2.30  66 2.35 114 2.37  78 2.43
   3  0.501  0.997  0.012-  67 2.26 115 2.47  66 2.49  79 2.53
   4  0.760  0.991  0.002-  68 2.19  80 2.22 116 2.34  67 2.39
   5  0.999  0.245  0.009-  72 2.24  69 2.26  65 2.27 117 2.55
   6  0.259  0.242  0.006-  66 2.15  70 2.22 118 2.45  69 2.46
   7  0.504  0.240  0.002-  67 2.38 119 2.49  70 2.51  71 2.57
   8  0.753  0.247  0.988- 120 2.27  71 2.28  68 2.34  72 2.53
   9  0.999  0.499  0.006-  73 2.26  76 2.30  69 2.44 121 2.52
  10  0.258  0.509  0.999-  74 2.28 122 2.30  70 2.52  73 2.60
  11  0.501  0.518  0.988- 123 2.10  75 2.45  74 2.47  71 2.62
  12  0.747  0.491  0.008-  72 2.20  75 2.38 124 2.48  76 2.49
  13  0.006  0.745  0.005-  73 2.22  77 2.23  80 2.46 125 2.47
  14  0.252  0.754  0.005-  78 2.19  74 2.28  77 2.35 126 2.48
  15  0.503  0.747  0.999-  75 2.21  79 2.23 127 2.40  78 2.53
  16  0.746  0.750  0.007-  80 2.31  79 2.33  76 2.39 128 2.59
  17  0.003  0.005  0.238-  65 2.20  81 2.28  93 2.38  84 2.44
  18  0.265  0.993  0.239-  66 2.30  94 2.32  82 2.37  81 2.64
  19  0.488  0.010  0.245-  82 2.22  67 2.29  95 2.52  83 2.54
  20  0.743  0.004  0.244-  68 2.28  83 2.34  84 2.36  96 2.47
  21  0.003  0.242  0.262-  85 2.27  81 2.31  88 2.41  69 2.54
  22  0.243  0.248  0.261-  85 2.30  86 2.31  82 2.35  70 2.48
  23  0.495  0.264  0.237-  71 2.20  83 2.38  87 2.48  86 2.49
  24  0.740  0.251  0.248-  87 2.27  84 2.37  88 2.39  72 2.57
  25  0.996  0.500  0.246-  92 2.27  85 2.29  73 2.33  89 2.34
  26  0.262  0.496  0.256-  86 2.20  90 2.23  74 2.41  89 2.46
  27  0.503  0.498  0.249-  87 2.23  75 2.30  90 2.38  91 2.40
  28  0.741  0.501  0.254-  91 2.36  76 2.39  88 2.41  92 2.55
  29  0.001  0.758  0.250-  93 2.31  96 2.35  77 2.43  89 2.65
  30  0.256  0.751  0.252-  78 2.30  94 2.30  90 2.37  93 2.41
  31  0.502  0.749  0.246-  79 2.29  94 2.30  91 2.33  95 2.40
  32  0.745  0.758  0.241-  95 2.27  80 2.30  92 2.37  96 2.52
  33  0.998  0.995  0.499- 100 2.26 109 2.33  81 2.39  97 2.43
  34  0.254  0.997  0.505-  98 2.25 110 2.47  82 2.47  97 2.76
  35  0.494  0.998  0.502- 111 2.28  98 2.30  83 2.42  99 2.43
  36  0.746  0.002  0.512- 100 2.26  99 2.44 112 2.47  84 2.62
  37  0.999  0.249  0.481-  85 2.23  97 2.24 104 2.42 101 2.51
  38  0.259  0.252  0.493-  86 2.30 102 2.34 101 2.52  98 2.55
  39  0.495  0.266  0.491-  87 2.29 102 2.33 103 2.36  99 2.45
  40  0.754  0.264  0.487-  88 2.32 103 2.44 104 2.46 100 2.62
  41  0.990  0.499  0.500- 108 2.25 105 2.36  89 2.42 101 2.42
  42  0.250  0.509  0.484-  90 2.18 106 2.42 105 2.44 102 2.59
  43  0.509  0.504  0.497- 107 2.14  91 2.24 103 2.44 106 2.48
  44  0.753  0.496  0.505- 104 2.19  92 2.47 108 2.54 107 2.57
  45  0.995  0.751  0.499- 109 2.35  93 2.40 112 2.41 105 2.43
  46  0.248  0.755  0.499- 110 2.33 106 2.36  94 2.39 109 2.39
  47  0.502  0.750  0.495- 110 2.23  95 2.33 107 2.39 111 2.42
  48  0.732  0.763  0.500- 111 2.25  96 2.31 112 2.36 108 2.50
  49  0.992  0.997  0.750-  97 2.26 116 2.33 125 2.36 113 2.54
  50  0.246  0.995  0.749-  98 2.24 126 2.30 113 2.34 114 2.38
  51  0.495  0.007  0.745-  99 2.33 115 2.48 127 2.49 114 2.49
  52  0.754  0.996  0.750- 128 2.28 115 2.32 100 2.36 116 2.39
  53  0.996  0.248  0.764- 120 2.29 113 2.30 117 2.37 101 2.57
  54  0.241  0.258  0.745- 102 2.21 117 2.36 118 2.45 114 2.48
  55  0.497  0.249  0.753- 119 2.38 103 2.38 118 2.39 115 2.44
  56  0.744  0.262  0.754- 119 2.38 104 2.39 120 2.41 116 2.50
  57  0.993  0.511  0.748- 117 2.27 121 2.30 124 2.31 105 2.40
  58  0.246  0.498  0.757- 121 2.26 118 2.27 122 2.34 106 2.58
  59  0.493  0.505  0.758- 119 2.28 122 2.32 123 2.40 107 2.43
  60  0.743  0.497  0.751- 120 2.19 108 2.26 123 2.42 124 2.51
  61  0.007  0.754  0.739- 109 2.25 125 2.32 128 2.36 121 2.47
  62  0.254  0.747  0.751- 126 2.33 122 2.38 125 2.40 110 2.43
  63  0.491  0.755  0.749- 126 2.24 111 2.30 123 2.32 127 2.46
  64  0.751  0.748  0.761- 128 2.27 124 2.28 127 2.29 112 2.43
  65  0.061  0.065  0.064-  17 2.20   5 2.27   2 2.30   1 2.51
  66  0.305  0.072  0.059-   6 2.15  18 2.30   2 2.35   3 2.49
  67  0.571  0.052  0.066-   3 2.26  19 2.29   7 2.38   4 2.39
  68  0.799  0.062  0.064-   4 2.19  20 2.28   8 2.34   1 2.40
  69  0.065  0.306  0.061-   5 2.26   9 2.44   6 2.46  21 2.54
  70  0.306  0.311  0.065-   6 2.22  22 2.48   7 2.51  10 2.52
  71  0.574  0.311  0.065-  23 2.20   8 2.28   7 2.57  11 2.62
  72  0.823  0.318  0.046-  12 2.20   5 2.24   8 2.53  24 2.57
  73  0.053  0.569  0.061-  13 2.22   9 2.26  25 2.33  10 2.60
  74  0.307  0.573  0.066-  14 2.28  10 2.28  26 2.41  11 2.47
  75  0.560  0.572  0.068-  15 2.21  27 2.30  12 2.38  11 2.45
  76  0.817  0.561  0.065-   9 2.30  16 2.39  28 2.39  12 2.49
  77  0.066  0.809  0.058-  13 2.23  14 2.35  29 2.43   1 2.51
  78  0.303  0.809  0.071-  14 2.19  30 2.30   2 2.43  15 2.53
  79  0.562  0.798  0.065-  15 2.23  31 2.29  16 2.33   3 2.53
  80  0.812  0.815  0.059-   4 2.22  32 2.30  16 2.31  13 2.46
  81  0.056  0.060  0.310-  17 2.28  21 2.31  33 2.39  18 2.64
  82  0.313  0.062  0.310-  19 2.22  22 2.35  18 2.37  34 2.47
  83  0.559  0.076  0.310-  20 2.34  23 2.38  35 2.42  19 2.54
  84  0.810  0.063  0.305-  20 2.36  24 2.37  17 2.44  36 2.62
  85  0.061  0.319  0.305-  37 2.23  21 2.27  25 2.29  22 2.30
  86  0.298  0.324  0.313-  26 2.20  38 2.30  22 2.31  23 2.49
  87  0.561  0.321  0.309-  27 2.23  24 2.27  39 2.29  23 2.48
  88  0.814  0.310  0.304-  40 2.32  24 2.39  21 2.41  28 2.41
  89  0.069  0.548  0.309-  25 2.34  41 2.42  26 2.46  29 2.65
  90  0.314  0.564  0.312-  42 2.18  26 2.23  30 2.37  27 2.38
  91  0.555  0.566  0.320-  43 2.24  31 2.33  28 2.36  27 2.40
  92  0.816  0.571  0.310-  25 2.27  32 2.37  44 2.47  28 2.55
  93  0.065  0.817  0.309-  29 2.31  17 2.38  45 2.40  30 2.41
  94  0.321  0.810  0.311-  30 2.30  31 2.30  18 2.32  46 2.39
  95  0.566  0.811  0.310-  32 2.27  47 2.33  31 2.40  19 2.52
  96  0.815  0.810  0.319-  48 2.31  29 2.35  20 2.47  32 2.52
  97  0.036  0.075  0.572-  37 2.24  49 2.26  33 2.43  34 2.76
  98  0.312  0.051  0.572-  50 2.24  34 2.25  35 2.30  38 2.55
  99  0.554  0.072  0.560-  51 2.33  35 2.43  36 2.44  39 2.45
 100  0.819  0.056  0.563-  36 2.26  33 2.26  52 2.36  40 2.62
 101  0.060  0.307  0.561-  41 2.42  37 2.51  38 2.52  53 2.57
 102  0.313  0.305  0.571-  54 2.21  39 2.33  38 2.34  42 2.59
 103  0.562  0.312  0.565-  39 2.36  55 2.38  40 2.44  43 2.44
 104  0.811  0.323  0.565-  44 2.19  56 2.39  37 2.42  40 2.46
 105  0.057  0.559  0.559-  41 2.36  57 2.40  45 2.43  42 2.44
 106  0.313  0.569  0.553-  46 2.36  42 2.42  43 2.48  58 2.58
 107  0.550  0.561  0.567-  43 2.14  47 2.39  59 2.43  44 2.57
 108  0.814  0.567  0.574-  41 2.25  60 2.26  48 2.50  44 2.54
 109  0.058  0.811  0.561-  61 2.25  33 2.33  45 2.35  46 2.39
 110  0.325  0.803  0.558-  47 2.23  46 2.33  62 2.43  34 2.47
 111  0.554  0.818  0.567-  48 2.25  35 2.28  63 2.30  47 2.42
 112  0.805  0.807  0.569-  48 2.36  45 2.41  64 2.43  36 2.47
 113  0.061  0.066  0.813-  53 2.30   1 2.31  50 2.34  49 2.54
 114  0.298  0.062  0.818-   2 2.37  50 2.38  54 2.48  51 2.49
 115  0.570  0.055  0.816-  52 2.32  55 2.44   3 2.47  51 2.48
 116  0.808  0.064  0.817-  49 2.33   4 2.34  52 2.39  56 2.50
 117  0.055  0.331  0.808-  57 2.27  54 2.36  53 2.37   5 2.55
 118  0.308  0.318  0.812-  58 2.27  55 2.39  54 2.45   6 2.45
 119  0.556  0.324  0.806-  59 2.28  55 2.38  56 2.38   7 2.49
 120  0.816  0.325  0.810-  60 2.19   8 2.27  53 2.29  56 2.41
 121  0.068  0.559  0.807-  58 2.26  57 2.30  61 2.47   9 2.52
 122  0.310  0.558  0.818-  10 2.30  59 2.32  58 2.34  62 2.38
 123  0.553  0.572  0.822-  11 2.10  63 2.32  59 2.40  60 2.42
 124  0.810  0.567  0.812-  64 2.28  57 2.31  12 2.48  60 2.51
 125  0.064  0.810  0.810-  61 2.32  49 2.36  62 2.40  13 2.47
 126  0.314  0.813  0.809-  63 2.24  50 2.30  62 2.33  14 2.48
 127  0.570  0.810  0.809-  64 2.29  15 2.40  63 2.46  51 2.49
 128  0.821  0.815  0.803-  64 2.27  52 2.28  61 2.36  16 2.59
 
  LATTYP: Found a face centered cubic cell.
 ALAT       =    21.8746673814
  
  Lattice vectors:
  
 A1 = (   0.0000000000,  10.9373336907,  10.9373336907)
 A2 = (  10.9373336907,   0.0000000000,  10.9373336907)
 A3 = (  10.9373336907,  10.9373336907,   0.0000000000)


Analysis of symmetry for initial positions (statically):
=====================================================================
 Subroutine PRICEL returns:
 Original cell was already a primitive cell.
 

 Routine SETGRP: Setting up the symmetry group for a 
 face centered cubic supercell.


 Subroutine GETGRP returns: Found  1 space group operations
 (whereof  1 operations were pure point group operations)
 out of a pool of 48 trial point group operations.


The static configuration has the point symmetry C_1 .


Analysis of symmetry for dynamics (positions and initial velocities):
=====================================================================
 Subroutine PRICEL returns:
 Original cell was already a primitive cell.
 

 Routine SETGRP: Setting up the symmetry group for a 
 face centered cubic supercell.


 Subroutine GETGRP returns: Found  1 space group operations
 (whereof  1 operations were pure point group operations)
 out of a pool of 48 trial point group operations.


The dynamic configuration has the point symmetry C_1 .


 Subroutine INISYM returns: Found  1 space group operations
 (whereof  1 operations are pure point group operations),
 and found     1 'primitive' translations

 
 
 KPOINTS: KPOINTS File, automatically generated by

Automatic generation of k-mesh.
Space group operators:
 irot       det(A)        alpha          n_x          n_y          n_z        tau_x        tau_y        tau_z
    1     1.000000     0.000001     1.000000     0.000000     0.000000     0.000000     0.000000     0.000000
 
 Subroutine IBZKPT returns following result:
 ===========================================
 
 Found      8 irreducible k-points:
 
 Following reciprocal coordinates:
            Coordinates               Weight
  0.000000  0.000000  0.000000      1.000000
  0.500000  0.000000  0.000000      1.000000
  0.000000  0.500000  0.000000      1.000000
  0.500000  0.500000  0.000000      1.000000
  0.000000  0.000000  0.500000      1.000000
  0.500000  0.000000  0.500000      1.000000
  0.000000  0.500000  0.500000      1.000000
  0.500000  0.500000  0.500000      1.000000
 
 Following cartesian coordinates:
            Coordinates               Weight
  0.000000  0.000000  0.000000      1.000000
 -0.022857  0.022857  0.022857      1.000000
  0.022857 -0.022857  0.022857      1.000000
  0.000000  0.000000  0.045715      1.000000
  0.022857  0.022857 -0.022857      1.000000
  0.000000  0.045715  0.000000      1.000000
  0.045715  0.000000  0.000000      1.000000
  0.022857  0.022857  0.022857      1.000000
 


--------------------------------------------------------------------------------------------------------




 Dimension of arrays:
   k-points           NKPTS =      8   k-points in BZ     NKDIM =      8   number of bands    NBANDS=    322
   number of dos      NEDOS =    301   number of ions     NIONS =    128
   non local maximal  LDIM  =      4   non local SUM 2l+1 LMDIM =      8
   total plane-waves  NPLWV = ******
   max r-space proj   IRMAX =      1   max aug-charges    IRDMAX= 176811
   dimension x,y,z NGX =   120 NGY =  120 NGZ =  120
   dimension x,y,z NGXF=   240 NGYF=  240 NGZF=  240
   support grid    NGXF=   480 NGYF=  480 NGZF=  480
   ions per type =             128
   NGX,Y,Z   is equivalent  to a cutoff of  12.90, 12.90, 12.90 a.u.
   NGXF,Y,Z  is equivalent  to a cutoff of  25.80, 25.80, 25.80 a.u.

 SYSTEM =  potpaw_PBE@./ARUN.APL1ZEROSTATE         
 POSCAR =  kk                                      

 Startparameter for this run:
   NWRITE =      2    write-flag & timer
   PREC   = accura    normal or accurate (medium, high low for compatibility)
   ISTART =      0    job   : 0-new  1-cont  2-samecut
   ICHARG =      2    charge: 1-file 2-atom 10-const
   ISPIN  =      1    spin polarized calculation?
   LNONCOLLINEAR =      F non collinear calculations
   LSORBIT =      F    spin-orbit coupling
   INIWAV =      1    electr: 0-lowe 1-rand  2-diag
   LASPH  =      F    aspherical Exc in radial PAW
   METAGGA=      F    non-selfconsistent MetaGGA calc.

 Electronic Relaxation 1
   ENCUT  =  500.0 eV  36.75 Ry    6.06 a.u.  28.20 28.20 28.20*2*pi/ulx,y,z
   ENINI  =  500.0     initial cutoff
   ENAUG  =  322.1 eV  augmentation charge cutoff
   NELM   =    120;   NELMIN=  4; NELMDL= -5     # of ELM steps 
   EDIFF  = 0.1E-07   stopping-criterion for ELM
   LREAL  =      F    real-space projection
   NLSPLINE    = F    spline interpolate recip. space projectors
   LCOMPAT=      F    compatible to vasp.4.4
   GGA_COMPAT  = T    GGA compatible to vasp.4.4-vasp.4.6
   LMAXPAW     = -100 max onsite density
   LMAXMIX     =    2 max onsite mixed and CHGCAR
   VOSKOWN=      0    Vosko Wilk Nusair interpolation
   ROPT   =    0.00000
 Ionic relaxation
   EDIFFG = 0.1E-06   stopping-criterion for IOM
   NSW    =      0    number of steps for IOM
   NBLOCK =      1;   KBLOCK =      1    inner block; outer block 
   IBRION =     -1    ionic relax: 0-MD 1-quasi-New 2-CG
   NFREE  =      0    steps in history (QN), initial steepest desc. (CG)
   ISIF   =      2    stress and relaxation
   IWAVPR =     10    prediction:  0-non 1-charg 2-wave 3-comb
   ISYM   =      2    0-nonsym 1-usesym 2-fastsym
   LCORR  =      T    Harris-Foulkes like correction to forces

   POTIM  = 0.5000    time-step for ionic-motion
   TEIN   =    0.0    initial temperature
   TEBEG  =    0.0;   TEEND  =   0.0 temperature during run
   SMASS  =  -3.00    Nose mass-parameter (am)
   estimated Nose-frequenzy (Omega)   =  0.10E-29 period in steps =****** mass=  -0.547E-26a.u.
   SCALEE = 1.0000    scale energy and forces
   NPACO  =    256;   APACO  = 16.0  distance and # of slots for P.C.
   PSTRESS=    0.0 pullay stress

  Mass of Ions in am
   POMASS =  28.09
  Ionic Valenz
   ZVAL   =   4.00
  Atomic Wigner-Seitz radii
   RWIGS  =  -1.00
  virtual crystal weights 
   VCA    =   1.00
   NELECT =     512.0000    total number of electrons
   NUPDOWN=      -1.0000    fix difference up-down

 DOS related values:
   EMIN   =  10.00;   EMAX   =-10.00  energy-range for DOS
   EFERMI =   0.00
   ISMEAR =     0;   SIGMA  =   0.01  broadening in eV -4-tet -1-fermi 0-gaus

 Electronic relaxation 2 (details)
   IALGO  =     38    algorithm
   LDIAG  =      T    sub-space diagonalisation (order eigenvalues)
   LSUBROT=      F    optimize rotation matrix (better conditioning)
   TURBO    =      0    0=normal 1=particle mesh
   IRESTART =      0    0=no restart 2=restart with 2 vectors
   NREBOOT  =      0    no. of reboots
   NMIN     =      0    reboot dimension
   EREF     =   0.00    reference energy to select bands
   IMIX   =      4    mixing-type and parameters
     AMIX     =   0.40;   BMIX     =  1.00
     AMIX_MAG =   1.60;   BMIX_MAG =  1.00
     AMIN     =   0.10
     WC   =   100.;   INIMIX=   1;  MIXPRE=   1;  MAXMIX= -45

 Intra band minimization:
   WEIMIN = 0.0000     energy-eigenvalue tresh-hold
   EBREAK =  0.78E-11  absolut break condition
   DEPER  =   0.30     relativ break condition  

   TIME   =   0.40     timestep for ELM

  volume/ion in A,a.u.               =      20.44       137.96
  Fermi-wavevector in a.u.,A,eV,Ry     =   0.950408  1.796010 12.289804  0.903275
  Thomas-Fermi vector in A             =   2.078782
 
 Write flags
   LWAVE        =      F    write WAVECAR
   LDOWNSAMPLE  =      F    k-point downsampling of WAVECAR
   LCHARG       =      F    write CHGCAR
   LVTOT        =      F    write LOCPOT, total local potential
   LVHAR        =      F    write LOCPOT, Hartree potential only
   LELF         =      F    write electronic localiz. function (ELF)
   LORBIT       =      0    0 simple, 1 ext, 2 COOP (PROOUT), +10 PAW based schemes


 Dipole corrections
   LMONO  =      F    monopole corrections only (constant potential shift)
   LDIPOL =      F    correct potential (dipole corrections)
   IDIPOL =      0    1-x, 2-y, 3-z, 4-all directions 
   EPSILON=  1.0000000 bulk dielectric constant

 Exchange correlation treatment:
   GGA     =    --    GGA type
   LEXCH   =     8    internal setting for exchange type
   VOSKOWN=      0    Vosko Wilk Nusair interpolation
   LHFCALC =     F    Hartree Fock is set to
   LHFONE  =     F    Hartree Fock one center treatment
   AEXX    =    0.0000 exact exchange contribution

 Linear response parameters
   LEPSILON=     F    determine dielectric tensor
   LRPA    =     F    only Hartree local field effects (RPA)
   LNABLA  =     F    use nabla operator in PAW spheres
   LVEL    =     F    velocity operator in full k-point grid
   LINTERFAST=   F  fast interpolation
   KINTER  =     0    interpolate to denser k-point grid
   CSHIFT  =0.1000    complex shift for real part using Kramers Kronig
   OMEGAMAX=  -1.0    maximum frequency
   DEG_THRESHOLD= 0.2000000E-02 threshold for treating states as degnerate
   RTIME   =   -0.100 relaxation time in fs
  (WPLASMAI=    0.000 imaginary part of plasma frequency in eV, 0.658/RTIME)
   DFIELD  = 0.0000000 0.0000000 0.0000000 field for delta impulse in time
 
 Orbital magnetization related:
   ORBITALMAG=     F  switch on orbital magnetization
   LCHIMAG   =     F  perturbation theory with respect to B field
   DQ        =  0.001000  dq finite difference perturbation B field
   LLRAUG    =     F  two centre corrections for induced B field



--------------------------------------------------------------------------------------------------------


 Static calculation
 charge density and potential will be updated during run
 non-spin polarized calculation
 Variant of blocked Davidson
 Davidson routine will perform the subspace rotation
 perform sub-space diagonalisation
    after iterative eigenvector-optimisation
 modified Broyden-mixing scheme, WC =      100.0
 initial mixing is a Kerker type mixing with AMIX =  0.4000 and BMIX =      1.0000
 Hartree-type preconditioning will be used
 using additional bands           66
 reciprocal scheme for non local part
 use partial core corrections
 calculate Harris-corrections to forces 
   (improved forces if not selfconsistent)
 use gradient corrections 
 use of overlap-Matrix (Vanderbilt PP)
 Gauss-broadening in eV      SIGMA  =   0.01


--------------------------------------------------------------------------------------------------------


  energy-cutoff  :      500.00
  volume of cell :     2616.76
      direct lattice vectors                 reciprocal lattice vectors
     0.000000000 10.937333691 10.937333691    -0.045714981  0.045714981  0.045714981
    10.937333691  0.000000000 10.937333691     0.045714981 -0.045714981  0.045714981
    10.937333691 10.937333691  0.000000000     0.045714981  0.045714981 -0.045714981

  length of vectors
    15.467725642 15.467725642 15.467725642     0.079180669  0.079180669  0.079180669


 
 k-points in units of 2pi/SCALE and weight: KPOINTS File, automatically generated by
   0.00000000  0.00000000  0.00000000       0.125
  -0.02285749  0.02285749  0.02285749       0.125
   0.02285749 -0.02285749  0.02285749       0.125
   0.00000000  0.00000000  0.04571498       0.125
   0.02285749  0.02285749 -0.02285749       0.125
   0.00000000  0.04571498  0.00000000       0.125
   0.04571498  0.00000000  0.00000000       0.125
   0.02285749  0.02285749  0.02285749       0.125
 
 k-points in reciprocal lattice and weights: KPOINTS File, automatically generated by
   0.00000000  0.00000000  0.00000000       0.125
   0.50000000  0.00000000  0.00000000       0.125
   0.00000000  0.50000000  0.00000000       0.125
   0.50000000  0.50000000  0.00000000       0.125
   0.00000000  0.00000000  0.50000000       0.125
   0.50000000  0.00000000  0.50000000       0.125
   0.00000000  0.50000000  0.50000000       0.125
   0.50000000  0.50000000  0.50000000       0.125
 
 position of ions in fractional coordinates (direct lattice) 
   0.98907265  0.00659711  0.99571844
   0.24304128  0.00154893  0.00470141
   0.50061550  0.99714309  0.01172246
   0.76004232  0.99059962  0.00186037
   0.99923696  0.24498271  0.00918543
   0.25905375  0.24169119  0.00566855
   0.50446579  0.24000192  0.00214367
   0.75275648  0.24669606  0.98791387
   0.99895519  0.49945272  0.00639544
   0.25843390  0.50865939  0.99884679
   0.50117692  0.51847886  0.98778775
   0.74733854  0.49054614  0.00802796
   0.00617531  0.74450974  0.00516753
   0.25173434  0.75404943  0.00462155
   0.50318700  0.74669851  0.99893747
   0.74576740  0.75031758  0.00722293
   0.00270467  0.00488639  0.23837294
   0.26537882  0.99320293  0.23941041
   0.48817799  0.01028805  0.24529421
   0.74316671  0.00432806  0.24443043
   0.00330370  0.24176923  0.26177153
   0.24272971  0.24769407  0.26120283
   0.49487609  0.26360806  0.23711272
   0.74038232  0.25090833  0.24831260
   0.99550677  0.49989322  0.24599910
   0.26199630  0.49565904  0.25557428
   0.50280236  0.49782578  0.24938332
   0.74140520  0.50084237  0.25427739
   0.00087271  0.75753499  0.24962421
   0.25585792  0.75098729  0.25216126
   0.50245451  0.74930487  0.24575605
   0.74534453  0.75801022  0.24114916
   0.99805022  0.99530706  0.49907598
   0.25440948  0.99733868  0.50536718
   0.49429259  0.99808438  0.50158363
   0.74618625  0.00167074  0.51211008
   0.99934105  0.24865963  0.48119277
   0.25900573  0.25180152  0.49319572
   0.49536478  0.26619648  0.49062095
   0.75383404  0.26381609  0.48706946
   0.99043327  0.49867026  0.49996887
   0.24997077  0.50904005  0.48435146
   0.50900723  0.50422722  0.49662545
   0.75307770  0.49620380  0.50487632
   0.99518937  0.75098033  0.49893821
   0.24779935  0.75529200  0.49936282
   0.50178081  0.74996920  0.49485400
   0.73161786  0.76284501  0.49971008
   0.99212332  0.99665840  0.75006693
   0.24566973  0.99506878  0.74910346
   0.49546562  0.00678873  0.74456521
   0.75426269  0.99569969  0.75017972
   0.99602837  0.24779029  0.76384027
   0.24083671  0.25813722  0.74544689
   0.49693373  0.24861818  0.75311798
   0.74415055  0.26226826  0.75404730
   0.99286591  0.51090724  0.74844834
   0.24609723  0.49801068  0.75722864
   0.49339113  0.50478611  0.75830765
   0.74292303  0.49677031  0.75115204
   0.00741747  0.75439713  0.73912785
   0.25411449  0.74694540  0.75056276
   0.49136233  0.75501140  0.74886542
   0.75098290  0.74770071  0.76076955
   0.06060873  0.06540020  0.06393113
   0.30454370  0.07215721  0.05868314
   0.57054476  0.05179062  0.06599573
   0.79912488  0.06203357  0.06366532
   0.06487218  0.30640523  0.06093258
   0.30595369  0.31076014  0.06472674
   0.57432193  0.31111061  0.06488813
   0.82329399  0.31822935  0.04589010
   0.05271150  0.56931919  0.06138866
   0.30650544  0.57348875  0.06628505
   0.56049373  0.57247690  0.06756490
   0.81660604  0.56132398  0.06528396
   0.06625172  0.80853994  0.05760528
   0.30327371  0.80899509  0.07117058
   0.56233426  0.79764758  0.06503356
   0.81208491  0.81489950  0.05894672
   0.05621766  0.05985371  0.31023863
   0.31287851  0.06217648  0.30990885
   0.55887049  0.07575063  0.31041905
   0.80975007  0.06326234  0.30544572
   0.06120970  0.31872048  0.30516964
   0.29802941  0.32353229  0.31251855
   0.56128193  0.32145094  0.30919502
   0.81373762  0.31035511  0.30419251
   0.06865695  0.54847278  0.30883268
   0.31419096  0.56374793  0.31171169
   0.55473180  0.56569022  0.31959472
   0.81648589  0.57133580  0.30987145
   0.06510820  0.81666455  0.30912201
   0.32051990  0.80956706  0.31073390
   0.56594769  0.81094809  0.31033693
   0.81478270  0.80958218  0.31876751
   0.03620467  0.07462538  0.57245256
   0.31224349  0.05058906  0.57196674
   0.55413671  0.07209628  0.56009301
   0.81884673  0.05628440  0.56321253
   0.05968085  0.30673990  0.56085820
   0.31278159  0.30470564  0.57131667
   0.56185226  0.31165973  0.56478885
   0.81125533  0.32258071  0.56490530
   0.05721136  0.55888724  0.55940921
   0.31310426  0.56882387  0.55299894
   0.54990162  0.56127719  0.56684853
   0.81441371  0.56675007  0.57367258
   0.05844330  0.81083353  0.56149973
   0.32549216  0.80257605  0.55807874
   0.55351265  0.81776870  0.56666382
   0.80451744  0.80658628  0.56908866
   0.06102212  0.06575624  0.81286758
   0.29840641  0.06174164  0.81769114
   0.57036892  0.05535612  0.81637534
   0.80785891  0.06424318  0.81724290
   0.05481703  0.33121400  0.80797547
   0.30752598  0.31847059  0.81211422
   0.55589581  0.32441739  0.80598324
   0.81607660  0.32455248  0.81001505
   0.06770351  0.55902952  0.80685161
   0.30981125  0.55844840  0.81827367
   0.55269256  0.57171566  0.82184514
   0.80999079  0.56717880  0.81227795
   0.06445537  0.81032726  0.80966155
   0.31393041  0.81308742  0.80885938
   0.56986913  0.80990869  0.80927362
   0.82078280  0.81510273  0.80261677
 
 position of ions in cartesian coordinates  (Angst):
  10.96265967 21.70832246 10.88997245
   0.06836205  2.70964444  2.67516481
  11.03429917  5.60361130 16.38148546
  10.85486612  8.33318404 19.14735508
   2.77992177 11.02945226 13.60844573
   2.70545594  2.89535612  5.47681453
   2.64842709  5.54095671  8.14249181
  13.50334076 19.03829254 10.93134594
   5.53263004 10.99585531 16.38858730
  16.48809820 13.75129846  8.38995534
  16.47454059 16.28530343 11.15231549
   5.45307128  8.26169546 13.53915786
   8.19947042  0.12406039  8.21049284
   8.29783768  2.80384995 11.00059270
  19.09260316 16.42923660 13.67041489
   8.28547336  8.23570657 16.36318065
   2.66060849  2.63674629  0.08302604
  13.48150338  5.52104823 13.76552857
   2.79538850  8.02223030  5.45188945
   2.72075454 10.80167944  8.17559970
   5.50739327  2.89921621  2.68044440
   5.56597516  5.51167837  5.36392850
   5.47655022  8.00600590  8.29579425
   5.46014591 10.81368627 10.84207672
   8.15807311 13.57876389 16.35568862
   8.21648960  5.66084217  8.28672931
   8.17247526  8.22690583 10.94420389
   8.25899677 10.89011264 13.58687617
  11.01563618  2.73976834  8.29495804
  10.97177040  5.55637532 11.01220204
  10.88331338  8.18342854 13.69091007
  10.92813960 10.78961074 16.44269263
  16.34456598 16.37456888 21.80201379
  16.43559546  8.30993091 13.69078733
  16.40236937 10.89223047 16.32262484
   5.61939228 13.76240678  8.17956148
   7.98263933 16.19309251 13.64979997
   8.14828340  8.22707827  5.58686939
   8.27756485 10.78405499  8.32944969
   8.21268581 13.57217568 11.13037908
  10.92244943 16.30102551 16.28682218
  10.86505442  8.03152733  8.30155463
  10.94665960 10.99894021 11.08208325
  10.94914733 13.75866291 13.66380860
  13.67077624 16.34177190 19.09844069
  13.72257847  8.17196205 10.97114482
  13.61504667 10.90052749 13.69080756
  13.80898627 13.46744451 16.34543906
  19.10451781 19.05491617 21.75196935
  19.07659375 10.88016635 13.57037109
   8.21780876 13.56263097  5.49332339
  19.09526565 16.45458865 19.13992252
  11.06454098 19.24827058 13.60405978
  10.97653434 10.78731293  5.45744442
  10.95632269 13.67223269  8.15435005
  11.11578235 16.38628978 11.00753830
  13.77399228 19.04533508 16.44726878
  13.72897127 10.97370982  8.13855653
  13.81487791 13.69024721 10.91739755
  13.64894317 16.34119762 13.55893976
  16.33518105  8.16521533  8.33222048
  16.37874651 10.98849033 10.94892604
  16.44840265 13.56478479 13.63200538
  16.49864260 16.53454097 16.39160277
   1.41453986  1.36213397  1.37820171
   1.43104456  3.97273311  4.12010353
   1.28826857  6.96205565  6.80668967
   1.37481074  9.43662436  9.41877735
   4.01769611  1.37596861  4.06078490
   4.10682524  4.05425550  6.74520491
   4.11242368  6.99125374  9.68427111
   3.98249594  9.50655651 12.48522167
   6.89826228  1.24795152  6.80335719
   6.99741958  4.07733406  9.62479016
   7.00035072  6.86928678 12.39167789
   6.85342021  9.64552526 15.07088047
   9.47331930  1.35466535  9.56788830
   9.62666557  4.09542213 12.16525503
   9.43543155  6.86173123 14.87457520
   9.55754766  9.52676357 17.79487140
   4.04782341  4.00805471  1.26951133
   4.06962135  6.81163314  4.10210153
   4.22366663  9.50770971  6.94106293
   4.03268299 12.19726840  9.54842796
   6.82369444  4.00721310  4.15542319
   6.95670032  6.67776676  6.79822768
   6.89758528  9.52069689  9.65474394
   6.72151238 12.22717482 12.29457731
   9.37663588  4.12872996  6.74975378
   9.57519399  6.84570607  9.60231056
   9.68265672  9.56280090 12.25442950
   9.63805779 12.31934604 15.17906890
  12.31310332  4.09308070  9.64424288
  12.25310537  6.90423339 12.36013811
  12.26386851  9.58421735 15.05956867
  12.34113709 12.39801690 17.76622082
   7.07730736  6.65708718  1.21218520
   6.80910045  9.67090233  3.96842069
   6.91446524 12.18670227  6.84931914
   6.77564464 15.11604323  9.57160117
   9.48920990  6.78704264  4.00766597
   9.58134832  9.66967770  6.75366390
   9.58601060 12.32244976  9.55389208
   9.70673061 15.05152806 12.40114314
  12.23118153  6.74418495  6.73847599
  12.26975041  9.47285969  9.64594227
  12.33868746 12.21426900 12.15333341
  12.47318303 15.18196296 15.10624912
  15.00966680  6.78052385  9.50757071
  14.88193551  9.66390976 12.33805838
  15.14200043 12.25174386 14.99816166
  15.04621587 15.02358820 17.62117897
   9.60980197  9.55802327  1.38661725
   9.61864983 12.20713140  3.93905942
   9.53441794 15.16728473  6.84376359
   9.64110741 17.77428078  9.53847157
  12.45969539  9.43664947  4.22215025
  12.36558331 12.24587846  6.84673339
  12.36356889 14.89532563  9.62827923
  12.40914357 17.78510689 12.47544077
  14.93909770  9.56530117  6.85478820
  15.05766864 12.33824118  9.49644554
  15.24183945 15.03377746 12.29802783
  15.08757885 17.74329458 15.06256336
  17.71835826  9.56050847  9.56778956
  17.73977340 12.28032666 12.32657011
  17.70953724 15.08414446 15.09109040
  17.69353792 17.75566274 17.89222583
 


--------------------------------------------------------------------------------------------------------


 k-point  1 :   0.0000 0.0000 0.0000  plane waves:   66299
 k-point  2 :   0.5000 0.0000 0.0000  plane waves:   66394
 k-point  3 :   0.0000 0.5000 0.0000  plane waves:   66394
 k-point  4 :   0.5000 0.5000 0.0000  plane waves:   66552
 k-point  5 :   0.0000 0.0000 0.5000  plane waves:   66394
 k-point  6 :   0.5000 0.0000 0.5000  plane waves:   66552
 k-point  7 :   0.0000 0.5000 0.5000  plane waves:   66552
 k-point  8 :   0.5000 0.5000 0.5000  plane waves:   66394

 maximum and minimum number of plane-waves per node :      4207     4110

 maximum number of plane-waves:     66552
 maximum index in each direction: 
   IXMAX=   28   IYMAX=   28   IZMAX=   28
   IXMIN=  -28   IYMIN=  -28   IZMIN=  -28


 parallel 3D FFT for wavefunctions:
    minimum data exchange during FFTs selected (reduces bandwidth)
 parallel 3D FFT for charge:
    minimum data exchange during FFTs selected (reduces bandwidth)


 total amount of memory used by VASP MPI-rank0   221701. kBytes
=======================================================================

   base      :      30000. kBytes
   nonl-proj :      10690. kBytes
   fftplans  :      66746. kBytes
   grid      :      26864. kBytes
   one-center:         24. kBytes
   wavefun   :      87377. kBytes
 
     INWAV:  cpu time    0.0000: real time    0.0002
 Broyden mixing: mesh for mixing (old mesh)
   NGX = 57   NGY = 57   NGZ = 57
  (NGX  =240   NGY  =240   NGZ  =240)
  gives a total of 185193 points

 initial charge density was supplied:
 charge density of overlapping atoms calculated
 number of electron     512.0000000 magnetization 
 keeping initial charge density in first step


--------------------------------------------------------------------------------------------------------


 Maximum index for augmentation-charges         5605 (set IRDMAX)


--------------------------------------------------------------------------------------------------------


 First call to EWALD:  gamma=   0.129
 Maximum number of real-space cells 3x 3x 3
 Maximum number of reciprocal cells 3x 3x 3

    FEWALD:  cpu time    0.0061: real time    0.0061


--------------------------------------- Iteration      1(   1)  ---------------------------------------


    POTLOK:  cpu time    0.4879: real time    0.4967
    SETDIJ:  cpu time    0.5039: real time    0.5042
     EDDAV:  cpu time   69.9046: real time   69.9217
       DOS:  cpu time    0.0038: real time    0.0037
    --------------------------------------------
      LOOP:  cpu time   70.9002: real time   70.9264

 eigenvalue-minimisations  :  5152
 total energy-change (2. order) : 0.1383322E+04  (-0.1908257E+05)
 number of electron     512.0000000 magnetization 
 augmentation part      512.0000000 magnetization 

 Free energy of the ion-electron system (eV)
  ---------------------------------------------------
  alpha Z        PSCENC =       210.77028614
  Ewald energy   TEWEN  =    -14470.85895996
  -Hartree energ DENC   =      -757.08927849
  -exchange      EXHF   =         0.00000000
  -V(xc)+E(xc)   XCENC  =     -1195.35218723
  PAW double counting   =      4221.13331941    -1969.18571412
  entropy T*S    EENTRO =        -0.00181873
  eigenvalues    EBANDS =      2151.42563916
  atomic energy  EATOM  =     13192.48085998
  Solvation  Ediel_sol  =         0.00000000
  ---------------------------------------------------
  free energy    TOTEN  =      1383.32214616 eV

  energy without entropy =     1383.32396489  energy(sigma->0) =     1383.32305553


--------------------------------------------------------------------------------------------------------




--------------------------------------- Iteration      1(   2)  ---------------------------------------


     EDDAV:  cpu time   79.6448: real time   79.6803
       DOS:  cpu time    0.0026: real time    0.0025
    --------------------------------------------
      LOOP:  cpu time   79.6473: real time   79.6828

 eigenvalue-minimisations  :  6104
 total energy-change (2. order) :-0.1919475E+04  (-0.1825691E+04)
 number of electron     512.0000000 magnetization 
 augmentation part      512.0000000 magnetization 

 Free energy of the ion-electron system (eV)
  ---------------------------------------------------
  alpha Z        PSCENC =       210.77028614
  Ewald energy   TEWEN  =    -14470.85895996
  -Hartree energ DENC   =      -757.08927849
  -exchange      EXHF   =         0.00000000
  -V(xc)+E(xc)   XCENC  =     -1195.35218723
  PAW double counting   =      4221.13331941    -1969.18571412
  entropy T*S    EENTRO =        -0.00002700
  eigenvalues    EBANDS =       231.94900667
  atomic energy  EATOM  =     13192.48085998
  Solvation  Ediel_sol  =         0.00000000
  ---------------------------------------------------
  free energy    TOTEN  =      -536.15269460 eV

  energy without entropy =     -536.15266760  energy(sigma->0) =     -536.15268110


--------------------------------------------------------------------------------------------------------




--------------------------------------- Iteration      1(   3)  ---------------------------------------


     EDDAV:  cpu time   81.7380: real time   81.7593
       DOS:  cpu time    0.0010: real time    0.0010
    --------------------------------------------
      LOOP:  cpu time   81.7390: real time   81.7603

 eigenvalue-minimisations  :  6296
 total energy-change (2. order) :-0.1500076E+03  (-0.1469073E+03)
 number of electron     512.0000000 magnetization 
 augmentation part      512.0000000 magnetization 

 Free energy of the ion-electron system (eV)
  ---------------------------------------------------
  alpha Z        PSCENC =       210.77028614
  Ewald energy   TEWEN  =    -14470.85895996
  -Hartree energ DENC   =      -757.08927849
  -exchange      EXHF   =         0.00000000
  -V(xc)+E(xc)   XCENC  =     -1195.35218723
  PAW double counting   =      4221.13331941    -1969.18571412
  entropy T*S    EENTRO =        -0.00000000
  eigenvalues    EBANDS =        81.94140970
  atomic energy  EATOM  =     13192.48085998
  Solvation  Ediel_sol  =         0.00000000
  ---------------------------------------------------
  free energy    TOTEN  =      -686.16026456 eV

  energy without entropy =     -686.16026456  energy(sigma->0) =     -686.16026456


--------------------------------------------------------------------------------------------------------




--------------------------------------- Iteration      1(   4)  ---------------------------------------


     EDDAV:  cpu time   80.5308: real time   80.5558
       DOS:  cpu time    0.0010: real time    0.0010
    --------------------------------------------
      LOOP:  cpu time   80.5318: real time   80.5568

 eigenvalue-minimisations  :  6184
 total energy-change (2. order) :-0.4325902E+01  (-0.4290194E+01)
 number of electron     512.0000000 magnetization 
 augmentation part      512.0000000 magnetization 

 Free energy of the ion-electron system (eV)
  ---------------------------------------------------
  alpha Z        PSCENC =       210.77028614
  Ewald energy   TEWEN  =    -14470.85895996
  -Hartree energ DENC   =      -757.08927849
  -exchange      EXHF   =         0.00000000
  -V(xc)+E(xc)   XCENC  =     -1195.35218723
  PAW double counting   =      4221.13331941    -1969.18571412
  entropy T*S    EENTRO =        -0.00000000
  eigenvalues    EBANDS =        77.61550811
  atomic energy  EATOM  =     13192.48085998
  Solvation  Ediel_sol  =         0.00000000
  ---------------------------------------------------
  free energy    TOTEN  =      -690.48616615 eV

  energy without entropy =     -690.48616615  energy(sigma->0) =     -690.48616615


--------------------------------------------------------------------------------------------------------




--------------------------------------- Iteration      1(   5)  ---------------------------------------


     EDDAV:  cpu time   82.0847: real time   82.1102
       DOS:  cpu time    0.0020: real time    0.0020
    CHARGE:  cpu time    3.3096: real time    3.3101
    MIXING:  cpu time    0.0379: real time    0.0379
    --------------------------------------------
      LOOP:  cpu time   85.4343: real time   85.4603

 eigenvalue-minimisations  :  6352
 total energy-change (2. order) :-0.1501536E+00  (-0.1497468E+00)
 number of electron     511.9999998 magnetization 
 augmentation part      -30.1780851 magnetization 

 Broyden mixing:
  rms(total) = 0.23965E+01    rms(broyden)= 0.23965E+01
  rms(prec ) = 0.29057E+01
  weight for this iteration     100.00

 Free energy of the ion-electron system (eV)
  ---------------------------------------------------
  alpha Z        PSCENC =       210.77028614
  Ewald energy   TEWEN  =    -14470.85895996
  -Hartree energ DENC   =      -757.08927849
  -exchange      EXHF   =         0.00000000
  -V(xc)+E(xc)   XCENC  =     -1195.35218723
  PAW double counting   =      4221.13331941    -1969.18571412
  entropy T*S    EENTRO =        -0.00000000
  eigenvalues    EBANDS =        77.46535455
  atomic energy  EATOM  =     13192.48085998
  Solvation  Ediel_sol  =         0.00000000
  ---------------------------------------------------
  free energy    TOTEN  =      -690.63631971 eV

  energy without entropy =     -690.63631971  energy(sigma->0) =     -690.63631971


--------------------------------------------------------------------------------------------------------




--------------------------------------- Iteration      1(   6)  ---------------------------------------


    POTLOK:  cpu time    0.4895: real time    0.4909
    SETDIJ:  cpu time    0.5145: real time    0.5147
     EDDAV:  cpu time   77.5528: real time   77.5790
       DOS:  cpu time    0.0011: real time    0.0011
    CHARGE:  cpu time    3.2924: real time    3.2932
    MIXING:  cpu time    0.0317: real time    0.0317
    --------------------------------------------
      LOOP:  cpu time   81.8820: real time   81.9105

 eigenvalue-minimisations  :  5904
 total energy-change (2. order) : 0.8473820E+01  (-0.5842633E+00)
 number of electron     511.9999998 magnetization 
 augmentation part      -29.8400008 magnetization 

 Broyden mixing:
  rms(total) = 0.14240E+01    rms(broyden)= 0.14240E+01
  rms(prec ) = 0.17168E+01
  weight for this iteration     100.00

 eigenvalues of (default mixing * dielectric matrix)
  average eigenvalue GAMMA=   2.4310
  2.4310

 Free energy of the ion-electron system (eV)
  ---------------------------------------------------
  alpha Z        PSCENC =       210.77028614
  Ewald energy   TEWEN  =    -14470.85895996
  -Hartree energ DENC   =      -852.01583491
  -exchange      EXHF   =         0.00000000
  -V(xc)+E(xc)   XCENC  =     -1180.72057308
  PAW double counting   =      4465.53402103    -2220.35042316
  entropy T*S    EENTRO =        -0.00000000
  eigenvalues    EBANDS =       172.99812446
  atomic energy  EATOM  =     13192.48085998
  Solvation  Ediel_sol  =         0.00000000
  ---------------------------------------------------
  free energy    TOTEN  =      -682.16249949 eV

  energy without entropy =     -682.16249949  energy(sigma->0) =     -682.16249949


--------------------------------------------------------------------------------------------------------




--------------------------------------- Iteration      1(   7)  ---------------------------------------


    POTLOK:  cpu time    0.4868: real time    0.4893
    SETDIJ:  cpu time    0.5124: real time    0.5127
     EDDAV:  cpu time   78.0449: real time   78.0756
       DOS:  cpu time    0.0011: real time    0.0011
    CHARGE:  cpu time    3.2955: real time    3.3007
    MIXING:  cpu time    0.0260: real time    0.0260
    --------------------------------------------
      LOOP:  cpu time   82.3666: real time   82.4053

 eigenvalue-minimisations  :  5960
 total energy-change (2. order) : 0.3539612E+01  (-0.1135199E+01)
 number of electron     511.9999998 magnetization 
 augmentation part      -29.3873934 magnetization 

 Broyden mixing:
  rms(total) = 0.15613E+00    rms(broyden)= 0.15613E+00
  rms(prec ) = 0.20360E+00
  weight for this iteration     100.00

 eigenvalues of (default mixing * dielectric matrix)
  average eigenvalue GAMMA=   2.1115
  2.1115  2.1115

 Free energy of the ion-electron system (eV)
  ---------------------------------------------------
  alpha Z        PSCENC =       210.77028614
  Ewald energy   TEWEN  =    -14470.85895996
  -Hartree energ DENC   =     -1002.28345976
  -exchange      EXHF   =         0.00000000
  -V(xc)+E(xc)   XCENC  =     -1156.80951253
  PAW double counting   =      4785.37319587    -2548.72141697
  entropy T*S    EENTRO =        -0.00000000
  eigenvalues    EBANDS =       311.42612016
  atomic energy  EATOM  =     13192.48085998
  Solvation  Ediel_sol  =         0.00000000
  ---------------------------------------------------
  free energy    TOTEN  =      -678.62288707 eV

  energy without entropy =     -678.62288707  energy(sigma->0) =     -678.62288707


--------------------------------------------------------------------------------------------------------




--------------------------------------- Iteration      1(   8)  ---------------------------------------


    POTLOK:  cpu time    0.4879: real time    0.4888
    SETDIJ:  cpu time    0.5132: real time    0.5133
     EDDAV:  cpu time   76.0362: real time   76.0554
       DOS:  cpu time    0.0010: real time    0.0010
    CHARGE:  cpu time    3.2248: real time    3.2253
    MIXING:  cpu time    0.0276: real time    0.0276
    --------------------------------------------
      LOOP:  cpu time   80.2907: real time   80.3115

 eigenvalue-minimisations  :  5760
 total energy-change (2. order) :-0.5935877E-01  (-0.1134855E+00)
 number of electron     511.9999998 magnetization 
 augmentation part      -29.4556956 magnetization 

 Broyden mixing:
  rms(total) = 0.63309E-01    rms(broyden)= 0.63309E-01
  rms(prec ) = 0.78802E-01
  weight for this iteration     100.00

 eigenvalues of (default mixing * dielectric matrix)
  average eigenvalue GAMMA=   2.0217
  2.6926  1.6862  1.6862

 Free energy of the ion-electron system (eV)
  ---------------------------------------------------
  alpha Z        PSCENC =       210.77028614
  Ewald energy   TEWEN  =    -14470.85895996
  -Hartree energ DENC   =      -995.51055316
  -exchange      EXHF   =         0.00000000
  -V(xc)+E(xc)   XCENC  =     -1156.95735592
  PAW double counting   =      4737.10109635    -2498.94781649
  entropy T*S    EENTRO =        -0.00000000
  eigenvalues    EBANDS =       303.24019721
  atomic energy  EATOM  =     13192.48085998
  Solvation  Ediel_sol  =         0.00000000
  ---------------------------------------------------
  free energy    TOTEN  =      -678.68224585 eV

  energy without entropy =     -678.68224585  energy(sigma->0) =     -678.68224585


--------------------------------------------------------------------------------------------------------




--------------------------------------- Iteration      1(   9)  ---------------------------------------


    POTLOK:  cpu time    0.4909: real time    0.4921
    SETDIJ:  cpu time    0.5141: real time    0.5141
     EDDAV:  cpu time   79.1513: real time   79.1829
       DOS:  cpu time    0.0014: real time    0.0014
    CHARGE:  cpu time    3.2282: real time    3.2285
    MIXING:  cpu time    0.0321: real time    0.0321
    --------------------------------------------
      LOOP:  cpu time   83.4179: real time   83.4511

 eigenvalue-minimisations  :  6080
 total energy-change (2. order) :-0.2095289E-01  (-0.1059523E-01)
 number of electron     511.9999998 magnetization 
 augmentation part      -29.4597580 magnetization 

 Broyden mixing:
  rms(total) = 0.29875E-01    rms(broyden)= 0.29875E-01
  rms(prec ) = 0.34664E-01
  weight for this iteration     100.00

 eigenvalues of (default mixing * dielectric matrix)
  average eigenvalue GAMMA=   1.7988
  2.5991  1.8486  1.8486  0.8987

 Free energy of the ion-electron system (eV)
  ---------------------------------------------------
  alpha Z        PSCENC =       210.77028614
  Ewald energy   TEWEN  =    -14470.85895996
  -Hartree energ DENC   =     -1002.50465173
  -exchange      EXHF   =         0.00000000
  -V(xc)+E(xc)   XCENC  =     -1155.74879460
  PAW double counting   =      4741.43453884    -2503.40289373
  entropy T*S    EENTRO =        -0.00000000
  eigenvalues    EBANDS =       309.12641631
  atomic energy  EATOM  =     13192.48085998
  Solvation  Ediel_sol  =         0.00000000
  ---------------------------------------------------
  free energy    TOTEN  =      -678.70319874 eV

  energy without entropy =     -678.70319874  energy(sigma->0) =     -678.70319874


--------------------------------------------------------------------------------------------------------




--------------------------------------- Iteration      1(  10)  ---------------------------------------


    POTLOK:  cpu time    0.4885: real time    0.4899
    SETDIJ:  cpu time    0.5143: real time    0.5143
     EDDAV:  cpu time   77.7082: real time   77.7355
       DOS:  cpu time    0.0011: real time    0.0011
    CHARGE:  cpu time    3.2194: real time    3.2197
    MIXING:  cpu time    0.0306: real time    0.0306
    --------------------------------------------
      LOOP:  cpu time   81.9620: real time   81.9911

 eigenvalue-minimisations  :  5928
 total energy-change (2. order) :-0.2491272E-02  (-0.1003640E-02)
 number of electron     511.9999998 magnetization 
 augmentation part      -29.4702263 magnetization 

 Broyden mixing:
  rms(total) = 0.11088E-01    rms(broyden)= 0.11088E-01
  rms(prec ) = 0.13453E-01
  weight for this iteration     100.00

 eigenvalues of (default mixing * dielectric matrix)
  average eigenvalue GAMMA=   1.8548
  2.6716  2.6716  1.5062  1.5062  0.9182

 Free energy of the ion-electron system (eV)
  ---------------------------------------------------
  alpha Z        PSCENC =       210.77028614
  Ewald energy   TEWEN  =    -14470.85895996
  -Hartree energ DENC   =     -1001.14562918
  -exchange      EXHF   =         0.00000000
  -V(xc)+E(xc)   XCENC  =     -1155.94674964
  PAW double counting   =      4733.54132781    -2495.31084039
  entropy T*S    EENTRO =        -0.00000000
  eigenvalues    EBANDS =       307.76401522
  atomic energy  EATOM  =     13192.48085998
  Solvation  Ediel_sol  =         0.00000000
  ---------------------------------------------------
  free energy    TOTEN  =      -678.70569001 eV

  energy without entropy =     -678.70569001  energy(sigma->0) =     -678.70569001


--------------------------------------------------------------------------------------------------------




--------------------------------------- Iteration      1(  11)  ---------------------------------------


    POTLOK:  cpu time    0.4908: real time    0.4920
    SETDIJ:  cpu time    0.5074: real time    0.5074
     EDDAV:  cpu time   76.7006: real time   76.7196
       DOS:  cpu time    0.0010: real time    0.0010
    CHARGE:  cpu time    3.1845: real time    3.1885
    MIXING:  cpu time    0.0394: real time    0.0394
    --------------------------------------------
      LOOP:  cpu time   80.9237: real time   80.9479

 eigenvalue-minimisations  :  5832
 total energy-change (2. order) :-0.1415700E-02  (-0.2317346E-03)
 number of electron     511.9999998 magnetization 
 augmentation part      -29.4727424 magnetization 

 Broyden mixing:
  rms(total) = 0.40061E-02    rms(broyden)= 0.40060E-02
  rms(prec ) = 0.57034E-02
  weight for this iteration     100.00

 eigenvalues of (default mixing * dielectric matrix)
  average eigenvalue GAMMA=   1.7793
  2.8310  2.0673  2.0673  1.6154  1.2372  0.8576

 Free energy of the ion-electron system (eV)
  ---------------------------------------------------
  alpha Z        PSCENC =       210.77028614
  Ewald energy   TEWEN  =    -14470.85895996
  -Hartree energ DENC   =     -1001.06419077
  -exchange      EXHF   =         0.00000000
  -V(xc)+E(xc)   XCENC  =     -1155.95624713
  PAW double counting   =      4729.40952954    -2491.08398353
  entropy T*S    EENTRO =        -0.00000000
  eigenvalues    EBANDS =       307.59560001
  atomic energy  EATOM  =     13192.48085998
  Solvation  Ediel_sol  =         0.00000000
  ---------------------------------------------------
  free energy    TOTEN  =      -678.70710571 eV

  energy without entropy =     -678.70710571  energy(sigma->0) =     -678.70710571


--------------------------------------------------------------------------------------------------------




--------------------------------------- Iteration      1(  12)  ---------------------------------------


    POTLOK:  cpu time    0.4905: real time    0.4915
    SETDIJ:  cpu time    0.5096: real time    0.5097
     EDDAV:  cpu time   80.1579: real time   80.1935
       DOS:  cpu time    0.0012: real time    0.0012
    CHARGE:  cpu time    3.1831: real time    3.1850
    MIXING:  cpu time    0.0344: real time    0.0344
    --------------------------------------------
      LOOP:  cpu time   84.3768: real time   84.4151

 eigenvalue-minimisations  :  6176
 total energy-change (2. order) :-0.5584083E-04  (-0.5146956E-04)
 number of electron     511.9999998 magnetization 
 augmentation part      -29.4707712 magnetization 

 Broyden mixing:
  rms(total) = 0.19138E-02    rms(broyden)= 0.19138E-02
  rms(prec ) = 0.23029E-02
  weight for this iteration     100.00

 eigenvalues of (default mixing * dielectric matrix)
  average eigenvalue GAMMA=   1.8211
  3.1360  2.6924  1.7703  1.7703  0.8876  1.2456  1.2456

 Free energy of the ion-electron system (eV)
  ---------------------------------------------------
  alpha Z        PSCENC =       210.77028614
  Ewald energy   TEWEN  =    -14470.85895996
  -Hartree energ DENC   =     -1001.69166271
  -exchange      EXHF   =         0.00000000
  -V(xc)+E(xc)   XCENC  =     -1155.88626679
  PAW double counting   =      4730.71314606    -2492.43222508
  entropy T*S    EENTRO =        -0.00000000
  eigenvalues    EBANDS =       308.19766080
  atomic energy  EATOM  =     13192.48085998
  Solvation  Ediel_sol  =         0.00000000
  ---------------------------------------------------
  free energy    TOTEN  =      -678.70716155 eV

  energy without entropy =     -678.70716155  energy(sigma->0) =     -678.70716155


--------------------------------------------------------------------------------------------------------




--------------------------------------- Iteration      1(  13)  ---------------------------------------


    POTLOK:  cpu time    0.4913: real time    0.4918
    SETDIJ:  cpu time    0.5120: real time    0.5120
     EDDAV:  cpu time   76.0696: real time   76.1237
       DOS:  cpu time    0.0011: real time    0.0011
    CHARGE:  cpu time    3.1850: real time    3.1867
    MIXING:  cpu time    0.0287: real time    0.0287
    --------------------------------------------
      LOOP:  cpu time   80.2875: real time   80.3439

 eigenvalue-minimisations  :  5768
 total energy-change (2. order) :-0.3079404E-04  (-0.1356382E-04)
 number of electron     511.9999998 magnetization 
 augmentation part      -29.4708509 magnetization 

 Broyden mixing:
  rms(total) = 0.65821E-03    rms(broyden)= 0.65819E-03
  rms(prec ) = 0.87317E-03
  weight for this iteration     100.00

 eigenvalues of (default mixing * dielectric matrix)
  average eigenvalue GAMMA=   1.7856
  3.1157  2.5234  1.9621  1.9621  1.4040  1.4040  0.9568  0.9568

 Free energy of the ion-electron system (eV)
  ---------------------------------------------------
  alpha Z        PSCENC =       210.77028614
  Ewald energy   TEWEN  =    -14470.85895996
  -Hartree energ DENC   =     -1001.66500643
  -exchange      EXHF   =         0.00000000
  -V(xc)+E(xc)   XCENC  =     -1155.89878358
  PAW double counting   =      4730.08217690    -2491.78800264
  entropy T*S    EENTRO =        -0.00000000
  eigenvalues    EBANDS =       308.17023724
  atomic energy  EATOM  =     13192.48085998
  Solvation  Ediel_sol  =         0.00000000
  ---------------------------------------------------
  free energy    TOTEN  =      -678.70719235 eV

  energy without entropy =     -678.70719235  energy(sigma->0) =     -678.70719235


--------------------------------------------------------------------------------------------------------




--------------------------------------- Iteration      1(  14)  ---------------------------------------


    POTLOK:  cpu time    0.4899: real time    0.4911
    SETDIJ:  cpu time    0.5169: real time    0.5172
     EDDAV:  cpu time   80.3572: real time   80.3949
       DOS:  cpu time    0.0012: real time    0.0011
    CHARGE:  cpu time    3.1933: real time    3.1935
    MIXING:  cpu time    0.0259: real time    0.0259
    --------------------------------------------
      LOOP:  cpu time   84.5843: real time   84.6238

 eigenvalue-minimisations  :  6184
 total energy-change (2. order) :-0.6010991E-05  (-0.1336099E-05)
 number of electron     511.9999998 magnetization 
 augmentation part      -29.4706355 magnetization 

 Broyden mixing:
  rms(total) = 0.21324E-03    rms(broyden)= 0.21318E-03
  rms(prec ) = 0.31032E-03
  weight for this iteration     100.00

 eigenvalues of (default mixing * dielectric matrix)
  average eigenvalue GAMMA=   1.7657
  3.2131  2.6147  2.1439  1.6404  1.6404  0.9204  1.0295  1.3443  1.3443

 Free energy of the ion-electron system (eV)
  ---------------------------------------------------
  alpha Z        PSCENC =       210.77028614
  Ewald energy   TEWEN  =    -14470.85895996
  -Hartree energ DENC   =     -1001.73019389
  -exchange      EXHF   =         0.00000000
  -V(xc)+E(xc)   XCENC  =     -1155.89065794
  PAW double counting   =      4730.25938529    -2491.96953206
  entropy T*S    EENTRO =        -0.00000000
  eigenvalues    EBANDS =       308.23161407
  atomic energy  EATOM  =     13192.48085998
  Solvation  Ediel_sol  =         0.00000000
  ---------------------------------------------------
  free energy    TOTEN  =      -678.70719836 eV

  energy without entropy =     -678.70719836  energy(sigma->0) =     -678.70719836


--------------------------------------------------------------------------------------------------------




--------------------------------------- Iteration      1(  15)  ---------------------------------------


    POTLOK:  cpu time    0.4883: real time    0.4890
    SETDIJ:  cpu time    0.5164: real time    0.5164
     EDDAV:  cpu time   79.1495: real time   79.1742
       DOS:  cpu time    0.0010: real time    0.0010
    CHARGE:  cpu time    3.1946: real time    3.1961
    MIXING:  cpu time    0.0292: real time    0.0292
    --------------------------------------------
      LOOP:  cpu time   83.3791: real time   83.4060

 eigenvalue-minimisations  :  6080
 total energy-change (2. order) :-0.3216626E-05  (-0.2743279E-06)
 number of electron     511.9999998 magnetization 
 augmentation part      -29.4705428 magnetization 

 Broyden mixing:
  rms(total) = 0.81440E-04    rms(broyden)= 0.81304E-04
  rms(prec ) = 0.11043E-03
  weight for this iteration     100.00

 eigenvalues of (default mixing * dielectric matrix)
  average eigenvalue GAMMA=   1.7121
  3.2426  2.5862  2.1497  1.6843  1.6843  1.4436  1.4436  1.0430  0.9221  0.9221

 Free energy of the ion-electron system (eV)
  ---------------------------------------------------
  alpha Z        PSCENC =       210.77028614
  Ewald energy   TEWEN  =    -14470.85895996
  -Hartree energ DENC   =     -1001.75296593
  -exchange      EXHF   =         0.00000000
  -V(xc)+E(xc)   XCENC  =     -1155.88954652
  PAW double counting   =      4730.31461923    -2492.02666736
  entropy T*S    EENTRO =        -0.00000000
  eigenvalues    EBANDS =       308.25517284
  atomic energy  EATOM  =     13192.48085998
  Solvation  Ediel_sol  =         0.00000000
  ---------------------------------------------------
  free energy    TOTEN  =      -678.70720157 eV

  energy without entropy =     -678.70720157  energy(sigma->0) =     -678.70720157


--------------------------------------------------------------------------------------------------------




--------------------------------------- Iteration      1(  16)  ---------------------------------------


    POTLOK:  cpu time    0.4879: real time    0.4890
    SETDIJ:  cpu time    0.5082: real time    0.5084
     EDDAV:  cpu time   77.9484: real time   77.9913
       DOS:  cpu time    0.0010: real time    0.0010
    CHARGE:  cpu time    3.0884: real time    3.0898
    MIXING:  cpu time    0.0291: real time    0.0291
    --------------------------------------------
      LOOP:  cpu time   82.0630: real time   82.1086

 eigenvalue-minimisations  :  5968
 total energy-change (2. order) : 0.1625849E-06  (-0.3851765E-07)
 number of electron     511.9999998 magnetization 
 augmentation part      -29.4705273 magnetization 

 Broyden mixing:
  rms(total) = 0.37829E-04    rms(broyden)= 0.37537E-04
  rms(prec ) = 0.51920E-04
  weight for this iteration     100.00

 eigenvalues of (default mixing * dielectric matrix)
  average eigenvalue GAMMA=   1.6947
  3.2811  2.6158  2.0686  2.0686  1.3990  1.3990  1.4494  1.4494  0.9055  1.0024
  1.0024

 Free energy of the ion-electron system (eV)
  ---------------------------------------------------
  alpha Z        PSCENC =       210.77028614
  Ewald energy   TEWEN  =    -14470.85895996
  -Hartree energ DENC   =     -1001.75460153
  -exchange      EXHF   =         0.00000000
  -V(xc)+E(xc)   XCENC  =     -1155.88929142
  PAW double counting   =      4730.31578961    -2492.02766177
  entropy T*S    EENTRO =        -0.00000000
  eigenvalues    EBANDS =       308.25637753
  atomic energy  EATOM  =     13192.48085998
  Solvation  Ediel_sol  =         0.00000000
  ---------------------------------------------------
  free energy    TOTEN  =      -678.70720141 eV

  energy without entropy =     -678.70720141  energy(sigma->0) =     -678.70720141


--------------------------------------------------------------------------------------------------------




--------------------------------------- Iteration      1(  17)  ---------------------------------------


    POTLOK:  cpu time    0.4881: real time    0.4890
    SETDIJ:  cpu time    0.5098: real time    0.5100
     EDDAV:  cpu time   79.2589: real time   79.2983
       DOS:  cpu time    0.0014: real time    0.0014
    CHARGE:  cpu time    3.0687: real time    3.0699
    MIXING:  cpu time    0.0320: real time    0.0320
    --------------------------------------------
      LOOP:  cpu time   83.3589: real time   83.4007

 eigenvalue-minimisations  :  6104
 total energy-change (2. order) : 0.1792960E-06  (-0.6852768E-08)
 number of electron     511.9999998 magnetization 
 augmentation part      -29.4705311 magnetization 

 Broyden mixing:
  rms(total) = 0.19598E-04    rms(broyden)= 0.19028E-04
  rms(prec ) = 0.24924E-04
  weight for this iteration     100.00

 eigenvalues of (default mixing * dielectric matrix)
  average eigenvalue GAMMA=   1.6921
  3.2853  2.6210  2.2332  1.9010  1.9010  1.4618  1.4618  0.9447  0.9447  1.1090
  1.2210  1.2210

 Free energy of the ion-electron system (eV)
  ---------------------------------------------------
  alpha Z        PSCENC =       210.77028614
  Ewald energy   TEWEN  =    -14470.85895996
  -Hartree energ DENC   =     -1001.75352977
  -exchange      EXHF   =         0.00000000
  -V(xc)+E(xc)   XCENC  =     -1155.88938298
  PAW double counting   =      4730.31488948    -2492.02657559
  entropy T*S    EENTRO =        -0.00000000
  eigenvalues    EBANDS =       308.25521147
  atomic energy  EATOM  =     13192.48085998
  Solvation  Ediel_sol  =         0.00000000
  ---------------------------------------------------
  free energy    TOTEN  =      -678.70720123 eV

  energy without entropy =     -678.70720123  energy(sigma->0) =     -678.70720123


--------------------------------------------------------------------------------------------------------




--------------------------------------- Iteration      1(  18)  ---------------------------------------


    POTLOK:  cpu time    0.4875: real time    0.4888
    SETDIJ:  cpu time    0.5089: real time    0.5093
     EDDAV:  cpu time   53.5551: real time   53.5755
       DOS:  cpu time    0.0014: real time    0.0014
    CHARGE:  cpu time    3.0705: real time    3.0741
    MIXING:  cpu time    0.0264: real time    0.0264
    --------------------------------------------
      LOOP:  cpu time   57.6499: real time   57.6755

 eigenvalue-minimisations  :  3512
 total energy-change (2. order) :-0.1946410E-06  (-0.1748175E-08)
 number of electron     511.9999998 magnetization 
 augmentation part      -29.4705246 magnetization 

 Broyden mixing:
  rms(total) = 0.89059E-05    rms(broyden)= 0.75707E-05
  rms(prec ) = 0.99476E-05
  weight for this iteration     100.00
  WARNING: grid for Broyden might be to small

 eigenvalues of (default mixing * dielectric matrix)
  average eigenvalue GAMMA=   1.7140
  3.3119  2.6432  2.6432  2.2778  1.7481  1.7481  1.3126  1.3126  0.9419  0.9419
  1.0337  1.1835  1.1835

 Free energy of the ion-electron system (eV)
  ---------------------------------------------------
  alpha Z        PSCENC =       210.77028614
  Ewald energy   TEWEN  =    -14470.85895996
  -Hartree energ DENC   =     -1001.75488961
  -exchange      EXHF   =         0.00000000
  -V(xc)+E(xc)   XCENC  =     -1155.88925363
  PAW double counting   =      4730.32054313    -2492.03235241
  entropy T*S    EENTRO =        -0.00000000
  eigenvalues    EBANDS =       308.25656493
  atomic energy  EATOM  =     13192.48085998
  Solvation  Ediel_sol  =         0.00000000
  ---------------------------------------------------
  free energy    TOTEN  =      -678.70720143 eV

  energy without entropy =     -678.70720143  energy(sigma->0) =     -678.70720143


--------------------------------------------------------------------------------------------------------




--------------------------------------- Iteration      1(  19)  ---------------------------------------


    POTLOK:  cpu time    0.4851: real time    0.4881
    SETDIJ:  cpu time    0.5123: real time    0.5124
     EDDAV:  cpu time   51.0723: real time   51.0987
       DOS:  cpu time    0.0013: real time    0.0013
    CHARGE:  cpu time    3.0763: real time    3.0765
    MIXING:  cpu time    0.0346: real time    0.0346
    --------------------------------------------
      LOOP:  cpu time   55.1819: real time   55.2115

 eigenvalue-minimisations  :  3264
 total energy-change (2. order) : 0.6900154E-07  (-0.3582641E-09)
 number of electron     511.9999998 magnetization 
 augmentation part      -29.4705254 magnetization 

 Broyden mixing:
  rms(total) = 0.57788E-05    rms(broyden)= 0.33755E-05
  rms(prec ) = 0.48281E-05
  weight for this iteration     100.00
  WARNING: grid for Broyden might be to small

 eigenvalues of (default mixing * dielectric matrix)
  average eigenvalue GAMMA=   1.6489
  3.3212  2.6963  2.3233  2.3233  1.7225  1.7225  1.2552  1.2552  1.3462  1.3462
  1.0172  1.0172  0.9120  0.8263

 Free energy of the ion-electron system (eV)
  ---------------------------------------------------
  alpha Z        PSCENC =       210.77028614
  Ewald energy   TEWEN  =    -14470.85895996
  -Hartree energ DENC   =     -1001.75459158
  -exchange      EXHF   =         0.00000000
  -V(xc)+E(xc)   XCENC  =     -1155.88925901
  PAW double counting   =      4730.32046501    -2492.03221074
  entropy T*S    EENTRO =        -0.00000000
  eigenvalues    EBANDS =       308.25620879
  atomic energy  EATOM  =     13192.48085998
  Solvation  Ediel_sol  =         0.00000000
  ---------------------------------------------------
  free energy    TOTEN  =      -678.70720136 eV

  energy without entropy =     -678.70720136  energy(sigma->0) =     -678.70720136


--------------------------------------------------------------------------------------------------------




--------------------------------------- Iteration      1(  20)  ---------------------------------------


    POTLOK:  cpu time    0.4879: real time    0.4899
    SETDIJ:  cpu time    0.5118: real time    0.5118
     EDDAV:  cpu time   50.0733: real time   50.0875
       DOS:  cpu time    0.0011: real time    0.0011
    CHARGE:  cpu time    3.0433: real time    3.0436
    MIXING:  cpu time    0.0323: real time    0.0323
    --------------------------------------------
      LOOP:  cpu time   54.1496: real time   54.1662

 eigenvalue-minimisations  :  3160
 total energy-change (2. order) :-0.2087290E-07  (-0.6888086E-10)
 number of electron     511.9999998 magnetization 
 augmentation part      -29.4705244 magnetization 

 Broyden mixing:
  rms(total) = 0.51635E-05    rms(broyden)= 0.21590E-05
  rms(prec ) = 0.29621E-05
  weight for this iteration     100.00
  WARNING: grid for Broyden might be to small

 eigenvalues of (default mixing * dielectric matrix)
  average eigenvalue GAMMA=   1.6616
  3.2967  2.6843  2.3181  2.3181  1.9077  1.9077  1.3753  1.3753  1.4319  1.2984
  0.9290  0.9529  0.9529  1.0877  1.0877

 Free energy of the ion-electron system (eV)
  ---------------------------------------------------
  alpha Z        PSCENC =       210.77028614
  Ewald energy   TEWEN  =    -14470.85895996
  -Hartree energ DENC   =     -1001.75471846
  -exchange      EXHF   =         0.00000000
  -V(xc)+E(xc)   XCENC  =     -1155.88924810
  PAW double counting   =      4730.32082397    -2492.03258589
  entropy T*S    EENTRO =        -0.00000000
  eigenvalues    EBANDS =       308.25634093
  atomic energy  EATOM  =     13192.48085998
  Solvation  Ediel_sol  =         0.00000000
  ---------------------------------------------------
  free energy    TOTEN  =      -678.70720138 eV

  energy without entropy =     -678.70720138  energy(sigma->0) =     -678.70720138


--------------------------------------------------------------------------------------------------------




--------------------------------------- Iteration      1(  21)  ---------------------------------------


    POTLOK:  cpu time    0.4862: real time    0.4896
    SETDIJ:  cpu time    0.5114: real time    0.5114
     EDDAV:  cpu time   49.9440: real time   49.9608
       DOS:  cpu time    0.0011: real time    0.0011
    --------------------------------------------
      LOOP:  cpu time   50.9426: real time   50.9628

 eigenvalue-minimisations  :  3152
 total energy-change (2. order) : 0.3477908E-08  (-0.1983186E-10)
 number of electron     511.9999998 magnetization 
 augmentation part      -29.4705244 magnetization 

 Free energy of the ion-electron system (eV)
  ---------------------------------------------------
  alpha Z        PSCENC =       210.77028614
  Ewald energy   TEWEN  =    -14470.85895996
  -Hartree energ DENC   =     -1001.75462978
  -exchange      EXHF   =         0.00000000
  -V(xc)+E(xc)   XCENC  =     -1155.88925719
  PAW double counting   =      4730.32069000    -2492.03245016
  entropy T*S    EENTRO =        -0.00000000
  eigenvalues    EBANDS =       308.25625959
  atomic energy  EATOM  =     13192.48085998
  Solvation  Ediel_sol  =         0.00000000
  ---------------------------------------------------
  free energy    TOTEN  =      -678.70720138 eV

  energy without entropy =     -678.70720138  energy(sigma->0) =     -678.70720138


--------------------------------------------------------------------------------------------------------




 average (electrostatic) potential at core
  the test charge radii are     0.9892
  (the norm of the test charge is              1.0000)
       1 -83.6196       2 -83.6894       3 -83.4784       4 -83.4475       5 -83.5273
       6 -83.4990       7 -83.4815       8 -83.5789       9 -83.5101      10 -83.6474
      11 -83.5790      12 -83.4813      13 -83.6732      14 -83.6972      15 -83.5877
      16 -83.5653      17 -83.4443      18 -83.5857      19 -83.4373      20 -83.4678
      21 -83.4043      22 -83.6445      23 -83.5212      24 -83.4158      25 -83.5685
      26 -83.6736      27 -83.5533      28 -83.3175      29 -83.6245      30 -83.6689
      31 -83.4536      32 -83.5322      33 -83.2953      34 -83.4902      35 -83.5159
      36 -83.3346      37 -83.4576      38 -83.5503      39 -83.4315      40 -83.2949
      41 -83.4182      42 -83.4480      43 -83.3409      44 -83.3117      45 -83.5093
      46 -83.5026      47 -83.5018      48 -83.5844      49 -83.5857      50 -83.6263
      51 -83.5044      52 -83.3842      53 -83.5744      54 -83.5868      55 -83.4566
      56 -83.5742      57 -83.5148      58 -83.5614      59 -83.5333      60 -83.6578
      61 -83.5290      62 -83.6195      63 -83.6986      64 -83.4392      65 -83.5184
      66 -83.5788      67 -83.3833      68 -83.5889      69 -83.4488      70 -83.6019
      71 -83.5499      72 -83.5129      73 -83.4912      74 -83.6781      75 -83.5872
      76 -83.3618      77 -83.6135      78 -83.7527      79 -83.5087      80 -83.5417
      81 -83.4546      82 -83.5875      83 -83.5491      84 -83.4272      85 -83.5404
      86 -83.6730      87 -83.4582      88 -83.3275      89 -83.6184      90 -83.5530
      91 -83.4098      92 -83.4593      93 -83.5898      94 -83.5707      95 -83.5930
      96 -83.6353      97 -83.6077      98 -83.4620      99 -83.3953     100 -83.2074
     101 -83.4754     102 -83.4496     103 -83.3284     104 -83.2761     105 -83.4645
     106 -83.4991     107 -83.4572     108 -83.4439     109 -83.4461     110 -83.4718
     111 -83.5993     112 -83.3938     113 -83.5974     114 -83.6274     115 -83.4512
     116 -83.5253     117 -83.5359     118 -83.5476     119 -83.4386     120 -83.5493
     121 -83.5295     122 -83.4853     123 -83.6963     124 -83.4255     125 -83.7230
     126 -83.7397     127 -83.6446     128 -83.5178
 
 
 
 E-fermi :   5.8644     XC(G=0):  -9.3329     alpha+bet :-11.7321


 k-point     1 :       0.0000    0.0000    0.0000
  band No.  band energies     occupation 
      1      -6.3214      2.00000
      2      -5.7089      2.00000
      3      -5.6958      2.00000
      4      -5.5891      2.00000
      5      -5.5722      2.00000
      6      -5.5483      2.00000
      7      -5.5127      2.00000
      8      -5.4797      2.00000
      9      -5.3978      2.00000
     10      -5.3122      2.00000
     11      -5.2597      2.00000
     12      -5.2275      2.00000
     13      -5.1866      2.00000
     14      -5.1366      2.00000
     15      -5.0348      2.00000
     16      -4.5290      2.00000
     17      -4.4939      2.00000
     18      -4.4613      2.00000
     19      -4.4115      2.00000
     20      -4.3847      2.00000
     21      -4.3528      2.00000
     22      -4.3287      2.00000
     23      -4.2788      2.00000
     24      -4.2270      2.00000
     25      -4.2171      2.00000
     26      -4.1551      2.00000
     27      -4.1322      2.00000
     28      -4.0630      2.00000
     29      -4.0256      2.00000
     30      -3.9955      2.00000
     31      -3.9216      2.00000
     32      -3.8694      2.00000
     33      -3.7999      2.00000
     34      -3.7933      2.00000
     35      -3.7252      2.00000
     36      -3.7181      2.00000
     37      -3.7084      2.00000
     38      -3.6676      2.00000
     39      -3.6643      2.00000
     40      -3.6477      2.00000
     41      -3.6240      2.00000
     42      -3.6104      2.00000
     43      -3.5544      2.00000
     44      -3.5440      2.00000
     45      -3.5192      2.00000
[...]
   0.448E+01 0.259E+01 -.662E+00   -.389E+01 -.169E+01 0.451E+00   -.343E+00 -.160E+01 -.798E+00   0.193E-06 -.157E-05 0.244E-06
   -.772E+01 0.117E+00 -.291E+01   0.757E+01 -.198E+00 0.265E+01   0.225E+01 0.436E+00 0.118E+01   -.103E-06 0.763E-06 -.690E-07
   -.312E+01 0.845E+00 -.129E+02   0.315E+01 -.106E+01 0.115E+02   0.597E+00 0.130E+01 0.388E+01   -.110E-05 0.101E-05 0.145E-06
   -.232E+01 0.837E+01 -.108E+02   0.224E+01 -.837E+01 0.102E+02   0.171E+01 -.193E+00 0.251E+01   0.289E-06 0.566E-07 -.200E-06
   0.986E+01 -.465E+01 -.246E+01   -.858E+01 0.412E+01 0.228E+01   -.218E+01 0.174E+01 0.147E+00   0.120E-06 0.129E-05 0.580E-06
   0.143E+01 -.995E+01 -.184E+01   -.995E+00 0.921E+01 0.149E+01   -.591E+00 0.246E+01 0.130E+01   -.736E-06 0.575E-06 0.373E-06
   -.113E+02 0.194E+01 0.105E+02   0.102E+02 -.999E+00 -.949E+01   0.230E+01 -.113E+01 -.224E+01   0.119E-05 -.204E-05 -.161E-05
   -.539E+01 -.160E+01 0.497E+01   0.468E+01 0.125E+01 -.443E+01   0.197E+00 -.332E+00 -.175E+01   -.866E-06 -.285E-06 -.855E-06
   -.504E+01 -.987E+01 0.670E+01   0.492E+01 0.878E+01 -.661E+01   0.839E+00 0.193E+01 -.294E+00   -.615E-06 0.173E-05 0.138E-05
   0.166E+01 0.260E+01 -.700E+01   -.208E+01 -.198E+01 0.577E+01   -.676E-01 -.581E+00 0.128E+01   0.842E-06 -.191E-05 0.123E-05
   0.853E+01 -.279E+01 0.515E+01   -.764E+01 0.307E+01 -.466E+01   -.270E+01 0.137E+01 -.301E+00   -.195E-06 -.654E-07 0.941E-06
   0.692E+01 -.427E+01 0.103E+02   -.655E+01 0.409E+01 -.959E+01   -.137E+01 -.489E+00 -.209E+01   0.999E-06 -.459E-06 -.113E-05
   0.655E+01 0.707E+00 -.310E+00   -.536E+01 -.370E+00 -.262E+00   -.795E+00 -.358E+00 0.946E+00   -.804E-06 -.127E-06 0.148E-05
   -.614E+01 0.170E+01 -.598E+01   0.610E+01 -.169E+01 0.538E+01   0.165E+01 -.797E-01 0.173E+01   -.691E-06 -.148E-06 0.148E-05
   -.138E+01 0.342E+01 -.331E+01   0.183E+01 -.240E+01 0.201E+01   -.877E+00 -.114E+01 0.301E+01   -.143E-05 -.203E-05 0.243E-05
   0.285E+01 -.153E+01 0.213E+01   -.239E+01 0.208E+01 -.137E+01   -.166E+01 -.101E+01 -.160E+00   0.390E-06 -.131E-05 -.727E-06
   -.679E+01 -.927E+00 0.520E+01   0.636E+01 0.966E+00 -.519E+01   0.668E+00 -.720E+00 -.205E+01   -.744E-06 -.556E-07 -.873E-06
   -.389E+01 -.226E+01 0.287E+01   0.387E+01 0.176E+01 -.340E+01   0.334E+00 0.971E+00 0.682E+00   -.122E-05 0.238E-06 0.128E-05
   -.989E+01 0.187E+00 0.311E+01   0.946E+01 -.408E-01 -.244E+01   0.101E+01 -.271E-01 -.738E+00   -.117E-05 0.701E-06 -.956E-06
   -.759E+01 0.800E+00 -.374E+01   0.718E+01 -.348E+00 0.379E+01   0.121E+01 -.189E+01 -.942E-01   -.684E-06 -.138E-05 0.277E-06
   0.206E+01 -.239E+01 -.378E+00   -.194E+01 0.200E+01 0.458E+00   -.471E+00 -.146E+01 0.130E+00   -.176E-05 -.114E-05 0.660E-06
   0.720E+01 -.736E+01 -.621E+01   -.688E+01 0.668E+01 0.571E+01   -.333E+01 0.146E+01 0.110E+01   -.196E-05 -.300E-06 -.943E-06
   -.932E+01 0.884E+01 -.853E+01   0.779E+01 -.878E+01 0.775E+01   0.198E+01 -.137E+01 0.276E+01   0.101E-05 0.249E-05 -.891E-06
   0.771E+00 0.233E+01 -.556E+01   -.567E+00 -.156E+01 0.545E+01   -.660E+00 -.739E+00 0.628E+00   -.443E-06 -.285E-06 -.798E-06
   -.123E+02 0.106E+02 -.448E+01   0.108E+02 -.103E+02 0.418E+01   0.318E+01 -.132E+01 0.110E+01   0.698E-06 0.742E-06 0.262E-06
   0.269E+01 -.818E+01 0.426E+01   -.274E+01 0.743E+01 -.387E+01   0.163E+00 0.115E+01 -.373E+00   0.114E-05 -.130E-05 0.366E-06
   -.324E+01 0.130E+01 -.122E+01   0.271E+01 -.958E+00 0.950E+00   0.511E-01 -.247E+01 0.225E+01   0.188E-06 -.156E-05 0.994E-06
   0.130E+01 -.766E+01 0.538E+01   -.169E+01 0.785E+01 -.518E+01   0.273E+00 -.251E+00 0.568E+00   0.820E-06 -.148E-05 0.129E-05
   0.455E+01 -.720E+01 0.103E+02   -.386E+01 0.583E+01 -.903E+01   -.264E+01 0.188E+01 -.240E+01   -.251E-05 0.811E-06 0.660E-07
   0.368E+01 -.341E+01 -.211E+01   -.393E+01 0.241E+01 0.211E+01   0.343E+00 0.108E+01 0.103E+01   0.543E-06 0.810E-06 -.272E-06
   -.966E+00 -.694E+01 0.116E+02   0.704E+00 0.612E+01 -.103E+02   0.324E+00 0.164E+01 -.169E+01   -.700E-06 0.143E-05 0.886E-06
   -.509E+01 -.140E+02 -.563E+01   0.394E+01 0.126E+02 0.541E+01   0.263E+01 0.395E+01 0.277E+01   0.266E-05 0.116E-05 0.150E-05
   -.294E+01 0.111E+02 -.612E+01   0.176E+01 -.106E+02 0.536E+01   0.832E+00 -.322E+01 0.100E+00   0.142E-05 -.140E-05 -.221E-07
   0.738E+01 0.150E+01 -.328E+01   -.605E+01 -.164E+01 0.337E+01   -.191E+01 -.773E-01 0.870E+00   -.110E-06 -.986E-06 -.802E-06
   -.862E+01 0.697E+01 0.464E+01   0.797E+01 -.698E+01 -.364E+01   0.267E+01 -.109E+01 -.151E+01   0.914E-06 0.929E-06 -.108E-05
   0.304E+01 0.662E+00 0.609E+00   -.299E+01 -.754E+00 0.486E+00   -.844E+00 -.623E+00 -.182E+01   0.369E-06 0.739E-06 -.331E-05
   0.550E+00 0.386E+01 -.325E+01   -.352E-01 -.428E+01 0.352E+01   0.315E+00 0.326E+00 0.615E+00   0.743E-06 0.167E-05 0.267E-06
   0.774E+01 0.547E+01 -.137E+01   -.688E+01 -.493E+01 0.744E+00   -.161E+01 -.121E+01 -.458E+00   -.163E-05 0.129E-05 -.257E-06
   -.132E+01 -.218E+01 -.812E+01   0.967E+00 0.252E+01 0.784E+01   0.134E+00 -.118E+00 0.141E+01   -.496E-06 0.138E-06 -.530E-06
   -.258E+01 0.647E+01 0.361E+01   0.228E+01 -.602E+01 -.357E+01   0.950E+00 -.131E+01 -.781E+00   -.276E-06 -.200E-06 -.137E-05
   -.611E+01 0.128E+02 -.427E+01   0.489E+01 -.116E+02 0.401E+01   0.135E+01 -.175E+01 0.510E+00   0.307E-06 0.339E-06 -.689E-06
   0.190E+01 -.570E+01 0.150E+00   -.216E+01 0.512E+01 0.446E+00   -.286E+00 0.184E+01 -.198E+01   -.145E-06 0.285E-06 -.938E-06
   0.729E+01 -.240E+01 0.494E+01   -.694E+01 0.229E+01 -.399E+01   -.128E+01 0.108E+01 -.189E+01   0.222E-06 0.571E-06 -.462E-06
   0.411E+01 -.231E+01 0.668E+01   -.375E+01 0.212E+01 -.659E+01   -.534E+00 0.154E+01 -.101E+01   0.165E-06 -.409E-06 -.507E-06
   0.827E+01 0.843E+00 -.143E+01   -.803E+01 -.805E+00 0.595E+00   -.175E+01 -.184E-01 -.921E+00   0.158E-06 0.250E-06 0.167E-05
   -.663E+01 -.104E+01 0.169E+01   0.588E+01 0.128E+01 -.120E+01   0.279E+01 -.401E+00 -.760E+00   0.220E-05 -.984E-06 -.250E-06
   0.307E+01 0.487E+01 0.660E+01   -.265E+01 -.387E+01 -.582E+01   -.685E-01 -.136E+01 -.201E+00   0.134E-06 -.164E-05 0.424E-06
   0.126E+02 0.459E+01 -.655E+01   -.109E+02 -.400E+01 0.520E+01   -.472E+01 -.256E+01 0.301E+01   -.619E-06 -.241E-05 0.211E-05
   0.959E+00 0.433E+00 0.485E+01   -.167E+00 -.378E+00 -.431E+01   -.718E+00 0.202E+00 -.217E+01   -.105E-06 0.114E-08 -.342E-06
   -.188E+01 -.359E+01 -.652E+00   0.116E+01 0.305E+01 0.814E+00   0.103E+01 0.114E+01 0.278E-01   0.130E-05 0.933E-06 -.308E-06
   -.818E+01 0.131E+00 0.584E+01   0.738E+01 -.742E+00 -.501E+01   0.187E+01 0.863E+00 -.205E+01   -.933E-07 0.856E-06 -.523E-06
   -.597E+01 0.934E+01 -.433E+01   0.600E+01 -.882E+01 0.506E+01   0.896E+00 -.173E+01 -.113E+01   0.817E-06 -.518E-06 -.181E-05
   -.339E+01 -.810E+01 0.302E+01   0.354E+01 0.700E+01 -.255E+01   0.846E+00 0.252E+01 -.123E+01   -.146E-05 0.108E-05 -.134E-06
 -----------------------------------------------------------------------------------------------
   0.369E+00 0.463E+00 -.491E+00   -.273E-12 -.137E-12 -.764E-13   -.369E+00 -.463E+00 0.491E+00   -.585E-06 -.124E-05 -.972E-06
 
 
 POSITION                                       TOTAL-FORCE (eV/Angst)
 -----------------------------------------------------------------------------------
     10.96266     21.70832     10.88997        -0.012660      1.417134     -0.276080
      0.06836      2.70964      2.67516        -0.722479      0.156443      0.148205
     11.03430      5.60361     16.38149        -1.613412     -1.242610     -0.925102
     10.85487      8.33318     19.14736         0.005404     -2.110088     -0.574401
      2.77992     11.02945     13.60845        -0.865942     -1.060649      1.591436
      2.70546      2.89536      5.47681         0.764561     -3.452541      0.554768
      2.64843      5.54096      8.14249         0.775732     -0.484903      0.717933
     13.50334     19.03829     10.93135         1.147919      1.285032      0.594406
      5.53263     10.99586     16.38859        -1.800525     -0.715788     -0.100591
     16.48810     13.75130      8.38996        -0.172789     -0.699390     -2.475655
     16.47454     16.28530     11.15232         2.174019      3.139751     -3.062144
      5.45307      8.26170     13.53916         1.171244     -1.064977      2.463947
      8.19947      0.12406      8.21049        -0.111546     -2.475978     -0.138672
      8.29784      2.80385     11.00059        -1.197571     -1.993689     -0.606230
     19.09260     16.42924     13.67041         0.589112     -2.209003     -0.011864
      8.28547      8.23571     16.36318        -1.652067     -0.553871      0.529877
      2.66061      2.63675      0.08303         1.074272      0.344692     -1.817064
     13.48150      5.52105     13.76553         1.684483     -0.914202     -1.069631
      2.79539      8.02223      5.45189        -0.439027      2.646477      0.951712
      2.72075     10.80168      8.17560         0.286848      1.273468     -0.580184
      5.50739      2.89922      2.68044        -1.085769     -2.125132      0.055142
      5.56598      5.51168      5.36393        -1.045554     -0.930420      0.728797
      5.47655      8.00601      8.29579         1.777126      1.512140     -1.227230
      5.46015     10.81369     10.84208        -1.207943      0.555189      1.426722
      8.15807     13.57876     16.35569         0.073200      0.104102      0.862577
      8.21649      5.66084      8.28673         0.336796     -2.765232     -0.234685
      8.17248      8.22691     10.94420         1.557960     -0.399854      0.542925
      8.25900     10.89011     13.58688        -0.204787      0.777875      0.989313
     11.01564      2.73977      8.29496        -1.618142      0.219471     -0.964441
     10.97177      5.55638     11.01220         0.016865     -0.521942     -1.036641
     10.88331      8.18343     13.69091         0.289988      0.852857     -0.056403
     10.92814     10.78961     16.44269         0.279741      1.886811      0.669354
     16.34457     16.37457     21.80201        -0.097290      0.378632      0.735761
     16.43560      8.30993     13.69079        -0.770264     -1.552518     -1.544278
     16.40237     10.89223     16.32262         0.513376     -0.046121      1.446025
      5.61939     13.76241      8.17956        -1.627349     -1.391354     -0.786319
      7.98264     16.19309     13.64980         2.930716      0.943156      0.026789
      8.14828      8.22708      5.58687         0.578781      0.340135     -1.872849
      8.27756     10.78405      8.32945        -0.010829      1.256156     -0.939446
      8.21269     13.57218     11.13038         0.265359      1.081087     -1.491483
     10.92245     16.30103     16.28682        -1.210053      0.947744      0.655222
     10.86505      8.03153      8.30155         1.471500      2.180754     -2.270464
     10.94666     10.99894     11.08208        -0.834633     -1.183442     -3.241230
     10.94915     13.75866     13.66381         1.908768     -1.532178      1.463906
     13.67078     16.34177     19.09844        -0.385888     -0.205010     -0.545098
     13.72258      8.17196     10.97114        -0.412986     -0.170930     -0.267458
     13.61505     10.90053     13.69081        -0.494750      1.190197      0.393443
     13.80899     13.46744     16.34544        -0.806568      2.150734      0.117895
     19.10452     19.05492     21.75197         1.412159      1.000241      0.545138
     19.07659     10.88017     13.57037         1.316541      0.619725      0.011571
      8.21781     13.56263      5.49332         0.660650      0.844326     -0.617109
     19.09527     16.45459     19.13992         0.480505     -0.343919      0.715534
     11.06454     19.24827     13.60406        -0.984823     -0.902280      1.655185
     10.97653     10.78731      5.45744         0.963941      1.690169     -1.024185
     10.95632     13.67223      8.15435        -0.283297      0.050183      0.177181
     11.11578     16.38629     11.00754        -0.839871      0.204005     -0.214137
     13.77399     19.04534     16.44727        -0.520409     -0.509594      0.360712
     13.72897     10.97371      8.13856        -0.903962     -0.725296      1.436988
     13.81488     13.69025     10.91740        -0.196595     -0.587398      0.470169
     13.64894     16.34120     13.55894         2.443207     -0.191493      1.465287
     16.33518      8.16522      8.33222         0.000141      0.971103     -1.464606
     16.37875     10.98849     10.94893        -0.561191     -0.518114     -0.229894
     16.44840     13.56478     13.63201        -0.047840      1.452655      1.185657
     16.49864     16.53454     16.39160        -1.082721     -1.090839      0.368626
      1.41454      1.36213      1.37820        -1.606641     -1.273949     -0.391298
      1.43104      3.97273      4.12010        -2.155192      2.114113     -0.708743
      1.28827      6.96206      6.80669         0.265298     -0.188916      0.880280
      1.37481      9.43662      9.41878         0.265433      0.994940      1.826938
      4.01770      1.37597      4.06078         1.406876      1.463821      0.638287
      4.10683      4.05426      6.74520         1.349247      1.835948      1.687088
      4.11242      6.99125      9.68427        -0.685444     -3.033980      0.501996
      3.98250      9.50656     12.48522        -0.064699      0.467157     -3.307859
      6.89826      1.24795      6.80336        -1.186997      2.149883      0.594156
      6.99742      4.07733      9.62479        -0.712254      1.459251      0.268416
      7.00035      6.86929     12.39168        -2.055002      0.328895     -1.028224
      6.85342      9.64553     15.07088         0.241027     -0.703002     -1.008967
      9.47332      1.35467      9.56789         2.097745      0.355001      0.924205
      9.62667      4.09542     12.16526         0.629078      1.091812      2.450366
      9.43543      6.86173     14.87458         1.623646     -0.197014      1.868285
      9.55755      9.52676     17.79487        -0.899472      1.215019     -0.031672
      4.04782      4.00805      1.26951        -0.152425      1.729100      0.952690
      4.06962      6.81163      4.10210         1.237535     -0.190198     -1.276653
      4.22367      9.50771      6.94106        -0.514495     -0.677284     -1.205443
      4.03268     12.19727      9.54843         0.713912      0.839474     -0.204664
      6.82369      4.00721      4.15542        -0.486865      0.038797      0.050620
      6.95670      6.67777      6.79823        -1.810658      1.651670      0.187685
      6.89759      9.52070      9.65474        -1.008318     -0.664941     -1.359605
      6.72151     12.22717     12.29458         0.391627     -0.021050      0.374175
      9.37664      4.12873      6.74975         1.612411     -0.063307      1.128154
      9.57519      6.84571      9.60231        -0.430900     -0.115276      1.705315
      9.68266      9.56280     12.25443        -1.195747     -0.459317      0.606750
      9.63806     12.31935     15.17907         0.232497     -0.680909     -2.045475
     12.31310      4.09308      9.64424         0.318335      0.475313      0.156834
     12.25311      6.90423     12.36014         0.577717      0.119240     -0.072551
     12.26387      9.58422     15.05957         0.802846     -1.435766     -0.044844
     12.34114     12.39802     17.76622        -0.351217     -1.845016      0.210998
      7.07731      6.65709      1.21219        -3.007457      0.779898      0.599498
      6.80910      9.67090      3.96842         0.447983     -1.314655      1.988765
      6.91447     12.18670      6.84932        -0.455560      0.029774      0.522223
      6.77564     15.11604      9.57160         1.701063     -0.931182      0.797596
      9.48921      6.78704      4.00767         0.115136      0.393863      0.016965
      9.58135      9.66968      6.75366        -0.479287     -2.128976      1.979204
      9.58601     12.32245      9.55389        -0.112519     -0.056902      0.773446
      9.70673     15.05153     12.40114        -1.952710      0.504605     -1.166975
     12.23118      6.74418      6.73848         0.089796      0.084790      1.020793
     12.26975      9.47286      9.64594         0.062057      0.822320     -0.405800
     12.33869     12.21427     12.15333         1.480659      2.531922      2.547212
     12.47318     15.18196     15.10625        -0.348573     -2.701655     -0.658884
     15.00967      6.78052      9.50757        -0.585724     -0.211879      0.964059
     14.88194      9.66391     12.33806         2.019133     -1.095600     -0.515171
     15.14200     12.25174     14.99816        -0.799264     -0.715413     -0.725933
     15.04622     15.02359     17.62118         0.829697     -0.097511      0.889519
      9.60980      9.55802      1.38662        -0.746914     -0.672801     -1.086493
      9.61865     12.20713      3.93906        -0.222434      0.217549      1.127694
      9.53442     15.16728      6.84376         0.655328     -0.859862     -0.734604
      9.64111     17.77428      9.53847         0.138922     -0.603371      0.241911
     12.45970      9.43665      4.22215        -0.547294      1.259746     -1.382677
     12.36558     12.24588      6.84673        -0.932528      0.971486     -0.945729
     12.36357     14.89533      9.62828        -0.172863      1.353130     -0.923735
     12.40914     17.78511     12.47544        -1.513638      0.019813     -1.757617
     14.93910      9.56530      6.85479         2.039550     -0.167269     -0.274694
     15.05767     12.33824      9.49645         0.347991     -0.357769      0.576407
     15.24184     15.03378     12.29803        -2.987960     -1.970817      1.656791
     15.08758     17.74329     15.06256         0.074259      0.256469     -1.629559
     17.71836      9.56051      9.56779         0.308278      0.603190      0.188904
     17.73977     12.28033     12.32657         1.065423      0.251730     -1.223785
     17.70954     15.08414     15.09109         0.919839     -1.206864     -0.413235
     17.69354     17.75566     17.89223         0.991323      1.431040     -0.765967
 -----------------------------------------------------------------------------------
    total drift:                               -0.000003     -0.000002      0.000009


--------------------------------------------------------------------------------------------------------



  FREE ENERGIE OF THE ION-ELECTRON SYSTEM (eV)
  ---------------------------------------------------
  free  energy   TOTEN  =      -678.70720138 eV

  energy  without entropy=     -678.70720138  energy(sigma->0) =     -678.70720138
 


--------------------------------------------------------------------------------------------------------


    POTLOK:  cpu time    1.0006: real time    1.0008


--------------------------------------------------------------------------------------------------------


     LOOP+:  cpu time 1722.2372: real time 1722.9187
    4ORBIT:  cpu time    0.0000: real time    0.0000

 total amount of memory used by VASP MPI-rank0   221701. kBytes
=======================================================================

   base      :      30000. kBytes
   nonl-proj :      10690. kBytes
   fftplans  :      66746. kBytes
   grid      :      26864. kBytes
   one-center:         24. kBytes
   wavefun   :      87377. kBytes
 
  
  
 General timing and accounting informations for this job:
 ========================================================
  
                  Total CPU time used (sec):     1746.168
                            User time (sec):     1744.993
                          System time (sec):        1.176
                         Elapsed time (sec):     1747.872
  
                   Maximum memory used (kb):      338764.
                   Average memory used (kb):           0.
  
                          Minor page faults:       160727
                          Major page faults:            0
                 Voluntary context switches:         1332
