<?xml version="1.0" encoding="ISO-8859-1"?>
<modeling>
 <generator>
  <i name="program" type="string">vasp </i>
  <i name="version" type="string">5.4.4.18Apr17-6-g9f103f2a35  </i>
  <i name="subversion" type="string">(build Nov 08 2017 09:05:29) complex            parallel </i>
  <i name="platform" type="string">Intel_17.33 </i>
  <i name="date" type="string">2020 07 18 </i>
  <i name="time" type="string">22:11:31 </i>
 </generator>
 <incar>
  <i type="string" name="SYSTEM">potpaw_PBE@./ARUN.APL1ZEROSTATE</i>
  <i type="string" name="PREC">accurate</i>
  <i type="string" name="ALGO">Normal</i>
  <i type="int" name="NSIM">     4</i>
  <i type="logical" name="ADDGRID"> T  </i>
  <i type="int" name="NELM">   120</i>
  <i type="int" name="NELMIN">     4</i>
  <i name="EDIFF">      0.00000001</i>
  <i type="int" name="NSW">     0</i>
  <i type="int" name="ISYM">     2</i>
  <i name="ENMAX">    500.00000000</i>
  <i type="logical" name="LREAL"> F  </i>
  <i type="logical" name="LPLANE"> T  </i>
  <i type="int" name="ISMEAR">     0</i>
  <i name="SIGMA">      0.01000000</i>
  <i type="logical" name="LWAVE"> F  </i>
  <i type="logical" name="LCHARG"> F  </i>
  <i type="logical" name="LELF"> F  </i>
  <i type="logical" name="LAECHG"> F  </i>
  <v type="int" name="KPOINT_BSE">    -1     0     0     0</v>
  <i type="int" name="NELM">   120</i>
 </incar>
 <structure name="primitive_cell" >
  <crystal>
   <varray name="basis" >
    <v>       0.00000000      10.93733369      10.93733369 </v>
    <v>      10.93733369       0.00000000      10.93733369 </v>
    <v>      10.93733369      10.93733369       0.00000000 </v>
   </varray>
   <i name="volume">   2616.76295363 </i>
   <varray name="rec_basis" >
    <v>      -0.04571498       0.04571498       0.04571498 </v>
    <v>       0.04571498      -0.04571498       0.04571498 </v>
    <v>       0.04571498       0.04571498      -0.04571498 </v>
   </varray>
  </crystal>
  <varray name="positions" >
   <v>      -0.01092735       0.00659711      -0.00428156 </v>
   <v>       0.06102212       0.06575624      -0.18713242 </v>
   <v>      -0.20087512       0.06203357       0.06366532 </v>
   <v>       0.06625172      -0.19146006       0.05760528 </v>
   <v>       0.06060873       0.06540020       0.06393113 </v>
   <v>      -0.23995768      -0.00940038       0.00186037 </v>
   <v>      -0.00397163       0.24779029      -0.23615973 </v>
   <v>      -0.24724352       0.24669606      -0.01208613 </v>
   <v>      -0.25683329       0.00432806       0.24443043 </v>
   <v>       0.00270467       0.00488639       0.23837294 </v>
   <v>      -0.00787668      -0.00334160      -0.24993307 </v>
   <v>       0.00617531      -0.25549026       0.00516753 </v>
   <v>      -0.00076304       0.24498271       0.00918543 </v>
   <v>       0.24566973      -0.00493122      -0.25089654 </v>
   <v>       0.00087271      -0.24246501       0.24962421 </v>
   <v>       0.24304128       0.00154893       0.00470141 </v>
   <v>       0.25173434      -0.24595057       0.00462155 </v>
   <v>      -0.19214109       0.06424318      -0.18275710 </v>
   <v>       0.29840641       0.06174164      -0.18230886 </v>
   <v>      -0.18791509      -0.18510050       0.05894672 </v>
   <v>      -0.17670601       0.31822935       0.04589010 </v>
   <v>      -0.19024993       0.06326234       0.30544572 </v>
   <v>      -0.18392340       0.32455248      -0.18998495 </v>
   <v>       0.06445537      -0.18967274      -0.19033845 </v>
   <v>      -0.18521730      -0.19041782       0.31876751 </v>
   <v>       0.06510820      -0.18333545       0.30912201 </v>
   <v>       0.30327371      -0.19100491       0.07117058 </v>
   <v>       0.31393041      -0.18691258      -0.19114062 </v>
   <v>       0.05481703       0.33121400      -0.19202453 </v>
   <v>      -0.25584945       0.26226826      -0.24595270 </v>
   <v>      -0.25465547      -0.24198978       0.24114916 </v>
   <v>      -0.25961768       0.25090833       0.24831260 </v>
   <v>       0.24083671       0.25813722      -0.25455311 </v>
   <v>       0.25411449      -0.25305460      -0.24943724 </v>
   <v>      -0.42567807       0.31111061       0.06488813 </v>
   <v>       0.25585792      -0.24901271       0.25216126 </v>
   <v>      -0.42945524       0.05179062       0.06599573 </v>
   <v>       0.03620467       0.07462538      -0.42754744 </v>
   <v>       0.05968085       0.30673990      -0.43914180 </v>
   <v>       0.31224349       0.05058906      -0.42803326 </v>
   <v>      -0.44112951       0.07575063       0.31041905 </v>
   <v>       0.06487218       0.30640523       0.06093258 </v>
   <v>       0.05271150      -0.43068081       0.06138866 </v>
   <v>       0.30650544      -0.42651125       0.06628505 </v>
   <v>       0.05621766       0.05985371       0.31023863 </v>
   <v>       0.30454370       0.07215721       0.05868314 </v>
   <v>       0.06865695      -0.45152722       0.30883268 </v>
   <v>      -0.49553421       0.24000192       0.00214367 </v>
   <v>      -0.24573731      -0.00430031      -0.24982028 </v>
   <v>      -0.25266146       0.49054614       0.00802796 </v>
   <v>      -0.25707697       0.49677031      -0.24884796 </v>
   <v>      -0.25423260      -0.24968242       0.00722293 </v>
   <v>       0.25440948      -0.00266132      -0.49463282 </v>
   <v>       0.49487609       0.26360806       0.23711272 </v>
   <v>       0.00741747      -0.24560287      -0.26087215 </v>
   <v>       0.25843390      -0.49134061      -0.00115321 </v>
   <v>       0.48817799       0.01028805       0.24529421 </v>
   <v>       0.49136233      -0.24498860      -0.25113458 </v>
   <v>      -0.26838214      -0.23715499       0.49971008 </v>
   <v>      -0.00449323       0.49989322       0.24599910 </v>
   <v>      -0.00481063      -0.24901967       0.49893821 </v>
   <v>      -0.00713409      -0.48909276      -0.25155166 </v>
   <v>       0.49546562       0.00678873      -0.25543479 </v>
   <v>       0.25900573       0.25180152       0.49319572 </v>
   <v>       0.00330370       0.24176923       0.26177153 </v>
   <v>      -0.00065895       0.24865963       0.48119277 </v>
   <v>       0.26537882      -0.00679707       0.23941041 </v>
   <v>       0.25905375       0.24169119       0.00566855 </v>
   <v>      -0.25381375       0.00167074      -0.48788992 </v>
   <v>      -0.49681300      -0.25330149      -0.00106253 </v>
   <v>      -0.18874467       0.32258071      -0.43509470 </v>
   <v>       0.26199630       0.49565904       0.25557428 </v>
   <v>      -0.18351411      -0.42866420       0.30987145 </v>
   <v>      -0.17921720      -0.18489727      -0.19738323 </v>
   <v>      -0.43405231      -0.18905191       0.31033693 </v>
   <v>      -0.18626238       0.31035511       0.30419251 </v>
   <v>       0.31278159       0.30470564      -0.42868333 </v>
   <v>      -0.44410419       0.32441739      -0.19401676 </v>
   <v>      -0.19000921      -0.43282120      -0.18772205 </v>
   <v>      -0.43871807       0.32145094       0.30919502 </v>
   <v>       0.30981125      -0.44155160      -0.18172633 </v>
   <v>       0.30752598       0.31847059      -0.18788578 </v>
   <v>      -0.19548256      -0.19341372      -0.43091134 </v>
   <v>       0.32549216      -0.19742395      -0.44192126 </v>
   <v>       0.31419096      -0.43625207       0.31171169 </v>
   <v>      -0.43013087      -0.19009131      -0.19072638 </v>
   <v>       0.32051990      -0.19043294       0.31073390 </v>
   <v>      -0.49938450      -0.00285691       0.01172246 </v>
   <v>      -0.00956673       0.49867026       0.49996887 </v>
   <v>      -0.00104481       0.49945272       0.00639544 </v>
   <v>      -0.00194978      -0.00469294       0.49907598 </v>
   <v>       0.49429259      -0.00191562      -0.49841637 </v>
   <v>      -0.49882308      -0.48152114      -0.01221225 </v>
   <v>      -0.42963108       0.05535612      -0.18362466 </v>
   <v>      -0.18558629      -0.43324993      -0.42632742 </v>
   <v>      -0.18115327       0.05628440      -0.43678747 </v>
   <v>      -0.18339396      -0.43867602       0.06528396 </v>
   <v>       0.05721136      -0.44111276      -0.44059079 </v>
   <v>      -0.44730744      -0.42828434      -0.17815486 </v>
   <v>      -0.44648735      -0.18223130      -0.43333618 </v>
   <v>       0.06770351      -0.44097048      -0.19314839 </v>
   <v>       0.05844330      -0.18916647      -0.43850027 </v>
   <v>      -0.44586329       0.07209628      -0.43990699 </v>
   <v>      -0.43766574      -0.20235242       0.06503356 </v>
   <v>      -0.43950627      -0.42752310       0.06756490 </v>
   <v>      -0.24692230       0.49620380      -0.49512368 </v>
   <v>       0.49693373       0.24861818      -0.24688202 </v>
   <v>       0.49339113      -0.49521389      -0.24169235 </v>
   <v>      -0.49719764       0.49782578       0.24938332 </v>
   <v>      -0.49754549      -0.25069513       0.24575605 </v>
   <v>      -0.49821919      -0.25003080       0.49485400 </v>
   <v>       0.24779935      -0.24470800       0.49936282 </v>
   <v>      -0.24616596       0.26381609       0.48706946 </v>
   <v>       0.24997077      -0.49095995       0.48435146 </v>
   <v>       0.24609723       0.49801068      -0.24277136 </v>
   <v>       0.49536478       0.26619648       0.49062095 </v>
   <v>      -0.25859480      -0.49915763       0.25427739 </v>
   <v>       0.31287851       0.06217648       0.30990885 </v>
   <v>       0.30595369       0.31076014       0.06472674 </v>
   <v>       0.29802941       0.32353229       0.31251855 </v>
   <v>       0.06120970       0.31872048       0.30516964 </v>
   <v>      -0.24901710      -0.25229929      -0.23923045 </v>
   <v>       0.24272971       0.24769407       0.26120283 </v>
   <v>      -0.43814774       0.31165973      -0.43521115 </v>
   <v>      -0.45009838      -0.43872281      -0.43315147 </v>
   <v>      -0.44526820      -0.43430978       0.31959472 </v>
   <v>       0.31310426      -0.43117613      -0.44700106 </v>
   <v>      -0.49099277      -0.49577278       0.49662545 </v>
  </varray>
 </structure>
 <varray name="primitive_index" >
  <v type="int" >        1 </v>
  <v type="int" >      113 </v>
  <v type="int" >       68 </v>
  <v type="int" >       77 </v>
  <v type="int" >       65 </v>
  <v type="int" >        4 </v>
  <v type="int" >       53 </v>
  <v type="int" >        8 </v>
  <v type="int" >       20 </v>
  <v type="int" >       17 </v>
  <v type="int" >       49 </v>
  <v type="int" >       13 </v>
  <v type="int" >        5 </v>
  <v type="int" >       50 </v>
  <v type="int" >       29 </v>
  <v type="int" >        2 </v>
  <v type="int" >       14 </v>
  <v type="int" >      116 </v>
  <v type="int" >      114 </v>
  <v type="int" >       80 </v>
  <v type="int" >       72 </v>
  <v type="int" >       84 </v>
  <v type="int" >      120 </v>
  <v type="int" >      125 </v>
  <v type="int" >       96 </v>
  <v type="int" >       93 </v>
  <v type="int" >       78 </v>
  <v type="int" >      126 </v>
  <v type="int" >      117 </v>
  <v type="int" >       56 </v>
  <v type="int" >       32 </v>
  <v type="int" >       24 </v>
  <v type="int" >       54 </v>
  <v type="int" >       62 </v>
  <v type="int" >       71 </v>
  <v type="int" >       30 </v>
  <v type="int" >       67 </v>
  <v type="int" >       97 </v>
  <v type="int" >      101 </v>
  <v type="int" >       98 </v>
  <v type="int" >       83 </v>
  <v type="int" >       69 </v>
  <v type="int" >       73 </v>
  <v type="int" >       74 </v>
  <v type="int" >       81 </v>
  <v type="int" >       66 </v>
  <v type="int" >       89 </v>
  <v type="int" >        7 </v>
  <v type="int" >       52 </v>
  <v type="int" >       12 </v>
  <v type="int" >       60 </v>
  <v type="int" >       16 </v>
  <v type="int" >       34 </v>
  <v type="int" >       23 </v>
  <v type="int" >       61 </v>
  <v type="int" >       10 </v>
  <v type="int" >       19 </v>
  <v type="int" >       63 </v>
  <v type="int" >       48 </v>
  <v type="int" >       25 </v>
  <v type="int" >       45 </v>
  <v type="int" >       57 </v>
  <v type="int" >       51 </v>
  <v type="int" >       38 </v>
  <v type="int" >       21 </v>
  <v type="int" >       37 </v>
  <v type="int" >       18 </v>
  <v type="int" >        6 </v>
  <v type="int" >       36 </v>
  <v type="int" >       15 </v>
  <v type="int" >      104 </v>
  <v type="int" >       26 </v>
  <v type="int" >       92 </v>
  <v type="int" >      128 </v>
  <v type="int" >       95 </v>
  <v type="int" >       88 </v>
  <v type="int" >      102 </v>
  <v type="int" >      119 </v>
  <v type="int" >      124 </v>
  <v type="int" >       87 </v>
  <v type="int" >      122 </v>
  <v type="int" >      118 </v>
  <v type="int" >      112 </v>
  <v type="int" >      110 </v>
  <v type="int" >       90 </v>
  <v type="int" >      127 </v>
  <v type="int" >       94 </v>
  <v type="int" >        3 </v>
  <v type="int" >       41 </v>
  <v type="int" >        9 </v>
  <v type="int" >       33 </v>
  <v type="int" >       35 </v>
  <v type="int" >       11 </v>
  <v type="int" >      115 </v>
  <v type="int" >      108 </v>
  <v type="int" >      100 </v>
  <v type="int" >       76 </v>
  <v type="int" >      105 </v>
  <v type="int" >      123 </v>
  <v type="int" >      111 </v>
  <v type="int" >      121 </v>
  <v type="int" >      109 </v>
  <v type="int" >       99 </v>
  <v type="int" >       79 </v>
  <v type="int" >       75 </v>
  <v type="int" >       44 </v>
  <v type="int" >       55 </v>
  <v type="int" >       59 </v>
  <v type="int" >       27 </v>
  <v type="int" >       31 </v>
  <v type="int" >       47 </v>
  <v type="int" >       46 </v>
  <v type="int" >       40 </v>
  <v type="int" >       42 </v>
  <v type="int" >       58 </v>
  <v type="int" >       39 </v>
  <v type="int" >       28 </v>
  <v type="int" >       82 </v>
  <v type="int" >       70 </v>
  <v type="int" >       86 </v>
  <v type="int" >       85 </v>
  <v type="int" >       64 </v>
  <v type="int" >       22 </v>
  <v type="int" >      103 </v>
  <v type="int" >      107 </v>
  <v type="int" >       91 </v>
  <v type="int" >      106 </v>
  <v type="int" >       43 </v>
 </varray>
 <kpoints>
  <generation param="Gamma">
   <v type="int" name="divisions">       2        2        2 </v>
   <v name="usershift">      0.00000000       0.00000000       0.00000000 </v>
   <v name="genvec1">      0.50000000       0.00000000       0.00000000 </v>
   <v name="genvec2">      0.00000000       0.50000000       0.00000000 </v>
   <v name="genvec3">      0.00000000       0.00000000       0.50000000 </v>
   <v name="shift">      0.00000000       0.00000000       0.00000000 </v>
  </generation>
  <varray name="kpointlist" >
   <v>       0.00000000       0.00000000       0.00000000 </v>
   <v>       0.50000000       0.00000000       0.00000000 </v>
   <v>       0.00000000       0.50000000       0.00000000 </v>
   <v>       0.50000000       0.50000000       0.00000000 </v>
   <v>       0.00000000       0.00000000       0.50000000 </v>
   <v>       0.50000000       0.00000000       0.50000000 </v>
   <v>       0.00000000       0.50000000       0.50000000 </v>
   <v>       0.50000000       0.50000000       0.50000000 </v>
  </varray>
  <varray name="weights" >
   <v>       0.12500000 </v>
   <v>       0.12500000 </v>
   <v>       0.12500000 </v>
   <v>       0.12500000 </v>
   <v>       0.12500000 </v>
   <v>       0.12500000 </v>
   <v>       0.12500000 </v>
   <v>       0.12500000 </v>
  </varray>
 </kpoints>
 <parameters>
  <separator name="general" >
   <i type="string" name="SYSTEM">potpaw_PBE@./ARUN.APL1ZEROSTATE</i>
   <i type="logical" name="LCOMPAT"> F  </i>
  </separator>
  <separator name="electronic" >
   <i type="string" name="PREC">accura</i>
   <i name="ENMAX">    500.00000000</i>
   <i name="ENAUG">    322.06900000</i>
   <i name="EDIFF">      0.00000001</i>
   <i type="int" name="IALGO">    38</i>
   <i type="int" name="IWAVPR">    10</i>
   <i type="int" name="NBANDS">   322</i>
   <i name="NELECT">    512.00000000</i>
   <i type="int" name="TURBO">     0</i>
   <i type="int" name="IRESTART">     0</i>
   <i type="int" name="NREBOOT">     0</i>
   <i type="int" name="NMIN">     0</i>
   <i name="EREF">      0.00000000</i>
   <separator name="electronic smearing" >
    <i type="int" name="ISMEAR">     0</i>
    <i name="SIGMA">      0.01000000</i>
    <i name="KSPACING">      0.50000000</i>
    <i type="logical" name="KGAMMA"> T  </i>
   </separator>
   <separator name="electronic projectors" >
    <i type="logical" name="LREAL"> F  </i>
    <v name="ROPT">      0.00000000</v>
    <i type="int" name="LMAXPAW">  -100</i>
    <i type="int" name="LMAXMIX">     2</i>
    <i type="logical" name="NLSPLINE"> F  </i>
   </separator>
   <separator name="electronic startup" >
    <i type="int" name="ISTART">     0</i>
    <i type="int" name="ICHARG">     2</i>
    <i type="int" name="INIWAV">     1</i>
   </separator>
   <separator name="electronic spin" >
    <i type="int" name="ISPIN">     1</i>
    <i type="logical" name="LNONCOLLINEAR"> F  </i>
    <v name="MAGMOM">      1.00000000      1.00000000      1.00000000      1.00000000      1.00000000      1.00000000      1.00000000      1.00000000      1.00000000      1.00000000      1.00000000      1.00000000      1.00000000      1.00000000      1.00000000      1.00000000      1.00000000      1.00000000      1.00000000      1.00000000
      1.00000000      1.00000000      1.00000000      1.00000000      1.00000000      1.00000000      1.00000000      1.00000000      1.00000000      1.00000000      1.00000000      1.00000000      1.00000000      1.00000000      1.00000000      1.00000000      1.00000000      1.00000000      1.00000000      1.00000000
      1.00000000      1.00000000      1.00000000      1.00000000      1.00000000      1.00000000      1.00000000      1.00000000      1.00000000      1.00000000      1.00000000      1.00000000      1.00000000      1.00000000      1.00000000      1.00000000      1.00000000      1.00000000      1.00000000      1.00000000
      1.00000000      1.00000000      1.00000000      1.00000000      1.00000000      1.00000000      1.00000000      1.00000000      1.00000000      1.00000000      1.00000000      1.00000000      1.00000000      1.00000000      1.00000000      1.00000000      1.00000000      1.00000000      1.00000000      1.00000000
      1.00000000      1.00000000      1.00000000      1.00000000      1.00000000      1.00000000      1.00000000      1.00000000      1.00000000      1.00000000      1.00000000      1.00000000      1.00000000      1.00000000      1.00000000      1.00000000      1.00000000      1.00000000      1.00000000      1.00000000
      1.00000000      1.00000000      1.00000000      1.00000000      1.00000000      1.00000000      1.00000000      1.00000000      1.00000000      1.00000000      1.00000000      1.00000000      1.00000000      1.00000000      1.00000000      1.00000000      1.00000000      1.00000000      1.00000000      1.00000000
      1.00000000      1.00000000      1.00000000      1.00000000      1.00000000      1.00000000      1.00000000      1.00000000</v>
    <i name="NUPDOWN">     -1.00000000</i>
    <i type="logical" name="LSORBIT"> F  </i>
    <v name="SAXIS">      0.00000000      0.00000000      1.00000000</v>
    <i type="logical" name="LSPIRAL"> F  </i>
    <v name="QSPIRAL">      0.00000000      0.00000000      0.00000000</v>
    <i type="logical" name="LZEROZ"> F  </i>
   </separator>
   <separator name="electronic exchange-correlation" >
    <i type="logical" name="LASPH"> F  </i>
    <i type="logical" name="LMETAGGA"> F  </i>
   </separator>
   <separator name="electronic convergence" >
    <i type="int" name="NELM">   120</i>
    <i type="int" name="NELMDL">    -5</i>
    <i type="int" name="NELMIN">     4</i>
    <i name="ENINI">    500.00000000</i>
    <separator name="electronic convergence detail" >
     <i type="logical" name="LDIAG"> T  </i>
     <i type="logical" name="LSUBROT"> F  </i>
     <i name="WEIMIN">      0.00000000</i>
     <i name="EBREAK">      0.00000000</i>
     <i name="DEPER">      0.30000000</i>
     <i type="int" name="NRMM">     4</i>
     <i name="TIME">      0.40000000</i>
    </separator>
   </separator>
   <separator name="electronic mixer" >
    <i name="AMIX">      0.40000000</i>
    <i name="BMIX">      1.00000000</i>
    <i name="AMIN">      0.10000000</i>
    <i name="AMIX_MAG">      1.60000000</i>
    <i name="BMIX_MAG">      1.00000000</i>
    <separator name="electronic mixer details" >
     <i type="int" name="IMIX">     4</i>
     <i type="logical" name="MIXFIRST"> F  </i>
     <i type="int" name="MAXMIX">   -45</i>
     <i name="WC">    100.00000000</i>
     <i type="int" name="INIMIX">     1</i>
     <i type="int" name="MIXPRE">     1</i>
     <i type="int" name="MREMOVE">     5</i>
    </separator>
   </separator>
   <separator name="electronic dipolcorrection" >
    <i type="logical" name="LDIPOL"> F  </i>
    <i type="logical" name="LMONO"> F  </i>
    <i type="int" name="IDIPOL">     0</i>
    <i name="EPSILON">      1.00000000</i>
    <v name="DIPOL">   -100.00000000   -100.00000000   -100.00000000</v>
    <i name="EFIELD">      0.00000000</i>
   </separator>
  </separator>
  <separator name="grids" >
   <i type="int" name="NGX">   120</i>
   <i type="int" name="NGY">   120</i>
   <i type="int" name="NGZ">   120</i>
   <i type="int" name="NGXF">   240</i>
   <i type="int" name="NGYF">   240</i>
   <i type="int" name="NGZF">   240</i>
   <i type="logical" name="ADDGRID"> T  </i>
  </separator>
  <separator name="ionic" >
   <i type="int" name="NSW">     0</i>
   <i type="int" name="IBRION">    -1</i>
   <i type="int" name="MDALGO">     0</i>
   <i type="int" name="ISIF">     2</i>
   <i name="PSTRESS">      0.00000000</i>
   <i name="EDIFFG">      0.00000010</i>
   <i type="int" name="NFREE">     0</i>
   <i name="POTIM">      0.50000000</i>
   <i name="SMASS">     -3.00000000</i>
   <i name="SCALEE">      1.00000000</i>
  </separator>
  <separator name="ionic md" >
   <i name="TEBEG">      0.00010000</i>
   <i name="TEEND">      0.00010000</i>
   <i type="int" name="NBLOCK">     1</i>
   <i type="int" name="KBLOCK">     1</i>
   <i type="int" name="NPACO">   256</i>
   <i name="APACO">     16.00000000</i>
  </separator>
  <separator name="symmetry" >
   <i type="int" name="ISYM">     2</i>
   <i name="SYMPREC">      0.00001000</i>
  </separator>
  <separator name="dos" >
   <i type="int" name="LORBIT">     0</i>
   <v name="RWIGS">     -1.00000000</v>
   <i type="int" name="NEDOS">   301</i>
   <i name="EMIN">     10.00000000</i>
   <i name="EMAX">    -10.00000000</i>
   <i name="EFERMI">      0.00000000</i>
  </separator>
  <separator name="writing" >
   <i type="int" name="NWRITE">     2</i>
   <i type="logical" name="LWAVE"> F  </i>
   <i type="logical" name="LDOWNSAMPLE"> F  </i>
   <i type="logical" name="LCHARG"> F  </i>
   <i type="logical" name="LPARD"> F  </i>
   <i type="logical" name="LVTOT"> F  </i>
   <i type="logical" name="LVHAR"> F  </i>
   <i type="logical" name="LELF"> F  </i>
   <i type="logical" name="LOPTICS"> F  </i>
   <v name="STM">      0.00000000      0.00000000      0.00000000      0.00000000      0.00000000      0.00000000      0.00000000</v>
  </separator>
  <separator name="performance" >
   <i type="int" name="NPAR">     2</i>
   <i type="int" name="NSIM">     4</i>
   <i type="int" name="NBLK">    -1</i>
   <i type="logical" name="LPLANE"> T  </i>
   <i type="logical" name="LSCALAPACK"> T  </i>
   <i type="logical" name="LSCAAWARE"> F  </i>
   <i type="logical" name="LSCALU"> F  </i>
   <i type="logical" name="LASYNC"> F  </i>
   <i type="logical" name="LORBITALREAL"> F  </i>
  </separator>
  <separator name="miscellaneous" >
   <i type="int" name="IDIOT">     3</i>
   <i type="int" name="ISPECIAL">     0</i>
   <i type="logical" name="LMUSIC"> F  </i>
   <v name="POMASS">     28.08500000</v>
   <v name="DARWINR">      0.00000000</v>
   <v name="DARWINV">      1.00000000</v>
   <i type="logical" name="LCORR"> T  </i>
  </separator>
  <i type="logical" name="GGA_COMPAT"> T  </i>
  <i type="logical" name="LBERRY"> F  </i>
  <i type="int" name="ICORELEVEL">     0</i>
  <i type="logical" name="LDAU"> F  </i>
  <i type="int" name="I_CONSTRAINED_M">     0</i>
  <separator name="electronic exchange-correlation" >
   <i type="string" name="GGA">--</i>
   <i type="int" name="VOSKOWN">     0</i>
   <i type="logical" name="LHFCALC"> F  </i>
   <i type="string" name="PRECFOCK"></i>
   <i type="logical" name="LSYMGRAD"> F  </i>
   <i type="logical" name="LHFONE"> F  </i>
   <i type="logical" name="LRHFCALC"> F  </i>
   <i type="logical" name="LTHOMAS"> F  </i>
   <i type="logical" name="LMODELHF"> F  </i>
   <i name="ENCUT4O">     -1.00000000</i>
   <i type="int" name="EXXOEP">     0</i>
   <i type="int" name="FOURORBIT">     0</i>
   <i name="AEXX">      0.00000000</i>
   <i name="HFALPHA">      0.00000000</i>
   <i name="MCALPHA">      0.00000000</i>
   <i name="ALDAX">      1.00000000</i>
   <i name="AGGAX">      1.00000000</i>
   <i name="ALDAC">      1.00000000</i>
   <i name="AGGAC">      1.00000000</i>
   <i type="int" name="NKREDX">     1</i>
   <i type="int" name="NKREDY">     1</i>
   <i type="int" name="NKREDZ">     1</i>
   <i type="logical" name="SHIFTRED"> F  </i>
   <i type="logical" name="ODDONLY"> F  </i>
   <i type="logical" name="EVENONLY"> F  </i>
   <i type="int" name="LMAXFOCK">     0</i>
   <i type="int" name="NMAXFOCKAE">     0</i>
   <i type="logical" name="LFOCKAEDFT"> F  </i>
   <i name="HFSCREEN">      0.00000000</i>
   <i name="HFSCREENC">      0.00000000</i>
   <i type="int" name="NBANDSGWLOW">     0</i>
  </separator>
  <separator name="vdW DFT" >
   <i type="logical" name="LUSE_VDW"> F  </i>
   <i name="Zab_VDW">     -0.84910000</i>
   <i name="PARAM1">      0.12340000</i>
   <i name="PARAM2">      1.00000000</i>
   <i name="PARAM3">      0.00000000</i>
  </separator>
  <separator name="model GW" >
   <i type="int" name="MODEL_GW">     0</i>
   <i name="MODEL_EPS0">     12.26607635</i>
   <i name="MODEL_ALPHA">      1.00000000</i>
  </separator>
  <separator name="linear response parameters" >
   <i type="logical" name="LEPSILON"> F  </i>
   <i type="logical" name="LRPA"> F  </i>
   <i type="logical" name="LNABLA"> F  </i>
   <i type="logical" name="LVEL"> F  </i>
   <i type="int" name="KINTER">     0</i>
   <i name="CSHIFT">      0.10000000</i>
   <i name="OMEGAMAX">     -1.00000000</i>
   <i name="DEG_THRESHOLD">      0.00200000</i>
   <i name="RTIME">     -0.10000000</i>
   <i name="WPLASMAI">      0.00000000</i>
   <v name="DFIELD">      0.00000000      0.00000000      0.00000000</v>
   <v name="WPLASMA">      0.00000000      0.00000000      0.00000000      0.00000000      0.00000000      0.00000000      0.00000000      0.00000000      0.00000000</v>
  </separator>
  <separator name="orbital magnetization" >
   <i type="logical" name="NUCIND"> F  </i>
   <v name="MAGPOS">      0.00000000      0.00000000      0.00000000</v>
   <i type="logical" name="LNICSALL"> T  </i>
   <i type="logical" name="ORBITALMAG"> F  </i>
   <i type="logical" name="LMAGBLOCH"> F  </i>
   <i type="logical" name="LCHIMAG"> F  </i>
   <i type="logical" name="LGAUGE"> T  </i>
   <i type="int" name="MAGATOM">     0</i>
   <v name="MAGDIPOL">      0.00000000      0.00000000      0.00000000</v>
   <v name="AVECCONST">      0.00000000      0.00000000      0.00000000</v>
  </separator>
  <separator name="response functions" >
   <i type="logical" name="LADDER"> F  </i>
   <i type="logical" name="LRPAFORCE"> F  </i>
   <i type="logical" name="LFXC"> F  </i>
   <i type="logical" name="LHARTREE"> T  </i>
   <i type="int" name="IBSE">     0</i>
   <v type="int" name="KPOINT">    -1     0     0     0</v>
   <i type="logical" name="LTCTE"> F  </i>
   <i type="logical" name="LTETE"> F  </i>
   <i type="logical" name="LTRIPLET"> F  </i>
   <i type="logical" name="LFXCEPS"> F  </i>
   <i type="logical" name="LFXHEG"> F  </i>
   <i type="int" name="NATURALO">     2</i>
   <i type="logical" name="L2ORDER"> F  </i>
   <i type="logical" name="LMP2LT"> F  </i>
   <i type="logical" name="LUSEW"> F  </i>
   <i name="ENCUTGW">     -2.00000000</i>
   <i name="ENCUTGWSOFT">     -2.00000000</i>
   <i name="ENCUTLF">     -1.00000000</i>
   <i type="int" name="LMAXMP2">    -1</i>
   <i name="SCISSOR">      0.00000000</i>
   <i type="int" name="NOMEGA">     0</i>
   <i type="int" name="NOMEGAR">     0</i>
   <i type="int" name="NBANDSGW">    -1</i>
   <i type="int" name="NBANDSO">    -1</i>
   <i type="int" name="NBANDSV">    -1</i>
   <i type="int" name="NELM">   120</i>
   <i type="int" name="NELMHF">     1</i>
   <i type="int" name="DIM">     3</i>
   <i type="int" name="ANTIRES">     0</i>
   <i name="OMEGAMAX">    -30.00000000</i>
   <i name="OMEGAMIN">    -30.00000000</i>
   <i name="OMEGATL">   -200.00000000</i>
   <i type="int" name="OMEGAGRID">   140</i>
   <i name="CSHIFT">     -0.10000000</i>
   <i type="logical" name="SELFENERGY"> F  </i>
   <i type="logical" name="LSPECTRAL"> F  </i>
   <i type="logical" name="LSPECTRALGW"> F  </i>
   <i type="logical" name="LSINGLES"> F  </i>
   <i type="logical" name="LFERMIGW"> F  </i>
   <i type="logical" name="ODDONLYGW"> F  </i>
   <i type="logical" name="EVENONLYGW"> F  </i>
   <i type="int" name="NKREDLFX">     1</i>
   <i type="int" name="NKREDLFY">     1</i>
   <i type="int" name="NKREDLFZ">     1</i>
   <i type="int" name="MAXMEM">  2800</i>
   <i type="int" name="TELESCOPE">     0</i>
   <i type="int" name="TAUPAR">     1</i>
   <i type="int" name="OMEGAPAR">    -1</i>
   <i name="LAMBDA">      1.00000000</i>
  </separator>
  <separator name="External order field" >
   <i name="OFIELD_KAPPA">      0.00000000</i>
   <v name="OFIELD_K">      0.00000000      0.00000000      0.00000000</v>
   <i name="OFIELD_Q6_NEAR">      0.00000000</i>
   <i name="OFIELD_Q6_FAR">      0.00000000</i>
   <i name="OFIELD_A">      0.00000000</i>
  </separator>
 </parameters>
 <atominfo>
  <atoms>     128 </atoms>
  <types>       1 </types>
  <array name="atoms" >
   <dimension dim="1">ion</dimension>
   <field type="string">element</field>
   <field type="int">atomtype</field>
   <set>
    <rc><c>Si</c><c>   1</c></rc>
    <rc><c>Si</c><c>   1</c></rc>
    <rc><c>Si</c><c>   1</c></rc>
    <rc><c>Si</c><c>   1</c></rc>
    <rc><c>Si</c><c>   1</c></rc>
    <rc><c>Si</c><c>   1</c></rc>
    <rc><c>Si</c><c>   1</c></rc>
    <rc><c>Si</c><c>   1</c></rc>
    <rc><c>Si</c><c>   1</c></rc>
    <rc><c>Si</c><c>   1</c></rc>
    <rc><c>Si</c><c>   1</c></rc>
    <rc><c>Si</c><c>   1</c></rc>
    <rc><c>Si</c><c>   1</c></rc>
    <rc><c>Si</c><c>   1</c></rc>
    <rc><c>Si</c><c>   1</c></rc>
    <rc><c>Si</c><c>   1</c></rc>
    <rc><c>Si</c><c>   1</c></rc>
    <rc><c>Si</c><c>   1</c></rc>
    <rc><c>Si</c><c>   1</c></rc>
    <rc><c>Si</c><c>   1</c></rc>
    <rc><c>Si</c><c>   1</c></rc>
    <rc><c>Si</c><c>   1</c></rc>
    <rc><c>Si</c><c>   1</c></rc>
    <rc><c>Si</c><c>   1</c></rc>
    <rc><c>Si</c><c>   1</c></rc>
    <rc><c>Si</c><c>   1</c></rc>
    <rc><c>Si</c><c>   1</c></rc>
    <rc><c>Si</c><c>   1</c></rc>
    <rc><c>Si</c><c>   1</c></rc>
    <rc><c>Si</c><c>   1</c></rc>
    <rc><c>Si</c><c>   1</c></rc>
    <rc><c>Si</c><c>   1</c></rc>
    <rc><c>Si</c><c>   1</c></rc>
    <rc><c>Si</c><c>   1</c></rc>
    <rc><c>Si</c><c>   1</c></rc>
    <rc><c>Si</c><c>   1</c></rc>
    <rc><c>Si</c><c>   1</c></rc>
    <rc><c>Si</c><c>   1</c></rc>
    <rc><c>Si</c><c>   1</c></rc>
    <rc><c>Si</c><c>   1</c></rc>
    <rc><c>Si</c><c>   1</c></rc>
    <rc><c>Si</c><c>   1</c></rc>
    <rc><c>Si</c><c>   1</c></rc>
    <rc><c>Si</c><c>   1</c></rc>
    <rc><c>Si</c><c>   1</c></rc>
    <rc><c>Si</c><c>   1</c></rc>
    <rc><c>Si</c><c>   1</c></rc>
    <rc><c>Si</c><c>   1</c></rc>
    <rc><c>Si</c><c>   1</c></rc>
    <rc><c>Si</c><c>   1</c></rc>
    <rc><c>Si</c><c>   1</c></rc>
    <rc><c>Si</c><c>   1</c></rc>
    <rc><c>Si</c><c>   1</c></rc>
    <rc><c>Si</c><c>   1</c></rc>
    <rc><c>Si</c><c>   1</c></rc>
    <rc><c>Si</c><c>   1</c></rc>
    <rc><c>Si</c><c>   1</c></rc>
    <rc><c>Si</c><c>   1</c></rc>
    <rc><c>Si</c><c>   1</c></rc>
    <rc><c>Si</c><c>   1</c></rc>
    <rc><c>Si</c><c>   1</c></rc>
    <rc><c>Si</c><c>   1</c></rc>
    <rc><c>Si</c><c>   1</c></rc>
    <rc><c>Si</c><c>   1</c></rc>
    <rc><c>Si</c><c>   1</c></rc>
    <rc><c>Si</c><c>   1</c></rc>
    <rc><c>Si</c><c>   1</c></rc>
    <rc><c>Si</c><c>   1</c></rc>
    <rc><c>Si</c><c>   1</c></rc>
    <rc><c>Si</c><c>   1</c></rc>
    <rc><c>Si</c><c>   1</c></rc>
    <rc><c>Si</c><c>   1</c></rc>
    <rc><c>Si</c><c>   1</c></rc>
    <rc><c>Si</c><c>   1</c></rc>
    <rc><c>Si</c><c>   1</c></rc>
    <rc><c>Si</c><c>   1</c></rc>
    <rc><c>Si</c><c>   1</c></rc>
    <rc><c>Si</c><c>   1</c></rc>
    <rc><c>Si</c><c>   1</c></rc>
    <rc><c>Si</c><c>   1</c></rc>
    <rc><c>Si</c><c>   1</c></rc>
    <rc><c>Si</c><c>   1</c></rc>
    <rc><c>Si</c><c>   1</c></rc>
    <rc><c>Si</c><c>   1</c></rc>
    <rc><c>Si</c><c>   1</c></rc>
    <rc><c>Si</c><c>   1</c></rc>
    <rc><c>Si</c><c>   1</c></rc>
    <rc><c>Si</c><c>   1</c></rc>
    <rc><c>Si</c><c>   1</c></rc>
    <rc><c>Si</c><c>   1</c></rc>
    <rc><c>Si</c><c>   1</c></rc>
    <rc><c>Si</c><c>   1</c></rc>
    <rc><c>Si</c><c>   1</c></rc>
    <rc><c>Si</c><c>   1</c></rc>
    <rc><c>Si</c><c>   1</c></rc>
    <rc><c>Si</c><c>   1</c></rc>
    <rc><c>Si</c><c>   1</c></rc>
    <rc><c>Si</c><c>   1</c></rc>
    <rc><c>Si</c><c>   1</c></rc>
    <rc><c>Si</c><c>   1</c></rc>
    <rc><c>Si</c><c>   1</c></rc>
    <rc><c>Si</c><c>   1</c></rc>
    <rc><c>Si</c><c>   1</c></rc>
    <rc><c>Si</c><c>   1</c></rc>
    <rc><c>Si</c><c>   1</c></rc>
    <rc><c>Si</c><c>   1</c></rc>
    <rc><c>Si</c><c>   1</c></rc>
    <rc><c>Si</c><c>   1</c></rc>
    <rc><c>Si</c><c>   1</c></rc>
    <rc><c>Si</c><c>   1</c></rc>
    <rc><c>Si</c><c>   1</c></rc>
    <rc><c>Si</c><c>   1</c></rc>
    <rc><c>Si</c><c>   1</c></rc>
    <rc><c>Si</c><c>   1</c></rc>
    <rc><c>Si</c><c>   1</c></rc>
    <rc><c>Si</c><c>   1</c></rc>
    <rc><c>Si</c><c>   1</c></rc>
    <rc><c>Si</c><c>   1</c></rc>
    <rc><c>Si</c><c>   1</c></rc>
    <rc><c>Si</c><c>   1</c></rc>
    <rc><c>Si</c><c>   1</c></rc>
    <rc><c>Si</c><c>   1</c></rc>
    <rc><c>Si</c><c>   1</c></rc>
    <rc><c>Si</c><c>   1</c></rc>
    <rc><c>Si</c><c>   1</c></rc>
    <rc><c>Si</c><c>   1</c></rc>
    <rc><c>Si</c><c>   1</c></rc>
    <rc><c>Si</c><c>   1</c></rc>
   </set>
  </array>
  <array name="atomtypes" >
   <dimension dim="1">type</dimension>
   <field type="int">atomspertype</field>
   <field type="string">element</field>
   <field>mass</field>
   <field>valence</field>
   <field type="string">pseudopotential</field>
   <set>
    <rc><c> 128</c><c>Si</c><c>     28.08500000</c><c>      4.00000000</c><c> PAW_PBE Si 05Jan2001                   </c></rc>
   </set>
  </array>
 </atominfo>
 <structure name="initialpos" >
  <crystal>
   <varray name="basis" >
    <v>       0.00000000      10.93733369      10.93733369 </v>
    <v>      10.93733369       0.00000000      10.93733369 </v>
    <v>      10.93733369      10.93733369       0.00000000 </v>
   </varray>
   <i name="volume">   2616.76295363 </i>
   <varray name="rec_basis" >
    <v>      -0.04571498       0.04571498       0.04571498 </v>
    <v>       0.04571498      -0.04571498       0.04571498 </v>
    <v>       0.04571498       0.04571498      -0.04571498 </v>
   </varray>
  </crystal>
  <varray name="positions" >
   <v>       0.98907265       0.00659711       0.99571844 </v>
   <v>       0.24304128       0.00154893       0.00470141 </v>
   <v>       0.50061550       0.99714309       0.01172246 </v>
   <v>       0.76004232       0.99059962       0.00186037 </v>
   <v>       0.99923696       0.24498271       0.00918543 </v>
   <v>       0.25905375       0.24169119       0.00566855 </v>
   <v>       0.50446579       0.24000192       0.00214367 </v>
   <v>       0.75275648       0.24669606       0.98791387 </v>
   <v>       0.99895519       0.49945272       0.00639544 </v>
   <v>       0.25843390       0.50865939       0.99884679 </v>
   <v>       0.50117692       0.51847886       0.98778775 </v>
   <v>       0.74733854       0.49054614       0.00802796 </v>
   <v>       0.00617531       0.74450974       0.00516753 </v>
   <v>       0.25173434       0.75404943       0.00462155 </v>
   <v>       0.50318700       0.74669851       0.99893747 </v>
   <v>       0.74576740       0.75031758       0.00722293 </v>
   <v>       0.00270467       0.00488639       0.23837294 </v>
   <v>       0.26537882       0.99320293       0.23941041 </v>
   <v>       0.48817799       0.01028805       0.24529421 </v>
   <v>       0.74316671       0.00432806       0.24443043 </v>
   <v>       0.00330370       0.24176923       0.26177153 </v>
   <v>       0.24272971       0.24769407       0.26120283 </v>
   <v>       0.49487609       0.26360806       0.23711272 </v>
   <v>       0.74038232       0.25090833       0.24831260 </v>
   <v>       0.99550677       0.49989322       0.24599910 </v>
   <v>       0.26199630       0.49565904       0.25557428 </v>
   <v>       0.50280236       0.49782578       0.24938332 </v>
   <v>       0.74140520       0.50084237       0.25427739 </v>
   <v>       0.00087271       0.75753499       0.24962421 </v>
   <v>       0.25585792       0.75098729       0.25216126 </v>
   <v>       0.50245451       0.74930487       0.24575605 </v>
   <v>       0.74534453       0.75801022       0.24114916 </v>
   <v>       0.99805022       0.99530706       0.49907598 </v>
   <v>       0.25440948       0.99733868       0.50536718 </v>
   <v>       0.49429259       0.99808438       0.50158363 </v>
   <v>       0.74618625       0.00167074       0.51211008 </v>
   <v>       0.99934105       0.24865963       0.48119277 </v>
   <v>       0.25900573       0.25180152       0.49319572 </v>
   <v>       0.49536478       0.26619648       0.49062095 </v>
   <v>       0.75383404       0.26381609       0.48706946 </v>
   <v>       0.99043327       0.49867026       0.49996887 </v>
   <v>       0.24997077       0.50904005       0.48435146 </v>
   <v>       0.50900723       0.50422722       0.49662545 </v>
   <v>       0.75307770       0.49620380       0.50487632 </v>
   <v>       0.99518937       0.75098033       0.49893821 </v>
   <v>       0.24779935       0.75529200       0.49936282 </v>
   <v>       0.50178081       0.74996920       0.49485400 </v>
   <v>       0.73161786       0.76284501       0.49971008 </v>
   <v>       0.99212332       0.99665840       0.75006693 </v>
   <v>       0.24566973       0.99506878       0.74910346 </v>
   <v>       0.49546562       0.00678873       0.74456521 </v>
   <v>       0.75426269       0.99569969       0.75017972 </v>
   <v>       0.99602837       0.24779029       0.76384027 </v>
   <v>       0.24083671       0.25813722       0.74544689 </v>
   <v>       0.49693373       0.24861818       0.75311798 </v>
   <v>       0.74415055       0.26226826       0.75404730 </v>
   <v>       0.99286591       0.51090724       0.74844834 </v>
   <v>       0.24609723       0.49801068       0.75722864 </v>
   <v>       0.49339113       0.50478611       0.75830765 </v>
   <v>       0.74292303       0.49677031       0.75115204 </v>
   <v>       0.00741747       0.75439713       0.73912785 </v>
   <v>       0.25411449       0.74694540       0.75056276 </v>
   <v>       0.49136233       0.75501140       0.74886542 </v>
   <v>       0.75098290       0.74770071       0.76076955 </v>
   <v>       0.06060873       0.06540020       0.06393113 </v>
   <v>       0.30454370       0.07215721       0.05868314 </v>
   <v>       0.57054476       0.05179062       0.06599573 </v>
   <v>       0.79912488       0.06203357       0.06366532 </v>
   <v>       0.06487218       0.30640523       0.06093258 </v>
   <v>       0.30595369       0.31076014       0.06472674 </v>
   <v>       0.57432193       0.31111061       0.06488813 </v>
   <v>       0.82329399       0.31822935       0.04589010 </v>
   <v>       0.05271150       0.56931919       0.06138866 </v>
   <v>       0.30650544       0.57348875       0.06628505 </v>
   <v>       0.56049373       0.57247690       0.06756490 </v>
   <v>       0.81660604       0.56132398       0.06528396 </v>
   <v>       0.06625172       0.80853994       0.05760528 </v>
   <v>       0.30327371       0.80899509       0.07117058 </v>
   <v>       0.56233426       0.79764758       0.06503356 </v>
   <v>       0.81208491       0.81489950       0.05894672 </v>
   <v>       0.05621766       0.05985371       0.31023863 </v>
   <v>       0.31287851       0.06217648       0.30990885 </v>
   <v>       0.55887049       0.07575063       0.31041905 </v>
   <v>       0.80975007       0.06326234       0.30544572 </v>
   <v>       0.06120970       0.31872048       0.30516964 </v>
   <v>       0.29802941       0.32353229       0.31251855 </v>
   <v>       0.56128193       0.32145094       0.30919502 </v>
   <v>       0.81373762       0.31035511       0.30419251 </v>
   <v>       0.06865695       0.54847278       0.30883268 </v>
   <v>       0.31419096       0.56374793       0.31171169 </v>
   <v>       0.55473180       0.56569022       0.31959472 </v>
   <v>       0.81648589       0.57133580       0.30987145 </v>
   <v>       0.06510820       0.81666455       0.30912201 </v>
   <v>       0.32051990       0.80956706       0.31073390 </v>
   <v>       0.56594769       0.81094809       0.31033693 </v>
   <v>       0.81478270       0.80958218       0.31876751 </v>
   <v>       0.03620467       0.07462538       0.57245256 </v>
   <v>       0.31224349       0.05058906       0.57196674 </v>
   <v>       0.55413671       0.07209628       0.56009301 </v>
   <v>       0.81884673       0.05628440       0.56321253 </v>
   <v>       0.05968085       0.30673990       0.56085820 </v>
   <v>       0.31278159       0.30470564       0.57131667 </v>
   <v>       0.56185226       0.31165973       0.56478885 </v>
   <v>       0.81125533       0.32258071       0.56490530 </v>
   <v>       0.05721136       0.55888724       0.55940921 </v>
   <v>       0.31310426       0.56882387       0.55299894 </v>
   <v>       0.54990162       0.56127719       0.56684853 </v>
   <v>       0.81441371       0.56675007       0.57367258 </v>
   <v>       0.05844330       0.81083353       0.56149973 </v>
   <v>       0.32549216       0.80257605       0.55807874 </v>
   <v>       0.55351265       0.81776870       0.56666382 </v>
   <v>       0.80451744       0.80658628       0.56908866 </v>
   <v>       0.06102212       0.06575624       0.81286758 </v>
   <v>       0.29840641       0.06174164       0.81769114 </v>
   <v>       0.57036892       0.05535612       0.81637534 </v>
   <v>       0.80785891       0.06424318       0.81724290 </v>
   <v>       0.05481703       0.33121400       0.80797547 </v>
   <v>       0.30752598       0.31847059       0.81211422 </v>
   <v>       0.55589581       0.32441739       0.80598324 </v>
   <v>       0.81607660       0.32455248       0.81001505 </v>
   <v>       0.06770351       0.55902952       0.80685161 </v>
   <v>       0.30981125       0.55844840       0.81827367 </v>
   <v>       0.55269256       0.57171566       0.82184514 </v>
   <v>       0.80999079       0.56717880       0.81227795 </v>
   <v>       0.06445537       0.81032726       0.80966155 </v>
   <v>       0.31393041       0.81308742       0.80885938 </v>
   <v>       0.56986913       0.80990869       0.80927362 </v>
   <v>       0.82078280       0.81510273       0.80261677 </v>
  </varray>
 </structure>
 <calculation>
  <scstep>
   <time name="dav">   69.90   69.92</time>
   <time name="total">   70.90   70.93</time>
   <energy>
    <i name="alphaZ">    210.77028614 </i>
    <i name="ewald"> -14470.85895996 </i>
    <i name="hartreedc">   -757.08927849 </i>
    <i name="XCdc">  -1195.35218723 </i>
    <i name="pawpsdc">   4221.13331941 </i>
    <i name="pawaedc">  -1969.18571412 </i>
    <i name="eentropy">     -0.00181873 </i>
    <i name="bandstr">   2151.42563916 </i>
    <i name="atom">  13192.48085998 </i>
    <i name="e_fr_energy">   1383.32214616 </i>
    <i name="e_wo_entrp">   1383.32396489 </i>
    <i name="e_0_energy">   1383.32305553 </i>
   </energy>
  </scstep>
  <scstep>
   <time name="dav">   79.64   79.68</time>
   <time name="total">   79.65   79.68</time>
   <energy>
    <i name="e_fr_energy">   -536.15269460 </i>
    <i name="e_wo_entrp">   -536.15266760 </i>
    <i name="e_0_energy">   -536.15268110 </i>
   </energy>
  </scstep>
  <scstep>
   <time name="dav">   81.74   81.76</time>
   <time name="total">   81.74   81.76</time>
   <energy>
    <i name="e_fr_energy">   -686.16026456 </i>
    <i name="e_wo_entrp">   -686.16026456 </i>
    <i name="e_0_energy">   -686.16026456 </i>
   </energy>
  </scstep>
  <scstep>
   <time name="dav">   80.53   80.56</time>
   <time name="total">   80.53   80.56</time>
   <energy>
    <i name="e_fr_energy">   -690.48616615 </i>
    <i name="e_wo_entrp">   -690.48616615 </i>
    <i name="e_0_energy">   -690.48616615 </i>
   </energy>
  </scstep>
  <scstep>
   <time name="dav">   82.08   82.11</time>
   <time name="total">   85.43   85.46</time>
   <energy>
    <i name="e_fr_energy">   -690.63631971 </i>
    <i name="e_wo_entrp">   -690.63631971 </i>
    <i name="e_0_energy">   -690.63631971 </i>
   </energy>
  </scstep>
  <scstep>
   <time name="dav">   77.55   77.58</time>
   <time name="total">   81.88   81.91</time>
   <energy>
    <i name="e_fr_energy">   -682.16249949 </i>
    <i name="e_wo_entrp">   -682.16249949 </i>
    <i name="e_0_energy">   -682.16249949 </i>
   </energy>
  </scstep>
  <scstep>
   <time name="dav">   78.04   78.08</time>
   <time name="total">   82.37   82.41</time>
   <energy>
    <i name="e_fr_energy">   -678.62288707 </i>
    <i name="e_wo_entrp">   -678.62288707 </i>
    <i name="e_0_energy">   -678.62288707 </i>
   </energy>
  </scstep>
  <scstep>
   <time name="dav">   76.04   76.06</time>
   <time name="total">   80.29   80.31</time>
   <energy>
    <i name="e_fr_energy">   -678.68224585 </i>
    <i name="e_wo_entrp">   -678.68224585 </i>
    <i name="e_0_energy">   -678.68224585 </i>
   </energy>
  </scstep>
  <scstep>
   <time name="dav">   79.15   79.18</time>
   <time name="total">   83.42   83.45</time>
   <energy>
    <i name="e_fr_energy">   -678.70319874 </i>
    <i name="e_wo_entrp">   -678.70319874 </i>
    <i name="e_0_energy">   -678.70319874 </i>
   </energy>
  </scstep>
  <scstep>
   <time name="dav">   77.71   77.74</time>
   <time name="total">   81.96   81.99</time>
   <energy>
    <i name="e_fr_energy">   -678.70569001 </i>
    <i name="e_wo_entrp">   -678.70569001 </i>
    <i name="e_0_energy">   -678.70569001 </i>
   </energy>
  </scstep>
  <scstep>
   <time name="dav">   76.70   76.72</time>
   <time name="total">   80.92   80.95</time>
   <energy>
    <i name="e_fr_energy">   -678.70710571 </i>
    <i name="e_wo_entrp">   -678.70710571 </i>
    <i name="e_0_energy">   -678.70710571 </i>
   </energy>
  </scstep>
  <scstep>
   <time name="dav">   80.16   80.19</time>
   <time name="total">   84.38   84.42</time>
   <energy>
    <i name="e_fr_energy">   -678.70716155 </i>
    <i name="e_wo_entrp">   -678.70716155 </i>
    <i name="e_0_energy">   -678.70716155 </i>
   </energy>
  </scstep>
  <scstep>
   <time name="dav">   76.07   76.12</time>
   <time name="total">   80.29   80.34</time>
   <energy>
    <i name="e_fr_energy">   -678.70719235 </i>
    <i name="e_wo_entrp">   -678.70719235 </i>
    <i name="e_0_energy">   -678.70719235 </i>
   </energy>
  </scstep>
  <scstep>
   <time name="dav">   80.36   80.39</time>
   <time name="total">   84.58   84.62</time>
   <energy>
    <i name="e_fr_energy">   -678.70719836 </i>
    <i name="e_wo_entrp">   -678.70719836 </i>
    <i name="e_0_energy">   -678.70719836 </i>
   </energy>
  </scstep>
  <scstep>
   <time name="dav">   79.15   79.17</time>
   <time name="total">   83.38   83.41</time>
   <energy>
    <i name="e_fr_energy">   -678.70720157 </i>
    <i name="e_wo_entrp">   -678.70720157 </i>
    <i name="e_0_energy">   -678.70720157 </i>
   </energy>
  </scstep>
  <scstep>
   <time name="dav">   77.95   77.99</time>
   <time name="total">   82.06   82.11</time>
   <energy>
    <i name="e_fr_energy">   -678.70720141 </i>
    <i name="e_wo_entrp">   -678.70720141 </i>
    <i name="e_0_energy">   -678.70720141 </i>
   </energy>
  </scstep>
  <scstep>
   <time name="dav">   79.26   79.30</time>
   <time name="total">   83.36   83.40</time>
   <energy>
    <i name="e_fr_energy">   -678.70720123 </i>
    <i name="e_wo_entrp">   -678.70720123 </i>
    <i name="e_0_energy">   -678.70720123 </i>
   </energy>
  </scstep>
  <scstep>
   <time name="dav">   53.56   53.58</time>
   <time name="total">   57.65   57.68</time>
   <energy>
    <i name="e_fr_energy">   -678.70720143 </i>
    <i name="e_wo_entrp">   -678.70720143 </i>
    <i name="e_0_energy">   -678.70720143 </i>
   </energy>
  </scstep>
  <scstep>
   <time name="dav">   51.07   51.10</time>
   <time name="total">   55.18   55.21</time>
   <energy>
    <i name="e_fr_energy">   -678.70720136 </i>
    <i name="e_wo_entrp">   -678.70720136 </i>
    <i name="e_0_energy">   -678.70720136 </i>
   </energy>
  </scstep>
  <scstep>
   <time name="dav">   50.07   50.09</time>
   <time name="total">   54.15   54.17</time>
   <energy>
    <i name="e_fr_energy">   -678.70720138 </i>
    <i name="e_wo_entrp">   -678.70720138 </i>
    <i name="e_0_energy">   -678.70720138 </i>
   </energy>
  </scstep>
  <scstep>
   <time name="dav">   49.94   49.96</time>
   <time name="total">   50.94   50.96</time>
   <energy>
    <i name="alphaZ">    210.77028614 </i>
    <i name="ewald"> -14470.85895996 </i>
    <i name="hartreedc">  -1001.75462978 </i>
    <i name="XCdc">  -1155.88925719 </i>
    <i name="pawpsdc">   4730.32069000 </i>
    <i name="pawaedc">  -2492.03245016 </i>
    <i name="eentropy">     -0.00000000 </i>
    <i name="bandstr">    308.25625959 </i>
    <i name="atom">  13192.48085998 </i>
    <i name="e_fr_energy">   -678.70720138 </i>
    <i name="e_wo_entrp">   -678.70720138 </i>
    <i name="e_0_energy">   -678.70720138 </i>
   </energy>
  </scstep>
  <structure>
   <crystal>
    <varray name="basis" >
     <v>       0.00000000      10.93733369      10.93733369 </v>
     <v>      10.93733369       0.00000000      10.93733369 </v>
     <v>      10.93733369      10.93733369       0.00000000 </v>
    </varray>
    <i name="volume">   2616.76295363 </i>
    <varray name="rec_basis" >
     <v>      -0.04571498       0.04571498       0.04571498 </v>
     <v>       0.04571498      -0.04571498       0.04571498 </v>
     <v>       0.04571498       0.04571498      -0.04571498 </v>
    </varray>
   </crystal>
   <varray name="positions" >
    <v>       0.98907265       0.00659711       0.99571844 </v>
    <v>       0.24304128       0.00154893       0.00470141 </v>
    <v>       0.50061550       0.99714309       0.01172246 </v>
    <v>       0.76004232       0.99059962       0.00186037 </v>
    <v>       0.99923696       0.24498271       0.00918543 </v>
    <v>       0.25905375       0.24169119       0.00566855 </v>
    <v>       0.50446579       0.24000192       0.00214367 </v>
    <v>       0.75275648       0.24669606       0.98791387 </v>
    <v>       0.99895519       0.49945272       0.00639544 </v>
    <v>       0.25843390       0.50865939       0.99884679 </v>
    <v>       0.50117692       0.51847886       0.98778775 </v>
    <v>       0.74733854       0.49054614       0.00802796 </v>
    <v>       0.00617531       0.74450974       0.00516753 </v>
    <v>       0.25173434       0.75404943       0.00462155 </v>
    <v>       0.50318700       0.74669851       0.99893747 </v>
    <v>       0.74576740       0.75031758       0.00722293 </v>
    <v>       0.00270467       0.00488639       0.23837294 </v>
    <v>       0.26537882       0.99320293       0.23941041 </v>
    <v>       0.48817799       0.01028805       0.24529421 </v>
    <v>       0.74316671       0.00432806       0.24443043 </v>
    <v>       0.00330370       0.24176923       0.26177153 </v>
    <v>       0.24272971       0.24769407       0.26120283 </v>
    <v>       0.49487609       0.26360806       0.23711272 </v>
    <v>       0.74038232       0.25090833       0.24831260 </v>
    <v>       0.99550677       0.49989322       0.24599910 </v>
    <v>       0.26199630       0.49565904       0.25557428 </v>
    <v>       0.50280236       0.49782578       0.24938332 </v>
    <v>       0.74140520       0.50084237       0.25427739 </v>
    <v>       0.00087271       0.75753499       0.24962421 </v>
    <v>       0.25585792       0.75098729       0.25216126 </v>
    <v>       0.50245451       0.74930487       0.24575605 </v>
    <v>       0.74534453       0.75801022       0.24114916 </v>
    <v>       0.99805022       0.99530706       0.49907598 </v>
    <v>       0.25440948       0.99733868       0.50536718 </v>
    <v>       0.49429259       0.99808438       0.50158363 </v>
    <v>       0.74618625       0.00167074       0.51211008 </v>
    <v>       0.99934105       0.24865963       0.48119277 </v>
    <v>       0.25900573       0.25180152       0.49319572 </v>
    <v>       0.49536478       0.26619648       0.49062095 </v>
    <v>       0.75383404       0.26381609       0.48706946 </v>
    <v>       0.99043327       0.49867026       0.49996887 </v>
    <v>       0.24997077       0.50904005       0.48435146 </v>
    <v>       0.50900723       0.50422722       0.49662545 </v>
    <v>       0.75307770       0.49620380       0.50487632 </v>
    <v>       0.99518937       0.75098033       0.49893821 </v>
    <v>       0.24779935       0.75529200       0.49936282 </v>
    <v>       0.50178081       0.74996920       0.49485400 </v>
    <v>       0.73161786       0.76284501       0.49971008 </v>
    <v>       0.99212332       0.99665840       0.75006693 </v>
    <v>       0.24566973       0.99506878       0.74910346 </v>
    <v>       0.49546562       0.00678873       0.74456521 </v>
    <v>       0.75426269       0.99569969       0.75017972 </v>
    <v>       0.99602837       0.24779029       0.76384027 </v>
    <v>       0.24083671       0.25813722       0.74544689 </v>
    <v>       0.49693373       0.24861818       0.75311798 </v>
    <v>       0.74415055       0.26226826       0.75404730 </v>
    <v>       0.99286591       0.51090724       0.74844834 </v>
    <v>       0.24609723       0.49801068       0.75722864 </v>
    <v>       0.49339113       0.50478611       0.75830765 </v>
    <v>       0.74292303       0.49677031       0.75115204 </v>
    <v>       0.00741747       0.75439713       0.73912785 </v>
    <v>       0.25411449       0.74694540       0.75056276 </v>
    <v>       0.49136233       0.75501140       0.74886542 </v>
    <v>       0.75098290       0.74770071       0.76076955 </v>
    <v>       0.06060873       0.06540020       0.06393113 </v>
    <v>       0.30454370       0.07215721       0.05868314 </v>
    <v>       0.57054476       0.05179062       0.06599573 </v>
    <v>       0.79912488       0.06203357       0.06366532 </v>
    <v>       0.06487218       0.30640523       0.06093258 </v>
    <v>       0.30595369       0.31076014       0.06472674 </v>
    <v>       0.57432193       0.31111061       0.06488813 </v>
    <v>       0.82329399       0.31822935       0.04589010 </v>
    <v>       0.05271150       0.56931919       0.06138866 </v>
    <v>       0.30650544       0.57348875       0.06628505 </v>
    <v>       0.56049373       0.57247690       0.06756490 </v>
    <v>       0.81660604       0.56132398       0.06528396 </v>
    <v>       0.06625172       0.80853994       0.05760528 </v>
    <v>       0.30327371       0.80899509       0.07117058 </v>
    <v>       0.56233426       0.79764758       0.06503356 </v>
    <v>       0.81208491       0.81489950       0.05894672 </v>
    <v>       0.05621766       0.05985371       0.31023863 </v>
    <v>       0.31287851       0.06217648       0.30990885 </v>
    <v>       0.55887049       0.07575063       0.31041905 </v>
    <v>       0.80975007       0.06326234       0.30544572 </v>
    <v>       0.06120970       0.31872048       0.30516964 </v>
    <v>       0.29802941       0.32353229       0.31251855 </v>
    <v>       0.56128193       0.32145094       0.30919502 </v>
    <v>       0.81373762       0.31035511       0.30419251 </v>
    <v>       0.06865695       0.54847278       0.30883268 </v>
    <v>       0.31419096       0.56374793       0.31171169 </v>
    <v>       0.55473180       0.56569022       0.31959472 </v>
    <v>       0.81648589       0.57133580       0.30987145 </v>
    <v>       0.06510820       0.81666455       0.30912201 </v>
    <v>       0.32051990       0.80956706       0.31073390 </v>
    <v>       0.56594769       0.81094809       0.31033693 </v>
    <v>       0.81478270       0.80958218       0.31876751 </v>
    <v>       0.03620467       0.07462538       0.57245256 </v>
    <v>       0.31224349       0.05058906       0.57196674 </v>
    <v>       0.55413671       0.07209628       0.56009301 </v>
    <v>       0.81884673       0.05628440       0.56321253 </v>
    <v>       0.05968085       0.30673990       0.56085820 </v>
    <v>       0.31278159       0.30470564       0.57131667 </v>
    <v>       0.56185226       0.31165973       0.56478885 </v>
    <v>       0.81125533       0.32258071       0.56490530 </v>
    <v>       0.05721136       0.55888724       0.55940921 </v>
    <v>       0.31310426       0.56882387       0.55299894 </v>
    <v>       0.54990162       0.56127719       0.56684853 </v>
    <v>       0.81441371       0.56675007       0.57367258 </v>
    <v>       0.05844330       0.81083353       0.56149973 </v>
    <v>       0.32549216       0.80257605       0.55807874 </v>
    <v>       0.55351265       0.81776870       0.56666382 </v>
    <v>       0.80451744       0.80658628       0.56908866 </v>
    <v>       0.06102212       0.06575624       0.81286758 </v>
    <v>       0.29840641       0.06174164       0.81769114 </v>
    <v>       0.57036892       0.05535612       0.81637534 </v>
    <v>       0.80785891       0.06424318       0.81724290 </v>
    <v>       0.05481703       0.33121400       0.80797547 </v>
    <v>       0.30752598       0.31847059       0.81211422 </v>
    <v>       0.55589581       0.32441739       0.80598324 </v>
    <v>       0.81607660       0.32455248       0.81001505 </v>
    <v>       0.06770351       0.55902952       0.80685161 </v>
    <v>       0.30981125       0.55844840       0.81827367 </v>
    <v>       0.55269256       0.57171566       0.82184514 </v>
    <v>       0.80999079       0.56717880       0.81227795 </v>
    <v>       0.06445537       0.81032726       0.80966155 </v>
    <v>       0.31393041       0.81308742       0.80885938 </v>
    <v>       0.56986913       0.80990869       0.80927362 </v>
    <v>       0.82078280       0.81510273       0.80261677 </v>
   </varray>
  </structure>
  <varray name="forces" >
   <v>      -0.01266047       1.41713426      -0.27608037 </v>
   <v>      -0.72247885       0.15644255       0.14820486 </v>
   <v>      -1.61341229      -1.24261035      -0.92510231 </v>
   <v>       0.00540388      -2.11008846      -0.57440123 </v>
   <v>      -0.86594197      -1.06064861       1.59143614 </v>
   <v>       0.76456099      -3.45254052       0.55476785 </v>
   <v>       0.77573211      -0.48490332       0.71793309 </v>
   <v>       1.14791914       1.28503185       0.59440583 </v>
   <v>      -1.80052478      -0.71578833      -0.10059126 </v>
   <v>      -0.17278884      -0.69938983      -2.47565511 </v>
   <v>       2.17401896       3.13975083      -3.06214439 </v>
   <v>       1.17124428      -1.06497693       2.46394732 </v>
   <v>      -0.11154610      -2.47597762      -0.13867182 </v>
   <v>      -1.19757116      -1.99368868      -0.60623000 </v>
   <v>       0.58911177      -2.20900323      -0.01186384 </v>
   <v>      -1.65206719      -0.55387126       0.52987706 </v>
   <v>       1.07427152       0.34469250      -1.81706379 </v>
   <v>       1.68448281      -0.91420169      -1.06963092 </v>
   <v>      -0.43902719       2.64647673       0.95171177 </v>
   <v>       0.28684826       1.27346763      -0.58018383 </v>
   <v>      -1.08576915      -2.12513229       0.05514209 </v>
   <v>      -1.04555407      -0.93041983       0.72879749 </v>
   <v>       1.77712623       1.51213987      -1.22723001 </v>
   <v>      -1.20794290       0.55518904       1.42672230 </v>
   <v>       0.07319995       0.10410150       0.86257701 </v>
   <v>       0.33679569      -2.76523244      -0.23468535 </v>
   <v>       1.55796030      -0.39985366       0.54292451 </v>
   <v>      -0.20478693       0.77787463       0.98931291 </v>
   <v>      -1.61814174       0.21947077      -0.96444099 </v>
   <v>       0.01686544      -0.52194230      -1.03664141 </v>
   <v>       0.28998836       0.85285749      -0.05640251 </v>
   <v>       0.27974066       1.88681078       0.66935442 </v>
   <v>      -0.09729016       0.37863222       0.73576144 </v>
   <v>      -0.77026373      -1.55251821      -1.54427847 </v>
   <v>       0.51337560      -0.04612095       1.44602546 </v>
   <v>      -1.62734914      -1.39135414      -0.78631945 </v>
   <v>       2.93071585       0.94315629       0.02678909 </v>
   <v>       0.57878121       0.34013541      -1.87284860 </v>
   <v>      -0.01082888       1.25615554      -0.93944559 </v>
   <v>       0.26535893       1.08108680      -1.49148297 </v>
   <v>      -1.21005281       0.94774379       0.65522155 </v>
   <v>       1.47150010       2.18075427      -2.27046372 </v>
   <v>      -0.83463318      -1.18344228      -3.24123039 </v>
   <v>       1.90876762      -1.53217797       1.46390605 </v>
   <v>      -0.38588836      -0.20500997      -0.54509786 </v>
   <v>      -0.41298589      -0.17093002      -0.26745816 </v>
   <v>      -0.49475011       1.19019709       0.39344326 </v>
   <v>      -0.80656809       2.15073379       0.11789481 </v>
   <v>       1.41215946       1.00024051       0.54513767 </v>
   <v>       1.31654107       0.61972522       0.01157147 </v>
   <v>       0.66064954       0.84432628      -0.61710863 </v>
   <v>       0.48050524      -0.34391855       0.71553437 </v>
   <v>      -0.98482264      -0.90228020       1.65518506 </v>
   <v>       0.96394107       1.69016948      -1.02418483 </v>
   <v>      -0.28329723       0.05018316       0.17718145 </v>
   <v>      -0.83987103       0.20400486      -0.21413688 </v>
   <v>      -0.52040936      -0.50959370       0.36071170 </v>
   <v>      -0.90396174      -0.72529608       1.43698768 </v>
   <v>      -0.19659458      -0.58739759       0.47016884 </v>
   <v>       2.44320704      -0.19149253       1.46528677 </v>
   <v>       0.00014106       0.97110292      -1.46460555 </v>
   <v>      -0.56119065      -0.51811362      -0.22989442 </v>
   <v>      -0.04784021       1.45265481       1.18565728 </v>
   <v>      -1.08272100      -1.09083851       0.36862635 </v>
   <v>      -1.60664062      -1.27394918      -0.39129777 </v>
   <v>      -2.15519211       2.11411345      -0.70874302 </v>
   <v>       0.26529848      -0.18891599       0.88028040 </v>
   <v>       0.26543283       0.99494020       1.82693806 </v>
   <v>       1.40687606       1.46382128       0.63828702 </v>
   <v>       1.34924728       1.83594792       1.68708794 </v>
   <v>      -0.68544371      -3.03397962       0.50199622 </v>
   <v>      -0.06469868       0.46715708      -3.30785925 </v>
   <v>      -1.18699692       2.14988294       0.59415636 </v>
   <v>      -0.71225378       1.45925130       0.26841640 </v>
   <v>      -2.05500180       0.32889479      -1.02822447 </v>
   <v>       0.24102655      -0.70300164      -1.00896679 </v>
   <v>       2.09774494       0.35500097       0.92420520 </v>
   <v>       0.62907752       1.09181217       2.45036574 </v>
   <v>       1.62364622      -0.19701363       1.86828497 </v>
   <v>      -0.89947241       1.21501873      -0.03167215 </v>
   <v>      -0.15242460       1.72909964       0.95269031 </v>
   <v>       1.23753462      -0.19019838      -1.27665264 </v>
   <v>      -0.51449500      -0.67728378      -1.20544329 </v>
   <v>       0.71391164       0.83947361      -0.20466448 </v>
   <v>      -0.48686467       0.03879655       0.05062006 </v>
   <v>      -1.81065788       1.65166957       0.18768452 </v>
   <v>      -1.00831840      -0.66494056      -1.35960502 </v>
   <v>       0.39162664      -0.02104996       0.37417522 </v>
   <v>       1.61241051      -0.06330698       1.12815367 </v>
   <v>      -0.43089959      -0.11527618       1.70531516 </v>
   <v>      -1.19574694      -0.45931673       0.60674970 </v>
   <v>       0.23249746      -0.68090922      -2.04547530 </v>
   <v>       0.31833505       0.47531292       0.15683386 </v>
   <v>       0.57771659       0.11924032      -0.07255110 </v>
   <v>       0.80284646      -1.43576613      -0.04484438 </v>
   <v>      -0.35121691      -1.84501627       0.21099845 </v>
   <v>      -3.00745746       0.77989788       0.59949843 </v>
   <v>       0.44798350      -1.31465479       1.98876540 </v>
   <v>      -0.45556010       0.02977443       0.52222315 </v>
   <v>       1.70106349      -0.93118200       0.79759584 </v>
   <v>       0.11513563       0.39386307       0.01696545 </v>
   <v>      -0.47928681      -2.12897644       1.97920437 </v>
   <v>      -0.11251878      -0.05690183       0.77344641 </v>
   <v>      -1.95271036       0.50460506      -1.16697450 </v>
   <v>       0.08979643       0.08478987       1.02079345 </v>
   <v>       0.06205728       0.82231986      -0.40580028 </v>
   <v>       1.48065876       2.53192249       2.54721154 </v>
   <v>      -0.34857308      -2.70165540      -0.65888428 </v>
   <v>      -0.58572391      -0.21187901       0.96405885 </v>
   <v>       2.01913307      -1.09559964      -0.51517139 </v>
   <v>      -0.79926434      -0.71541331      -0.72593268 </v>
   <v>       0.82969706      -0.09751053       0.88951897 </v>
   <v>      -0.74691410      -0.67280106      -1.08649316 </v>
   <v>      -0.22243444       0.21754890       1.12769376 </v>
   <v>       0.65532811      -0.85986156      -0.73460374 </v>
   <v>       0.13892231      -0.60337066       0.24191106 </v>
   <v>      -0.54729371       1.25974618      -1.38267692 </v>
   <v>      -0.93252824       0.97148614      -0.94572920 </v>
   <v>      -0.17286340       1.35313008      -0.92373532 </v>
   <v>      -1.51363761       0.01981291      -1.75761683 </v>
   <v>       2.03955045      -0.16726869      -0.27469403 </v>
   <v>       0.34799095      -0.35776893       0.57640683 </v>
   <v>      -2.98796000      -1.97081676       1.65679055 </v>
   <v>       0.07425886       0.25646941      -1.62955866 </v>
   <v>       0.30827824       0.60318981       0.18890422 </v>
   <v>       1.06542297       0.25173022      -1.22378518 </v>
   <v>       0.91983945      -1.20686430      -0.41323531 </v>
   <v>       0.99132326       1.43104024      -0.76596670 </v>
  </varray>
  <varray name="stress" >
   <v>      14.19635570       1.64726388       1.80531716 </v>
   <v>       1.64726390      10.70851616      -2.98020643 </v>
   <v>       1.80531716      -2.98020644      12.77354220 </v>
  </varray>
  <energy>
   <i name="e_fr_energy">   -678.70720138 </i>
   <i name="e_wo_entrp">   -678.70720138 </i>
   <i name="e_0_energy">     -0.00000000 </i>
  </energy>
  <time name="totalsc"> 1722.24 1722.92</time>
  <eigenvalues>
   <array>
    <dimension dim="1">band</dimension>
    <dimension dim="2">kpoint</dimension>
    <dimension dim="3">spin</dimension>
    <field>eigene</field>
    <field>occ</field>
    <set>
     <set comment="spin 1">
      <set comment="kpoint 1">
       <r>   -6.3214    1.0000 </r>
       <r>   -5.7089    1.0000 </r>
       <r>   -5.6958    1.0000 </r>
       <r>   -5.5891    1.0000 </r>
       <r>   -5.5722    1.0000 </r>
       <r>   -5.5483    1.0000 </r>
       <r>   -5.5127    1.0000 </r>
       <r>   -5.4797    1.0000 </r>
       <r>   -5.3978    1.0000 </r>
       <r>   -5.3122    1.0000 </r>
       <r>   -5.2597    1.0000 </r>
       <r>   -5.2275    1.0000 </r>
       <r>   -5.1866    1.0000 </r>
       <r>   -5.1366    1.0000 </r>
       <r>   -5.0348    1.0000 </r>
       <r>   -4.5290    1.0000 </r>
       <r>   -4.4939    1.0000 </r>
       <r>   -4.4613    1.0000 </r>
       <r>   -4.4115    1.0000 </r>
       <r>   -4.3847    1.0000 </r>
       <r>   -4.3528    1.0000 </r>
       <r>   -4.3287    1.0000 </r>
       <r>   -4.2788    1.0000 </r>
       <r>   -4.2270    1.0000 </r>
       <r>   -4.2171    1.0000 </r>
       <r>   -4.1551    1.0000 </r>
       <r>   -4.1322    1.0000 </r>
       <r>   -4.0630    1.0000 </r>
       <r>   -4.0256    1.0000 </r>
       <r>   -3.9955    1.0000 </r>
       <r>   -3.9216    1.0000 </r>
       <r>   -3.8694    1.0000 </r>
       <r>   -3.7999    1.0000 </r>
       <r>   -3.7933    1.0000 </r>
       <r>   -3.7252    1.0000 </r>
       <r>   -3.7181    1.0000 </r>
       <r>   -3.7084    1.0000 </r>
       <r>   -3.6676    1.0000 </r>
       <r>   -3.6643    1.0000 </r>
       <r>   -3.6477    1.0000 </r>
       <r>   -3.6240    1.0000 </r>
       <r>   -3.6104    1.0000 </r>
       <r>   -3.5544    1.0000 </r>
       <r>   -3.5440    1.0000 </r>
       <r>   -3.5192    1.0000 </r>
       <r>   -3.4948    1.0000 </r>
       <r>   -3.4721    1.0000 </r>
       <r>   -3.4323    1.0000 </r>
       <r>   -3.4119    1.0000 </r>
       <r>   -3.4041    1.0000 </r>
       <r>   -3.3808    1.0000 </r>
       <r>   -3.3329    1.0000 </r>
       <r>   -3.2863    1.0000 </r>
       <r>   -3.2333    1.0000 </r>
       <r>   -3.1815    1.0000 </r>
       <r>   -2.3890    1.0000 </r>
       <r>   -2.2961    1.0000 </r>
       <r>   -2.2584    1.0000 </r>
       <r>   -2.2468    1.0000 </r>
       <r>   -2.1714    1.0000 </r>
       <r>   -2.1359    1.0000 </r>
       <r>   -2.1296    1.0000 </r>
       <r>   -2.1136    1.0000 </r>
       <r>   -2.0703    1.0000 </r>
       <r>   -2.0617    1.0000 </r>
       <r>   -2.0346    1.0000 </r>
       <r>   -1.9970    1.0000 </r>
       <r>   -1.9263    1.0000 </r>
       <r>   -1.9048    1.0000 </r>
       <r>   -1.8907    1.0000 </r>
       <r>   -1.8522    1.0000 </r>
       <r>   -1.8260    1.0000 </r>
       <r>   -1.7854    1.0000 </r>
       <r>   -1.4185    1.0000 </r>
       <r>   -1.3177    1.0000 </r>
       <r>   -1.2791    1.0000 </r>
       <r>   -1.2337    1.0000 </r>
       <r>   -1.0079    1.0000 </r>
       <r>   -0.9910    1.0000 </r>
       <r>   -0.9618    1.0000 </r>
       <r>   -0.9268    1.0000 </r>
       <r>   -0.8993    1.0000 </r>
       <r>   -0.8821    1.0000 </r>
       <r>   -0.8663    1.0000 </r>
       <r>   -0.8171    1.0000 </r>
       <r>   -0.7781    1.0000 </r>
       <r>   -0.7689    1.0000 </r>
       <r>   -0.7449    1.0000 </r>
       <r>   -0.7341    1.0000 </r>
       <r>   -0.6964    1.0000 </r>
       <r>   -0.6783    1.0000 </r>
       <r>   -0.6505    1.0000 </r>
       <r>   -0.6391    1.0000 </r>
       <r>   -0.6231    1.0000 </r>
       <r>   -0.6129    1.0000 </r>
       <r>   -0.5966    1.0000 </r>
       <r>   -0.5549    1.0000 </r>
       <r>   -0.4858    1.0000 </r>
       <r>   -0.4618    1.0000 </r>
       <r>   -0.4365    1.0000 </r>
       <r>   -0.3680    1.0000 </r>
       <r>    0.0091    1.0000 </r>
       <r>    0.0442    1.0000 </r>
       <r>    0.0791    1.0000 </r>
       <r>    0.1041    1.0000 </r>
       <r>    0.1908    1.0000 </r>
       <r>    0.1970    1.0000 </r>
       <r>    0.2064    1.0000 </r>
       <r>    0.2394    1.0000 </r>
       <r>    0.2765    1.0000 </r>
       <r>    0.2942    1.0000 </r>
       <r>    0.3222    1.0000 </r>
       <r>    0.3506    1.0000 </r>
       <r>    1.3755    1.0000 </r>
       <r>    1.4384    1.0000 </r>
       <r>    1.4482    1.0000 </r>
       <r>    1.4681    1.0000 </r>
       <r>    1.4782    1.0000 </r>
       <r>    1.5402    1.0000 </r>
       <r>    1.5700    1.0000 </r>
       <r>    1.5797    1.0000 </r>
       <r>    1.6007    1.0000 </r>
       <r>    1.6234    1.0000 </r>
       <r>    1.6342    1.0000 </r>
       <r>    1.6567    1.0000 </r>
       <r>    1.6776    1.0000 </r>
       <r>    1.6964    1.0000 </r>
       <r>    1.7169    1.0000 </r>
       <r>    1.7247    1.0000 </r>
       <r>    1.7510    1.0000 </r>
       <r>    1.7676    1.0000 </r>
       <r>    1.7884    1.0000 </r>
       <r>    1.7978    1.0000 </r>
       <r>    1.8033    1.0000 </r>
       <r>    1.8107    1.0000 </r>
       <r>    1.8287    1.0000 </r>
       <r>    1.8578    1.0000 </r>
       <r>    1.8680    1.0000 </r>
       <r>    1.8809    1.0000 </r>
       <r>    1.9044    1.0000 </r>
       <r>    1.9262    1.0000 </r>
       <r>    1.9308    1.0000 </r>
       <r>    1.9490    1.0000 </r>
       <r>    1.9735    1.0000 </r>
       <r>    1.9793    1.0000 </r>
       <r>    1.9984    1.0000 </r>
       <r>    2.0157    1.0000 </r>
       <r>    2.0365    1.0000 </r>
       <r>    2.0485    1.0000 </r>
       <r>    2.0582    1.0000 </r>
       <r>    2.0691    1.0000 </r>
       <r>    2.0972    1.0000 </r>
       <r>    2.1157    1.0000 </r>
       <r>    2.1390    1.0000 </r>
       <r>    2.1435    1.0000 </r>
       <r>    2.1748    1.0000 </r>
       <r>    2.1853    1.0000 </r>
       <r>    2.2016    1.0000 </r>
       <r>    2.2123    1.0000 </r>
       <r>    2.2171    1.0000 </r>
       <r>    2.2275    1.0000 </r>
       <r>    2.2526    1.0000 </r>
       <r>    2.2593    1.0000 </r>
       <r>    2.2705    1.0000 </r>
       <r>    2.2980    1.0000 </r>
       <r>    2.3132    1.0000 </r>
       <r>    2.3303    1.0000 </r>
       <r>    2.3370    1.0000 </r>
       <r>    2.3545    1.0000 </r>
       <r>    2.3954    1.0000 </r>
       <r>    2.4186    1.0000 </r>
       <r>    2.4443    1.0000 </r>
       <r>    2.4679    1.0000 </r>
       <r>    2.4998    1.0000 </r>
       <r>    2.5865    1.0000 </r>
       <r>    2.7388    1.0000 </r>
       <r>    2.7706    1.0000 </r>
       <r>    2.8044    1.0000 </r>
       <r>    2.8101    1.0000 </r>
       <r>    2.8249    1.0000 </r>
       <r>    2.8562    1.0000 </r>
       <r>    3.1700    1.0000 </r>
       <r>    3.2242    1.0000 </r>
       <r>    3.2315    1.0000 </r>
       <r>    3.2584    1.0000 </r>
       <r>    3.2905    1.0000 </r>
       <r>    3.3032    1.0000 </r>
       <r>    3.3155    1.0000 </r>
       <r>    3.3499    1.0000 </r>
       <r>    3.3605    1.0000 </r>
       <r>    3.3738    1.0000 </r>
       <r>    3.3892    1.0000 </r>
       <r>    3.4079    1.0000 </r>
       <r>    3.4172    1.0000 </r>
       <r>    3.4413    1.0000 </r>
       <r>    3.4477    1.0000 </r>
       <r>    3.4532    1.0000 </r>
       <r>    3.4877    1.0000 </r>
       <r>    3.5184    1.0000 </r>
       <r>    3.5270    1.0000 </r>
       <r>    3.5524    1.0000 </r>
       <r>    3.5745    1.0000 </r>
       <r>    3.5806    1.0000 </r>
       <r>    3.5976    1.0000 </r>
       <r>    3.6269    1.0000 </r>
       <r>    3.6683    1.0000 </r>
       <r>    3.7069    1.0000 </r>
       <r>    3.7427    1.0000 </r>
       <r>    3.7645    1.0000 </r>
       <r>    3.8158    1.0000 </r>
       <r>    3.8236    1.0000 </r>
       <r>    3.8386    1.0000 </r>
       <r>    3.8623    1.0000 </r>
       <r>    3.8700    1.0000 </r>
       <r>    3.8904    1.0000 </r>
       <r>    3.9235    1.0000 </r>
       <r>    3.9661    1.0000 </r>
       <r>    4.1331    1.0000 </r>
       <r>    4.1604    1.0000 </r>
       <r>    4.2057    1.0000 </r>
       <r>    4.2240    1.0000 </r>
       <r>    4.2570    1.0000 </r>
       <r>    4.2885    1.0000 </r>
       <r>    4.2981    1.0000 </r>
       <r>    4.3592    1.0000 </r>
       <r>    4.3668    1.0000 </r>
       <r>    4.3984    1.0000 </r>
       <r>    4.4161    1.0000 </r>
       <r>    4.4506    1.0000 </r>
       <r>    4.4713    1.0000 </r>
       <r>    4.4835    1.0000 </r>
       <r>    4.5025    1.0000 </r>
       <r>    4.5344    1.0000 </r>
       <r>    4.5527    1.0000 </r>
       <r>    4.5568    1.0000 </r>
       <r>    4.6183    1.0000 </r>
       <r>    4.6345    1.0000 </r>
       <r>    4.7387    1.0000 </r>
       <r>    4.7639    1.0000 </r>
       <r>    4.8152    1.0000 </r>
       <r>    4.8910    1.0000 </r>
       <r>    4.9286    1.0000 </r>
       <r>    4.9596    1.0000 </r>
       <r>    4.9769    1.0000 </r>
       <r>    4.9915    1.0000 </r>
       <r>    5.0090    1.0000 </r>
       <r>    5.0589    1.0000 </r>
       <r>    5.1014    1.0000 </r>
       <r>    5.1570    1.0000 </r>
       <r>    5.1821    1.0000 </r>
       <r>    5.2000    1.0000 </r>
       <r>    5.2112    1.0000 </r>
       <r>    5.2220    1.0000 </r>
       <r>    5.7661    1.0000 </r>
       <r>    5.7814    1.0000 </r>
       <r>    5.8088    1.0000 </r>
       <r>    6.1239    0.0000 </r>
       <r>    6.1591    0.0000 </r>
       <r>    6.2206    0.0000 </r>
       <r>    6.2359    0.0000 </r>
       <r>    6.2649    0.0000 </r>
       <r>    6.3548    0.0000 </r>
       <r>    6.5372    0.0000 </r>
       <r>    6.5414    0.0000 </r>
       <r>    6.6132    0.0000 </r>
       <r>    6.6220    0.0000 </r>
       <r>    6.7041    0.0000 </r>
       <r>    6.7179    0.0000 </r>
       <r>    6.8025    0.0000 </r>
       <r>    6.8162    0.0000 </r>
       <r>    6.8458    0.0000 </r>
       <r>    6.8626    0.0000 </r>
       <r>    6.8798    0.0000 </r>
       <r>    6.9086    0.0000 </r>
       <r>    6.9170    0.0000 </r>
       <r>    6.9221    0.0000 </r>
       <r>    6.9671    0.0000 </r>
       <r>    6.9744    0.0000 </r>
       <r>    6.9809    0.0000 </r>
       <r>    6.9999    0.0000 </r>
       <r>    7.0161    0.0000 </r>
       <r>    7.0573    0.0000 </r>
       <r>    7.0588    0.0000 </r>
       <r>    7.0831    0.0000 </r>
       <r>    7.1079    0.0000 </r>
       <r>    7.1253    0.0000 </r>
       <r>    7.1416    0.0000 </r>
       <r>    7.1557    0.0000 </r>
       <r>    7.1928    0.0000 </r>
       <r>    7.2080    0.0000 </r>
       <r>    7.2149    0.0000 </r>
       <r>    7.2514    0.0000 </r>
       <r>    7.2931    0.0000 </r>
       <r>    7.3249    0.0000 </r>
       <r>    7.3401    0.0000 </r>
       <r>    7.3604    0.0000 </r>
       <r>    7.4568    0.0000 </r>
       <r>    7.4664    0.0000 </r>
       <r>    7.4855    0.0000 </r>
       <r>    7.5196    0.0000 </r>
       <r>    7.5342    0.0000 </r>
       <r>    7.5384    0.0000 </r>
       <r>    7.5697    0.0000 </r>
       <r>    7.6119    0.0000 </r>
       <r>    7.8343    0.0000 </r>
       <r>    7.8694    0.0000 </r>
       <r>    7.8830    0.0000 </r>
       <r>    7.9247    0.0000 </r>
       <r>    7.9606    0.0000 </r>
       <r>    7.9692    0.0000 </r>
       <r>    7.9820    0.0000 </r>
       <r>    8.0139    0.0000 </r>
       <r>    8.0422    0.0000 </r>
       <r>    8.0725    0.0000 </r>
       <r>    8.1080    0.0000 </r>
       <r>    8.1225    0.0000 </r>
       <r>    8.1683    0.0000 </r>
       <r>    8.2224    0.0000 </r>
       <r>    8.2628    0.0000 </r>
       <r>    8.4698    0.0000 </r>
       <r>    8.5050    0.0000 </r>
       <r>    8.6076    0.0000 </r>
      </set>
      <set comment="kpoint 2">
       <r>   -6.1759    1.0000 </r>
       <r>   -6.0838    1.0000 </r>
       <r>   -5.7368    1.0000 </r>
       <r>   -5.6564    1.0000 </r>
       <r>   -5.6337    1.0000 </r>
       <r>   -5.5683    1.0000 </r>
       <r>   -5.5158    1.0000 </r>
[...]
       <r>    -3.1266    44.2417   100.2841 </r>
       <r>    -3.0718    46.0350   102.8040 </r>
       <r>    -3.0171    47.3266   105.3947 </r>
       <r>    -2.9623    33.8707   107.2487 </r>
       <r>    -2.9076    31.3158   108.9630 </r>
       <r>    -2.8529    24.8151   110.3214 </r>
       <r>    -2.7981    35.4842   112.2638 </r>
       <r>    -2.7434    33.7854   114.1132 </r>
       <r>    -2.6886    40.2741   116.3178 </r>
       <r>    -2.6339    26.6192   117.7749 </r>
       <r>    -2.5792    28.3597   119.3273 </r>
       <r>    -2.5244    41.8759   121.6196 </r>
       <r>    -2.4697    15.6008   122.4736 </r>
       <r>    -2.4149     5.0500   122.7500 </r>
       <r>    -2.3602     4.5664   123.0000 </r>
       <r>    -2.3055     3.8703   123.2119 </r>
       <r>    -2.2507    12.8811   123.9170 </r>
       <r>    -2.1960     7.0784   124.3044 </r>
       <r>    -2.1412    27.7154   125.8216 </r>
       <r>    -2.0865    36.0302   127.7938 </r>
       <r>    -2.0318    26.1676   129.2263 </r>
       <r>    -1.9770    32.3480   130.9970 </r>
       <r>    -1.9223    12.8481   131.7003 </r>
       <r>    -1.8675    14.6763   132.5037 </r>
       <r>    -1.8128     8.9240   132.9922 </r>
       <r>    -1.7581     4.7101   133.2500 </r>
       <r>    -1.7033     2.9757   133.4129 </r>
       <r>    -1.6486    13.6605   134.1607 </r>
       <r>    -1.5938    17.7741   135.1336 </r>
       <r>    -1.5391    45.6140   137.6305 </r>
       <r>    -1.4844    48.5837   140.2900 </r>
       <r>    -1.4296    15.6656   141.1475 </r>
       <r>    -1.3749    45.0867   143.6156 </r>
       <r>    -1.3201    56.0967   146.6863 </r>
       <r>    -1.2654    52.6806   149.5700 </r>
       <r>    -1.2107    60.6736   152.8913 </r>
       <r>    -1.1559    70.1258   156.7299 </r>
       <r>    -1.1012    48.9794   159.4111 </r>
       <r>    -1.0464    58.0418   162.5882 </r>
       <r>    -0.9917    68.3532   166.3299 </r>
       <r>    -0.9370    81.7126   170.8029 </r>
       <r>    -0.8822    69.0252   174.5813 </r>
       <r>    -0.8275    45.3716   177.0649 </r>
       <r>    -0.7728    50.8551   179.8487 </r>
       <r>    -0.7180    59.3776   183.0990 </r>
       <r>    -0.6633    36.4790   185.0959 </r>
       <r>    -0.6085    42.8950   187.4440 </r>
       <r>    -0.5538    34.8802   189.3533 </r>
       <r>    -0.4991    16.0257   190.2306 </r>
       <r>    -0.4443    14.8249   191.0421 </r>
       <r>    -0.3896    35.6662   192.9945 </r>
       <r>    -0.3348    39.4624   195.1547 </r>
       <r>    -0.2801    54.2779   198.1258 </r>
       <r>    -0.2254    55.0983   201.1419 </r>
       <r>    -0.1706    40.5384   203.3610 </r>
       <r>    -0.1159    48.7345   206.0287 </r>
       <r>    -0.0611    41.9642   208.3259 </r>
       <r>    -0.0064    36.7992   210.3402 </r>
       <r>     0.0483    40.5527   212.5601 </r>
       <r>     0.1031    19.1011   213.6057 </r>
       <r>     0.1578     2.6363   213.7500 </r>
       <r>     0.2126    12.8225   214.4519 </r>
       <r>     0.2673    14.0326   215.2200 </r>
       <r>     0.3220    30.1152   216.8685 </r>
       <r>     0.3768    31.6960   218.6036 </r>
       <r>     0.4315    26.9382   220.0782 </r>
       <r>     0.4863    34.2000   221.9503 </r>
       <r>     0.5410     5.5859   222.2561 </r>
       <r>     0.5957    21.1391   223.4132 </r>
       <r>     0.6505    25.8957   224.8308 </r>
       <r>     0.7052    21.4607   226.0055 </r>
       <r>     0.7600    19.6054   227.0787 </r>
       <r>     0.8147     3.1304   227.2501 </r>
       <r>     0.8694     9.4635   227.7681 </r>
       <r>     0.9242    14.1335   228.5418 </r>
       <r>     0.9789    22.8313   229.7915 </r>
       <r>     1.0337    24.4523   231.1301 </r>
       <r>     1.0884    27.7747   232.6504 </r>
       <r>     1.1431    34.4373   234.5355 </r>
       <r>     1.1979    23.4135   235.8172 </r>
       <r>     1.2526    30.3928   237.4809 </r>
       <r>     1.3074    25.1541   238.8578 </r>
       <r>     1.3621    37.1310   240.8903 </r>
       <r>     1.4168    57.3688   244.0307 </r>
       <r>     1.4716    60.7851   247.3580 </r>
       <r>     1.5263    65.6977   250.9543 </r>
       <r>     1.5811    97.9258   256.3148 </r>
       <r>     1.6358    77.2736   260.5447 </r>
       <r>     1.6905    61.4692   263.9095 </r>
       <r>     1.7453    53.8546   266.8575 </r>
       <r>     1.8000    47.6743   269.4672 </r>
       <r>     1.8547    40.3961   271.6785 </r>
       <r>     1.9095    27.7526   273.1977 </r>
       <r>     1.9642    22.9379   274.4533 </r>
       <r>     2.0190    34.0803   276.3188 </r>
       <r>     2.0737    76.1706   280.4884 </r>
       <r>     2.1284    87.5271   285.2796 </r>
       <r>     2.1832   120.5581   291.8789 </r>
       <r>     2.2379   104.7343   297.6120 </r>
       <r>     2.2927   113.0321   303.7994 </r>
       <r>     2.3474   105.1904   309.5575 </r>
       <r>     2.4021    76.6983   313.7560 </r>
       <r>     2.4569    87.7816   318.5611 </r>
       <r>     2.5116    60.9978   321.9002 </r>
       <r>     2.5664    29.3146   323.5048 </r>
       <r>     2.6211    51.6713   326.3333 </r>
       <r>     2.6758    68.8078   330.0998 </r>
       <r>     2.7306    90.3353   335.0448 </r>
       <r>     2.7853    98.8946   340.4583 </r>
       <r>     2.8401    87.6343   345.2554 </r>
       <r>     2.8948    82.3253   349.7619 </r>
       <r>     2.9495    94.6656   354.9438 </r>
       <r>     3.0043    98.2685   360.3230 </r>
       <r>     3.0590    96.4627   365.6033 </r>
       <r>     3.1138    71.5375   369.5193 </r>
       <r>     3.1685    67.7160   373.2261 </r>
       <r>     3.2232    86.2054   377.9449 </r>
       <r>     3.2780    84.2966   382.5593 </r>
       <r>     3.3327   101.9633   388.1408 </r>
       <r>     3.3875   107.0847   394.0026 </r>
       <r>     3.4422    72.8390   397.9898 </r>
       <r>     3.4969    89.9581   402.9141 </r>
       <r>     3.5517    93.1790   408.0147 </r>
       <r>     3.6064    82.9173   412.5536 </r>
       <r>     3.6612    70.3643   416.4053 </r>
       <r>     3.7159    66.0268   420.0196 </r>
       <r>     3.7706    77.9569   424.2870 </r>
       <r>     3.8254    84.6864   428.9228 </r>
       <r>     3.8801    80.2538   433.3158 </r>
       <r>     3.9349    80.9255   437.7457 </r>
       <r>     3.9896    76.5428   441.9356 </r>
       <r>     4.0443    68.0484   445.6606 </r>
       <r>     4.0991    57.3001   448.7971 </r>
       <r>     4.1538    65.9813   452.4089 </r>
       <r>     4.2086    79.7343   456.7736 </r>
       <r>     4.2633    54.3133   459.7467 </r>
       <r>     4.3180    68.3981   463.4909 </r>
       <r>     4.3728    65.1252   467.0558 </r>
       <r>     4.4275    74.1288   471.1136 </r>
       <r>     4.4822    82.5700   475.6335 </r>
       <r>     4.5370    40.7652   477.8650 </r>
       <r>     4.5917    81.4782   482.3251 </r>
       <r>     4.6465    63.1968   485.7845 </r>
       <r>     4.7012    46.8596   488.3496 </r>
       <r>     4.7559    34.7759   490.2532 </r>
       <r>     4.8107    29.1530   491.8490 </r>
       <r>     4.8654    21.9487   493.0505 </r>
       <r>     4.9202    24.0103   494.3648 </r>
       <r>     4.9749    38.8828   496.4932 </r>
       <r>     5.0296    50.8156   499.2748 </r>
       <r>     5.0844    46.5735   501.8243 </r>
       <r>     5.1391    20.0754   502.9233 </r>
       <r>     5.1939    11.2279   503.5379 </r>
       <r>     5.2486    13.0088   504.2500 </r>
       <r>     5.3033     1.0874   504.3095 </r>
       <r>     5.3581     8.8940   504.7964 </r>
       <r>     5.4128    22.8988   506.0498 </r>
       <r>     5.4676    25.9435   507.4700 </r>
       <r>     5.5223    12.1840   508.1369 </r>
       <r>     5.5770    16.0153   509.0136 </r>
       <r>     5.6318    34.4298   510.8983 </r>
       <r>     5.6865     6.4215   511.2498 </r>
       <r>     5.7413     0.0048   511.2501 </r>
       <r>     5.7960     9.2043   511.7539 </r>
       <r>     5.8507     4.4959   512.0000 </r>
       <r>     5.9055     0.0000   512.0000 </r>
       <r>     5.9602     0.0000   512.0000 </r>
       <r>     6.0150     0.0000   512.0000 </r>
       <r>     6.0697     0.0000   512.0000 </r>
       <r>     6.1244     7.7357   512.4235 </r>
       <r>     6.1792    22.2668   513.6423 </r>
       <r>     6.2339    16.4705   514.5439 </r>
       <r>     6.2887     8.8018   515.0257 </r>
       <r>     6.3434    27.1266   516.5106 </r>
       <r>     6.3981    24.0198   517.8255 </r>
       <r>     6.4529    12.9275   518.5331 </r>
       <r>     6.5076    28.3688   520.0860 </r>
       <r>     6.5624    21.3018   521.2521 </r>
       <r>     6.6171    17.9841   522.2365 </r>
       <r>     6.6718    13.9881   523.0022 </r>
       <r>     6.7266    28.4354   524.5588 </r>
       <r>     6.7813    32.1259   526.3173 </r>
       <r>     6.8361    32.7287   528.1089 </r>
       <r>     6.8908    36.2226   530.0917 </r>
       <r>     6.9455    38.7233   532.2114 </r>
       <r>     7.0003    40.4029   534.4231 </r>
       <r>     7.0550    47.0920   537.0009 </r>
       <r>     7.1097    26.5568   538.4546 </r>
       <r>     7.1645    32.1107   540.2124 </r>
       <r>     7.2192    42.2551   542.5254 </r>
       <r>     7.2740    51.5620   545.3479 </r>
       <r>     7.3287    71.5504   549.2645 </r>
       <r>     7.3834    79.9185   553.6393 </r>
       <r>     7.4382    80.6232   558.0526 </r>
       <r>     7.4929    94.4251   563.2214 </r>
       <r>     7.5477    80.3471   567.6196 </r>
       <r>     7.6024    86.7102   572.3661 </r>
       <r>     7.6571    76.8653   576.5738 </r>
       <r>     7.7119    88.7342   581.4310 </r>
       <r>     7.7666    79.2976   585.7718 </r>
       <r>     7.8214    81.3827   590.2266 </r>
       <r>     7.8761    97.2661   595.5510 </r>
       <r>     7.9308    94.8851   600.7449 </r>
       <r>     7.9856   106.4407   606.5715 </r>
       <r>     8.0403    94.9471   611.7689 </r>
       <r>     8.0951    67.9830   615.4903 </r>
       <r>     8.1498    77.6005   619.7381 </r>
       <r>     8.2045    89.1627   624.6189 </r>
       <r>     8.2593    89.7257   629.5305 </r>
       <r>     8.3140    74.5035   633.6088 </r>
       <r>     8.3688    88.1968   638.4367 </r>
       <r>     8.4235    65.8174   642.0395 </r>
       <r>     8.4782    25.7287   643.4479 </r>
       <r>     8.5330     5.5182   643.7500 </r>
       <r>     8.5877     0.0111   643.7506 </r>
       <r>     8.6425     4.5559   644.0000 </r>
       <r>     8.6972     0.0000   644.0000 </r>
       <r>     8.7519     0.0000   644.0000 </r>
       <r>     8.8067     0.0000   644.0000 </r>
       <r>     8.8614     0.0000   644.0000 </r>
       <r>     8.9162     0.0000   644.0000 </r>
       <r>     8.9709     0.0000   644.0000 </r>
       <r>     9.0256     0.0000   644.0000 </r>
       <r>     9.0804     0.0000   644.0000 </r>
       <r>     9.1351     0.0000   644.0000 </r>
       <r>     9.1899     0.0000   644.0000 </r>
       <r>     9.2446     0.0000   644.0000 </r>
       <r>     9.2993     0.0000   644.0000 </r>
       <r>     9.3541     0.0000   644.0000 </r>
      </set>
     </set>
    </array>
   </total>
  </dos>
 </calculation>
 <structure name="finalpos" >
  <crystal>
   <varray name="basis" >
    <v>       0.00000000      10.93733369      10.93733369 </v>
    <v>      10.93733369       0.00000000      10.93733369 </v>
    <v>      10.93733369      10.93733369       0.00000000 </v>
   </varray>
   <i name="volume">   2616.76295363 </i>
   <varray name="rec_basis" >
    <v>      -0.04571498       0.04571498       0.04571498 </v>
    <v>       0.04571498      -0.04571498       0.04571498 </v>
    <v>       0.04571498       0.04571498      -0.04571498 </v>
   </varray>
  </crystal>
  <varray name="positions" >
   <v>       0.98907265       0.00659711       0.99571844 </v>
   <v>       0.24304128       0.00154893       0.00470141 </v>
   <v>       0.50061550       0.99714309       0.01172246 </v>
   <v>       0.76004232       0.99059962       0.00186037 </v>
   <v>       0.99923696       0.24498271       0.00918543 </v>
   <v>       0.25905375       0.24169119       0.00566855 </v>
   <v>       0.50446579       0.24000192       0.00214367 </v>
   <v>       0.75275648       0.24669606       0.98791387 </v>
   <v>       0.99895519       0.49945272       0.00639544 </v>
   <v>       0.25843390       0.50865939       0.99884679 </v>
   <v>       0.50117692       0.51847886       0.98778775 </v>
   <v>       0.74733854       0.49054614       0.00802796 </v>
   <v>       0.00617531       0.74450974       0.00516753 </v>
   <v>       0.25173434       0.75404943       0.00462155 </v>
   <v>       0.50318700       0.74669851       0.99893747 </v>
   <v>       0.74576740       0.75031758       0.00722293 </v>
   <v>       0.00270467       0.00488639       0.23837294 </v>
   <v>       0.26537882       0.99320293       0.23941041 </v>
   <v>       0.48817799       0.01028805       0.24529421 </v>
   <v>       0.74316671       0.00432806       0.24443043 </v>
   <v>       0.00330370       0.24176923       0.26177153 </v>
   <v>       0.24272971       0.24769407       0.26120283 </v>
   <v>       0.49487609       0.26360806       0.23711272 </v>
   <v>       0.74038232       0.25090833       0.24831260 </v>
   <v>       0.99550677       0.49989322       0.24599910 </v>
   <v>       0.26199630       0.49565904       0.25557428 </v>
   <v>       0.50280236       0.49782578       0.24938332 </v>
   <v>       0.74140520       0.50084237       0.25427739 </v>
   <v>       0.00087271       0.75753499       0.24962421 </v>
   <v>       0.25585792       0.75098729       0.25216126 </v>
   <v>       0.50245451       0.74930487       0.24575605 </v>
   <v>       0.74534453       0.75801022       0.24114916 </v>
   <v>       0.99805022       0.99530706       0.49907598 </v>
   <v>       0.25440948       0.99733868       0.50536718 </v>
   <v>       0.49429259       0.99808438       0.50158363 </v>
   <v>       0.74618625       0.00167074       0.51211008 </v>
   <v>       0.99934105       0.24865963       0.48119277 </v>
   <v>       0.25900573       0.25180152       0.49319572 </v>
   <v>       0.49536478       0.26619648       0.49062095 </v>
   <v>       0.75383404       0.26381609       0.48706946 </v>
   <v>       0.99043327       0.49867026       0.49996887 </v>
   <v>       0.24997077       0.50904005       0.48435146 </v>
   <v>       0.50900723       0.50422722       0.49662545 </v>
   <v>       0.75307770       0.49620380       0.50487632 </v>
   <v>       0.99518937       0.75098033       0.49893821 </v>
   <v>       0.24779935       0.75529200       0.49936282 </v>
   <v>       0.50178081       0.74996920       0.49485400 </v>
   <v>       0.73161786       0.76284501       0.49971008 </v>
   <v>       0.99212332       0.99665840       0.75006693 </v>
   <v>       0.24566973       0.99506878       0.74910346 </v>
   <v>       0.49546562       0.00678873       0.74456521 </v>
   <v>       0.75426269       0.99569969       0.75017972 </v>
   <v>       0.99602837       0.24779029       0.76384027 </v>
   <v>       0.24083671       0.25813722       0.74544689 </v>
   <v>       0.49693373       0.24861818       0.75311798 </v>
   <v>       0.74415055       0.26226826       0.75404730 </v>
   <v>       0.99286591       0.51090724       0.74844834 </v>
   <v>       0.24609723       0.49801068       0.75722864 </v>
   <v>       0.49339113       0.50478611       0.75830765 </v>
   <v>       0.74292303       0.49677031       0.75115204 </v>
   <v>       0.00741747       0.75439713       0.73912785 </v>
   <v>       0.25411449       0.74694540       0.75056276 </v>
   <v>       0.49136233       0.75501140       0.74886542 </v>
   <v>       0.75098290       0.74770071       0.76076955 </v>
   <v>       0.06060873       0.06540020       0.06393113 </v>
   <v>       0.30454370       0.07215721       0.05868314 </v>
   <v>       0.57054476       0.05179062       0.06599573 </v>
   <v>       0.79912488       0.06203357       0.06366532 </v>
   <v>       0.06487218       0.30640523       0.06093258 </v>
   <v>       0.30595369       0.31076014       0.06472674 </v>
   <v>       0.57432193       0.31111061       0.06488813 </v>
   <v>       0.82329399       0.31822935       0.04589010 </v>
   <v>       0.05271150       0.56931919       0.06138866 </v>
   <v>       0.30650544       0.57348875       0.06628505 </v>
   <v>       0.56049373       0.57247690       0.06756490 </v>
   <v>       0.81660604       0.56132398       0.06528396 </v>
   <v>       0.06625172       0.80853994       0.05760528 </v>
   <v>       0.30327371       0.80899509       0.07117058 </v>
   <v>       0.56233426       0.79764758       0.06503356 </v>
   <v>       0.81208491       0.81489950       0.05894672 </v>
   <v>       0.05621766       0.05985371       0.31023863 </v>
   <v>       0.31287851       0.06217648       0.30990885 </v>
   <v>       0.55887049       0.07575063       0.31041905 </v>
   <v>       0.80975007       0.06326234       0.30544572 </v>
   <v>       0.06120970       0.31872048       0.30516964 </v>
   <v>       0.29802941       0.32353229       0.31251855 </v>
   <v>       0.56128193       0.32145094       0.30919502 </v>
   <v>       0.81373762       0.31035511       0.30419251 </v>
   <v>       0.06865695       0.54847278       0.30883268 </v>
   <v>       0.31419096       0.56374793       0.31171169 </v>
   <v>       0.55473180       0.56569022       0.31959472 </v>
   <v>       0.81648589       0.57133580       0.30987145 </v>
   <v>       0.06510820       0.81666455       0.30912201 </v>
   <v>       0.32051990       0.80956706       0.31073390 </v>
   <v>       0.56594769       0.81094809       0.31033693 </v>
   <v>       0.81478270       0.80958218       0.31876751 </v>
   <v>       0.03620467       0.07462538       0.57245256 </v>
   <v>       0.31224349       0.05058906       0.57196674 </v>
   <v>       0.55413671       0.07209628       0.56009301 </v>
   <v>       0.81884673       0.05628440       0.56321253 </v>
   <v>       0.05968085       0.30673990       0.56085820 </v>
   <v>       0.31278159       0.30470564       0.57131667 </v>
   <v>       0.56185226       0.31165973       0.56478885 </v>
   <v>       0.81125533       0.32258071       0.56490530 </v>
   <v>       0.05721136       0.55888724       0.55940921 </v>
   <v>       0.31310426       0.56882387       0.55299894 </v>
   <v>       0.54990162       0.56127719       0.56684853 </v>
   <v>       0.81441371       0.56675007       0.57367258 </v>
   <v>       0.05844330       0.81083353       0.56149973 </v>
   <v>       0.32549216       0.80257605       0.55807874 </v>
   <v>       0.55351265       0.81776870       0.56666382 </v>
   <v>       0.80451744       0.80658628       0.56908866 </v>
   <v>       0.06102212       0.06575624       0.81286758 </v>
   <v>       0.29840641       0.06174164       0.81769114 </v>
   <v>       0.57036892       0.05535612       0.81637534 </v>
   <v>       0.80785891       0.06424318       0.81724290 </v>
   <v>       0.05481703       0.33121400       0.80797547 </v>
   <v>       0.30752598       0.31847059       0.81211422 </v>
   <v>       0.55589581       0.32441739       0.80598324 </v>
   <v>       0.81607660       0.32455248       0.81001505 </v>
   <v>       0.06770351       0.55902952       0.80685161 </v>
   <v>       0.30981125       0.55844840       0.81827367 </v>
   <v>       0.55269256       0.57171566       0.82184514 </v>
   <v>       0.80999079       0.56717880       0.81227795 </v>
   <v>       0.06445537       0.81032726       0.80966155 </v>
   <v>       0.31393041       0.81308742       0.80885938 </v>
   <v>       0.56986913       0.80990869       0.80927362 </v>
   <v>       0.82078280       0.81510273       0.80261677 </v>
  </varray>
 </structure>
</modeling>
