potpaw_PBE@./ARUN.APL1ZEROSTATE         
           1
     0.000000   10.937334   10.937334
    10.937334    0.000000   10.937334
    10.937334   10.937334    0.000000
   Si
 128
Direct configuration=     1
   0.98907265  0.00659711  0.99571844
   0.24304128  0.00154893  0.00470141
   0.50061550  0.99714309  0.01172246
   0.76004232  0.99059962  0.00186037
   0.99923696  0.24498271  0.00918543
   0.25905375  0.24169119  0.00566855
   0.50446579  0.24000192  0.00214367
   0.75275648  0.24669606  0.98791387
   0.99895519  0.49945272  0.00639544
   0.25843390  0.50865939  0.99884679
   0.50117692  0.51847886  0.98778775
   0.74733854  0.49054614  0.00802796
   0.00617531  0.74450974  0.00516753
   0.25173434  0.75404943  0.00462155
   0.50318700  0.74669851  0.99893747
   0.74576740  0.75031758  0.00722293
   0.00270467  0.00488639  0.23837294
   0.26537882  0.99320293  0.23941041
   0.48817799  0.01028805  0.24529421
   0.74316671  0.00432806  0.24443043
   0.00330370  0.24176923  0.26177153
   0.24272971  0.24769407  0.26120283
   0.49487609  0.26360806  0.23711272
   0.74038232  0.25090833  0.24831260
   0.99550677  0.49989322  0.24599910
   0.26199630  0.49565904  0.25557428
   0.50280236  0.49782578  0.24938332
   0.74140520  0.50084237  0.25427739
   0.00087271  0.75753499  0.24962421
   0.25585792  0.75098729  0.25216126
   0.50245451  0.74930487  0.24575605
   0.74534453  0.75801022  0.24114916
   0.99805022  0.99530706  0.49907598
   0.25440948  0.99733868  0.50536718
   0.49429259  0.99808438  0.50158363
   0.74618625  0.00167074  0.51211008
   0.99934105  0.24865963  0.48119277
   0.25900573  0.25180152  0.49319572
   0.49536478  0.26619648  0.49062095
   0.75383404  0.26381609  0.48706946
   0.99043327  0.49867026  0.49996887
   0.24997077  0.50904005  0.48435146
   0.50900723  0.50422722  0.49662545
   0.75307770  0.49620380  0.50487632
   0.99518937  0.75098033  0.49893821
   0.24779935  0.75529200  0.49936282
   0.50178081  0.74996920  0.49485400
   0.73161786  0.76284501  0.49971008
   0.99212332  0.99665840  0.75006693
   0.24566973  0.99506878  0.74910346
   0.49546562  0.00678873  0.74456521
   0.75426269  0.99569969  0.75017972
   0.99602837  0.24779029  0.76384027
   0.24083671  0.25813722  0.74544689
   0.49693373  0.24861818  0.75311798
   0.74415055  0.26226826  0.75404730
   0.99286591  0.51090724  0.74844834
   0.24609723  0.49801068  0.75722864
   0.49339113  0.50478611  0.75830765
   0.74292303  0.49677031  0.75115204
   0.00741747  0.75439713  0.73912785
   0.25411449  0.74694540  0.75056276
   0.49136233  0.75501140  0.74886542
   0.75098290  0.74770071  0.76076955
   0.06060873  0.06540020  0.06393113
   0.30454370  0.07215721  0.05868314
   0.57054476  0.05179062  0.06599573
   0.79912488  0.06203357  0.06366532
   0.06487218  0.30640523  0.06093258
   0.30595369  0.31076014  0.06472674
   0.57432193  0.31111061  0.06488813
   0.82329399  0.31822935  0.04589010
   0.05271150  0.56931919  0.06138866
   0.30650544  0.57348875  0.06628505
   0.56049373  0.57247690  0.06756490
   0.81660604  0.56132398  0.06528396
   0.06625172  0.80853994  0.05760528
   0.30327371  0.80899509  0.07117058
   0.56233426  0.79764758  0.06503356
   0.81208491  0.81489950  0.05894672
   0.05621766  0.05985371  0.31023863
   0.31287851  0.06217648  0.30990885
   0.55887049  0.07575063  0.31041905
   0.80975007  0.06326234  0.30544572
   0.06120970  0.31872048  0.30516964
   0.29802941  0.32353229  0.31251855
   0.56128193  0.32145094  0.30919502
   0.81373762  0.31035511  0.30419251
   0.06865695  0.54847278  0.30883268
   0.31419096  0.56374793  0.31171169
   0.55473180  0.56569022  0.31959472
   0.81648589  0.57133580  0.30987145
   0.06510820  0.81666455  0.30912201
   0.32051990  0.80956706  0.31073390
   0.56594769  0.81094809  0.31033693
   0.81478270  0.80958218  0.31876751
   0.03620467  0.07462538  0.57245256
   0.31224349  0.05058906  0.57196674
   0.55413671  0.07209628  0.56009301
   0.81884673  0.05628440  0.56321253
   0.05968085  0.30673990  0.56085820
   0.31278159  0.30470564  0.57131667
   0.56185226  0.31165973  0.56478885
   0.81125533  0.32258071  0.56490530
   0.05721136  0.55888724  0.55940921
   0.31310426  0.56882387  0.55299894
   0.54990162  0.56127719  0.56684853
   0.81441371  0.56675007  0.57367258
   0.05844330  0.81083353  0.56149973
   0.32549216  0.80257605  0.55807874
   0.55351265  0.81776870  0.56666382
   0.80451744  0.80658628  0.56908866
   0.06102212  0.06575624  0.81286758
   0.29840641  0.06174164  0.81769114
   0.57036892  0.05535612  0.81637534
   0.80785891  0.06424318  0.81724290
   0.05481703  0.33121400  0.80797547
   0.30752598  0.31847059  0.81211422
   0.55589581  0.32441739  0.80598324
   0.81607660  0.32455248  0.81001505
   0.06770351  0.55902952  0.80685161
   0.30981125  0.55844840  0.81827367
   0.55269256  0.57171566  0.82184514
   0.80999079  0.56717880  0.81227795
   0.06445537  0.81032726  0.80966155
   0.31393041  0.81308742  0.80885938
   0.56986913  0.80990869  0.80927362
   0.82078280  0.81510273  0.80261677
