 128 128   0   0
  0.2044346E+02  0.1546773E-08  0.1546773E-08  0.1546773E-08  0.5000000E-15
  1.000000000000000E-004
  CAR 
 potpaw_PBE@./ARUN.APL1ZEROSTATE         
      9.36888883     -7.04273905  301      5.88141790      1.00000000
     -7.043  0.0000E+00  0.0000E+00
     -6.988  0.0000E+00  0.0000E+00
     -6.933  0.0000E+00  0.0000E+00
     -6.879  0.0000E+00  0.0000E+00
     -6.824  0.0000E+00  0.0000E+00
     -6.769  0.0000E+00  0.0000E+00
     -6.715  0.0000E+00  0.0000E+00
     -6.660  0.0000E+00  0.0000E+00
     -6.605  0.0000E+00  0.0000E+00
     -6.550  0.0000E+00  0.0000E+00
     -6.496  0.0000E+00  0.0000E+00
     -6.441  0.0000E+00  0.0000E+00
     -6.386  0.0000E+00  0.0000E+00
     -6.332  0.1945E-05  0.1064E-06
     -6.277  0.4559E+01  0.2494E+00
     -6.222  0.1121E-01  0.2500E+00
     -6.167  0.4332E+00  0.2737E+00
     -6.113  0.1782E+02  0.1248E+01
     -6.058  0.2615E+02  0.2679E+01
     -6.003  0.1502E+02  0.3501E+01
     -5.949  0.4555E+01  0.3750E+01
     -5.894  0.9126E-06  0.3750E+01
     -5.839  0.4673E+01  0.4006E+01
     -5.785  0.1756E+02  0.4966E+01
     -5.730  0.1747E+02  0.5922E+01
     -5.675  0.4051E+02  0.8138E+01
     -5.620  0.1952E+02  0.9207E+01
     -5.566  0.2735E+02  0.1070E+02
     -5.511  0.3600E+02  0.1267E+02
     -5.456  0.2762E+02  0.1418E+02
     -5.402  0.1015E+02  0.1474E+02
     -5.347  0.2014E+00  0.1475E+02
     -5.292  0.4569E+01  0.1500E+02
     -5.237  0.4909E+01  0.1527E+02
     -5.183  0.3688E+02  0.1729E+02
     -5.128  0.3143E+02  0.1901E+02
     -5.073  0.4014E+02  0.2120E+02
     -5.019  0.3980E+02  0.2338E+02
     -4.964  0.4808E+02  0.2601E+02
     -4.909  0.2813E+02  0.2755E+02
     -4.855  0.1297E+02  0.2826E+02
     -4.800  0.2501E+02  0.2963E+02
     -4.745  0.3464E+02  0.3152E+02
     -4.690  0.3165E+02  0.3325E+02
     -4.636  0.3783E+02  0.3532E+02
     -4.581  0.2931E+02  0.3692E+02
     -4.526  0.3572E+02  0.3888E+02
     -4.472  0.4732E+02  0.4147E+02
     -4.417  0.2388E+02  0.4277E+02
     -4.362  0.1101E+02  0.4338E+02
     -4.307  0.2225E+02  0.4459E+02
     -4.253  0.5373E+02  0.4753E+02
     -4.198  0.4548E+02  0.5002E+02
     -4.143  0.5223E+02  0.5288E+02
     -4.089  0.5400E+02  0.5583E+02
     -4.034  0.5408E+02  0.5879E+02
     -3.979  0.7503E+02  0.6289E+02
     -3.925  0.3564E+02  0.6484E+02
     -3.870  0.5511E+02  0.6786E+02
     -3.815  0.5549E+02  0.7089E+02
     -3.760  0.4919E+02  0.7358E+02
     -3.706  0.4369E+02  0.7598E+02
     -3.651  0.4434E+02  0.7840E+02
     -3.596  0.3364E+02  0.8024E+02
     -3.542  0.3443E+02  0.8212E+02
     -3.487  0.4411E+02  0.8454E+02
     -3.432  0.4491E+02  0.8699E+02
     -3.377  0.6230E+02  0.9040E+02
     -3.323  0.5097E+02  0.9319E+02
     -3.268  0.3744E+02  0.9524E+02
     -3.213  0.2882E+02  0.9682E+02
     -3.159  0.3292E+02  0.9862E+02
     -3.104  0.4254E+02  0.1009E+03
     -3.049  0.4924E+02  0.1036E+03
     -2.995  0.5310E+02  0.1065E+03
     -2.940  0.3498E+02  0.1085E+03
     -2.885  0.3915E+02  0.1106E+03
     -2.830  0.2309E+02  0.1119E+03
     -2.776  0.3933E+02  0.1140E+03
     -2.721  0.2936E+02  0.1156E+03
     -2.666  0.3852E+02  0.1177E+03
     -2.612  0.4621E+02  0.1203E+03
     -2.557  0.2671E+02  0.1217E+03
     -2.502  0.9796E+01  0.1223E+03
     -2.447  0.9120E+01  0.1227E+03
     -2.393  0.3823E-02  0.1228E+03
     -2.338  0.7468E+01  0.1232E+03
     -2.283  0.1787E+01  0.1233E+03
     -2.229  0.2401E+02  0.1246E+03
     -2.174  0.2234E+02  0.1258E+03
     -2.119  0.3507E+02  0.1277E+03
     -2.065  0.1425E+02  0.1285E+03
     -2.010  0.2065E+02  0.1296E+03
     -1.955  0.2911E+02  0.1312E+03
     -1.900  0.1674E+02  0.1321E+03
     -1.846  0.8911E+01  0.1326E+03
     -1.791  0.6944E+01  0.1330E+03
     -1.736  0.4653E+01  0.1333E+03
     -1.682  0.1246E+02  0.1339E+03
     -1.627  0.6441E+01  0.1343E+03
     -1.572  0.2951E+02  0.1359E+03
     -1.517  0.4240E+02  0.1382E+03
     -1.463  0.3133E+02  0.1399E+03
     -1.408  0.3404E+02  0.1418E+03
     -1.353  0.4659E+02  0.1443E+03
     -1.299  0.4714E+02  0.1469E+03
     -1.244  0.6084E+02  0.1503E+03
     -1.189  0.6391E+02  0.1537E+03
     -1.135  0.5989E+02  0.1570E+03
     -1.080  0.6157E+02  0.1604E+03
     -1.025  0.7551E+02  0.1645E+03
     -0.970  0.6133E+02  0.1679E+03
     -0.916  0.7364E+02  0.1719E+03
     -0.861  0.6020E+02  0.1752E+03
     -0.806  0.7178E+02  0.1791E+03
     -0.752  0.5189E+02  0.1820E+03
     -0.697  0.4050E+02  0.1842E+03
     -0.642  0.3567E+02  0.1861E+03
     -0.587  0.3367E+02  0.1880E+03
     -0.533  0.2857E+02  0.1895E+03
     -0.478  0.1335E+02  0.1903E+03
     -0.423  0.3407E+02  0.1921E+03
     -0.369  0.3532E+02  0.1941E+03
     -0.314  0.4735E+02  0.1967E+03
     -0.259  0.5198E+02  0.1995E+03
     -0.205  0.4253E+02  0.2018E+03
     -0.150  0.4883E+02  0.2045E+03
     -0.095  0.4590E+02  0.2070E+03
     -0.040  0.4380E+02  0.2094E+03
      0.014  0.3913E+02  0.2115E+03
      0.069  0.2334E+02  0.2128E+03
      0.124  0.1260E+02  0.2135E+03
      0.178  0.1386E+02  0.2143E+03
      0.233  0.1838E+02  0.2153E+03
      0.288  0.1339E+02  0.2160E+03
      0.342  0.2564E+02  0.2174E+03
      0.397  0.2575E+02  0.2188E+03
      0.452  0.1966E+02  0.2199E+03
      0.507  0.2993E+02  0.2215E+03
      0.561  0.2875E+02  0.2231E+03
      0.616  0.1136E+02  0.2237E+03
      0.671  0.2272E+02  0.2250E+03
      0.725  0.2260E+02  0.2262E+03
      0.780  0.1407E+02  0.2270E+03
      0.835  0.1073E+02  0.2276E+03
      0.890  0.4286E+01  0.2278E+03
      0.944  0.2415E+02  0.2291E+03
      0.999  0.2576E+02  0.2305E+03
      1.054  0.2635E+02  0.2320E+03
      1.108  0.2417E+02  0.2333E+03
      1.163  0.3952E+02  0.2354E+03
      1.218  0.1388E+02  0.2362E+03
      1.272  0.2423E+02  0.2375E+03
      1.327  0.3071E+02  0.2392E+03
      1.382  0.2634E+02  0.2407E+03
      1.437  0.3611E+02  0.2426E+03
      1.491  0.7473E+02  0.2467E+03
      1.546  0.9358E+02  0.2518E+03
      1.601  0.8952E+02  0.2567E+03
      1.655  0.8504E+02  0.2614E+03
      1.710  0.5569E+02  0.2644E+03
      1.765  0.6829E+02  0.2682E+03
      1.820  0.5213E+02  0.2710E+03
      1.874  0.2678E+02  0.2725E+03
      1.929  0.2289E+02  0.2737E+03
      1.984  0.1036E+02  0.2743E+03
      2.038  0.3337E+02  0.2761E+03
      2.093  0.7163E+02  0.2800E+03
      2.148  0.1079E+03  0.2860E+03
      2.202  0.1122E+03  0.2921E+03
      2.257  0.1167E+03  0.2985E+03
      2.312  0.1250E+03  0.3053E+03
      2.367  0.1281E+03  0.3123E+03
      2.421  0.9289E+02  0.3174E+03
      2.476  0.6707E+02  0.3211E+03
      2.531  0.4449E+02  0.3235E+03
      2.585  0.1542E+02  0.3243E+03
      2.640  0.5165E+02  0.3272E+03
      2.695  0.7037E+02  0.3310E+03
      2.750  0.8166E+02  0.3355E+03
      2.804  0.1111E+03  0.3416E+03
      2.859  0.8128E+02  0.3460E+03
      2.914  0.7967E+02  0.3504E+03
      2.968  0.1013E+03  0.3559E+03
      3.023  0.9938E+02  0.3614E+03
      3.078  0.9599E+02  0.3666E+03
      3.132  0.8322E+02  0.3712E+03
      3.187  0.7123E+02  0.3751E+03
      3.242  0.8689E+02  0.3798E+03
      3.297  0.1035E+03  0.3855E+03
      3.351  0.1073E+03  0.3913E+03
      3.406  0.8315E+02  0.3959E+03
      3.461  0.7875E+02  0.4002E+03
      3.515  0.9820E+02  0.4056E+03
      3.570  0.8746E+02  0.4103E+03
      3.625  0.7617E+02  0.4145E+03
      3.680  0.6000E+02  0.4178E+03
      3.734  0.8513E+02  0.4225E+03
      3.789  0.8425E+02  0.4271E+03
      3.844  0.8929E+02  0.4319E+03
      3.898  0.6966E+02  0.4358E+03
      3.953  0.7649E+02  0.4399E+03
      4.008  0.6134E+02  0.4433E+03
      4.062  0.7588E+02  0.4475E+03
      4.117  0.6874E+02  0.4512E+03
      4.172  0.5962E+02  0.4545E+03
      4.227  0.7143E+02  0.4584E+03
      4.281  0.7209E+02  0.4623E+03
      4.336  0.7787E+02  0.4666E+03
      4.391  0.7831E+02  0.4709E+03
      4.445  0.7362E+02  0.4749E+03
      4.500  0.7188E+02  0.4788E+03
      4.555  0.5577E+02  0.4819E+03
      4.610  0.6539E+02  0.4855E+03
      4.664  0.4865E+02  0.4881E+03
      4.719  0.2858E+02  0.4897E+03
      4.774  0.4058E+02  0.4919E+03
      4.828  0.1939E+02  0.4930E+03
      4.883  0.3011E+02  0.4946E+03
      4.938  0.4536E+02  0.4971E+03
      4.992  0.3812E+02  0.4992E+03
      5.047  0.3088E+02  0.5009E+03
      5.102  0.3205E+02  0.5026E+03
      5.157  0.1617E+02  0.5035E+03
      5.211  0.6589E+01  0.5039E+03
      5.266  0.1141E+02  0.5045E+03
      5.321  0.1080E+02  0.5051E+03
      5.375  0.1869E+02  0.5061E+03
      5.430  0.2563E+02  0.5075E+03
      5.485  0.1359E+02  0.5082E+03
      5.540  0.1943E+02  0.5093E+03
      5.594  0.2591E+02  0.5107E+03
      5.649  0.1409E+02  0.5115E+03
      5.704  0.3255E-02  0.5115E+03
      5.758  0.4015E+01  0.5117E+03
      5.813  0.5560E+00  0.5118E+03
      5.868  0.4569E+01  0.5120E+03
      5.922  0.0000E+00  0.5120E+03
      5.977  0.0000E+00  0.5120E+03
      6.032  0.0000E+00  0.5120E+03
      6.087  0.9307E-09  0.5120E+03
      6.141  0.7781E+01  0.5124E+03
      6.196  0.1584E+02  0.5133E+03
      6.251  0.1737E+02  0.5142E+03
      6.305  0.1335E+02  0.5150E+03
      6.360  0.2085E+02  0.5161E+03
      6.415  0.2637E+02  0.5176E+03
      6.470  0.2093E+02  0.5187E+03
      6.524  0.2234E+02  0.5199E+03
      6.579  0.1775E+02  0.5209E+03
      6.634  0.1873E+02  0.5219E+03
      6.688  0.1852E+02  0.5229E+03
      6.743  0.2891E+02  0.5245E+03
      6.798  0.3566E+02  0.5265E+03
      6.852  0.3021E+02  0.5281E+03
      6.907  0.3453E+02  0.5300E+03
      6.962  0.4574E+02  0.5325E+03
      7.017  0.3092E+02  0.5342E+03
      7.071  0.5329E+02  0.5371E+03
      7.126  0.2400E+02  0.5384E+03
      7.181  0.2772E+02  0.5399E+03
      7.235  0.3686E+02  0.5420E+03
      7.290  0.6122E+02  0.5453E+03
      7.345  0.9097E+02  0.5503E+03
      7.399  0.7040E+02  0.5541E+03
      7.454  0.6302E+02  0.5576E+03
      7.509  0.7919E+02  0.5619E+03
      7.564  0.8715E+02  0.5667E+03
      7.618  0.9151E+02  0.5717E+03
      7.673  0.9242E+02  0.5767E+03
      7.728  0.8838E+02  0.5816E+03
      7.782  0.9398E+02  0.5867E+03
      7.837  0.9007E+02  0.5917E+03
      7.892  0.9498E+02  0.5968E+03
      7.947  0.9290E+02  0.6019E+03
      8.001  0.9032E+02  0.6069E+03
      8.056  0.9331E+02  0.6120E+03
      8.111  0.7699E+02  0.6162E+03
      8.165  0.8264E+02  0.6207E+03
      8.220  0.8711E+02  0.6255E+03
      8.275  0.7862E+02  0.6298E+03
      8.329  0.8238E+02  0.6343E+03
      8.384  0.8771E+02  0.6391E+03
      8.439  0.5354E+02  0.6420E+03
      8.494  0.2267E+02  0.6432E+03
      8.548  0.4625E+01  0.6435E+03
      8.603  0.4568E+01  0.6438E+03
      8.658  0.4559E+01  0.6440E+03
      8.712  0.0000E+00  0.6440E+03
      8.767  0.0000E+00  0.6440E+03
      8.822  0.0000E+00  0.6440E+03
      8.877  0.0000E+00  0.6440E+03
      8.931  0.0000E+00  0.6440E+03
      8.986  0.0000E+00  0.6440E+03
      9.041  0.0000E+00  0.6440E+03
      9.095  0.0000E+00  0.6440E+03
      9.150  0.0000E+00  0.6440E+03
      9.205  0.0000E+00  0.6440E+03
      9.259  0.0000E+00  0.6440E+03
      9.314  0.0000E+00  0.6440E+03
      9.369  0.0000E+00  0.6440E+03
