 vasp.5.4.4.18Apr17-6-g9f103f2a35 (build Nov 08 2017 09:05:29) complex          
  
 executed on          Intel_17.33 date 2020.07.18  19:34:55
 running on   32 total cores
 distrk:  each k-point on   32 cores,    1 groups
 distr:  one band on NCORES_PER_BAND=  16 cores,    2 groups


--------------------------------------------------------------------------------------------------------


 INCAR:
 POTCAR:   PAW_PBE Si 05Jan2001                   

 ----------------------------------------------------------------------------- 
|                                                                             |
|           W    W    AA    RRRRR   N    N  II  N    N   GGGG   !!!           |
|           W    W   A  A   R    R  NN   N  II  NN   N  G    G  !!!           |
|           W    W  A    A  R    R  N N  N  II  N N  N  G       !!!           |
|           W WW W  AAAAAA  RRRRR   N  N N  II  N  N N  G  GGG   !            |
|           WW  WW  A    A  R   R   N   NN  II  N   NN  G    G                |
|           W    W  A    A  R    R  N    N  II  N    N   GGGG   !!!           |
|                                                                             |
|      For optimal performance we recommend to set                            |
|        NCORE= 4 - approx SQRT( number of cores)                             |
|      NCORE specifies how many cores store one orbital (NPAR=cpu/NCORE).     |
|      This setting can  greatly improve the performance of VASP for DFT.     |
|      The default,   NCORE=1            might be grossly inefficient         |
|      on modern multi-core architectures or massively parallel machines.     |
|      Do your own testing !!!!                                               |
|      Unfortunately you need to use the default for GW and RPA calculations. |
|      (for HF NCORE is supported but not extensively tested yet)             |
|                                                                             |
 ----------------------------------------------------------------------------- 

 POTCAR:   PAW_PBE Si 05Jan2001                   
   VRHFIN =Si: s2p2                                                             
   LEXCH  = PE                                                                  
   EATOM  =   103.0669 eV,    7.5752 Ry                                         
                                                                                
   TITEL  = PAW_PBE Si 05Jan2001                                                
   LULTRA =        F    use ultrasoft PP ?                                      
   IUNSCR =        1    unscreen: 0-lin 1-nonlin 2-no                           
   RPACOR =    1.500    partial core radius                                     
   POMASS =   28.085; ZVAL   =    4.000    mass and valenz                      
   RCORE  =    1.900    outmost cutoff radius                                   
   RWIGS  =    2.480; RWIGS  =    1.312    wigner-seitz radius (au A)           
   ENMAX  =  245.345; ENMIN  =  184.009 eV                                      
   ICORE  =        2    local potential                                         
   LCOR   =        T    correct aug charges                                     
   LPAW   =        T    paw PP                                                  
   EAUG   =  322.069                                                            
   DEXC   =    -.007                                                            
   RMAX   =    2.944    core radius for proj-oper                               
   RAUG   =    1.300    factor for augmentation sphere                          
   RDEP   =    1.993    radius for radial grids                                 
   QCUT   =   -4.246; QGAM   =    8.493    optimization parameters              
                                                                                
   Description                                                                  
     l     E      TYP  RCUT    TYP  RCUT                                        
     0   .000     23  1.900                                                     
     0   .000     23  1.900                                                     
     1   .000     23  1.900                                                     
     1   .000     23  1.900                                                     
     2   .000      7  1.900                                                     
  local pseudopotential read in
  partial core-charges read in
  atomic valenz-charges read in
  non local Contribution for L=           0  read in
    real space projection operators read in
  non local Contribution for L=           0  read in
    real space projection operators read in
  non local Contribution for L=           1  read in
    real space projection operators read in
  non local Contribution for L=           1  read in
    real space projection operators read in
    PAW grid and wavefunctions read in
 
   number of l-projection  operators is LMAX  =           4
   number of lm-projection operators is LMMAX =           8
 

 ----------------------------------------------------------------------------- 
|                                                                             |
|  ADVICE TO THIS USER RUNNING 'VASP/VAMP'   (HEAR YOUR MASTER'S VOICE ...):  |
|                                                                             |
|      You have a (more or less) 'large supercell' and for larger cells       |
|      it might be more efficient to use real space projection operators      |
|      So try LREAL= Auto  in the INCAR   file.                               |
|      Mind: If you want to do a very accurate calculations keep the          |
|      reciprocal projection scheme          (i.e. LREAL=.FALSE.)             |
|                                                                             |
 ----------------------------------------------------------------------------- 

 PAW_PBE Si 05Jan2001                   :
 energy of atom  1       EATOM= -103.0669
 kinetic energy error for atom=    0.0006 (will be added to EATOM!!)
 
 
 POSCAR: kk                                      
  positions in direct lattice
  No initial velocities read in
 exchange correlation table for  LEXCH =        8
   RHO(1)=    0.500       N(1)  =     2000
   RHO(2)=  100.500       N(2)  =     4000
 


--------------------------------------------------------------------------------------------------------


 ion  position               nearest neighbor table
   1  0.008  0.998  0.995-  77 2.23  68 2.39 113 2.39  65 2.51
   2  0.258  0.990  0.994-  78 2.26  66 2.38 114 2.39  65 2.50
   3  0.503  0.996  0.006-  79 2.32  67 2.40 115 2.51  66 2.58
   4  0.757  0.003  0.995-  67 2.23  68 2.23  80 2.40 116 2.41
   5  0.995  0.253  0.003-  69 2.24  72 2.26  65 2.35 117 2.54
   6  0.249  0.242  0.996- 118 2.25  66 2.30  69 2.43  70 2.59
   7  0.503  0.249  0.998- 119 2.15  70 2.27  71 2.37  67 2.44
   8  0.749  0.251  0.006-  71 2.25  72 2.30 120 2.40  68 2.50
   9  0.009  0.505  0.991- 121 2.21  73 2.22  76 2.50  69 2.51
  10  0.248  0.504  0.993- 122 2.27  73 2.28  74 2.37  70 2.44
  11  0.501  0.498  0.001-  74 2.41  75 2.41 123 2.43  71 2.44
  12  0.756  0.502  0.995-  76 2.30 124 2.33  75 2.48  72 2.53
  13  0.008  0.746  0.003-  73 2.35  80 2.37  77 2.38 125 2.49
  14  0.251  0.755  0.995- 126 2.26  78 2.28  77 2.41  74 2.52
  15  0.506  0.755  0.990- 127 2.29  75 2.35  79 2.47  78 2.57
  16  0.748  0.757  0.990- 128 2.27  79 2.36  76 2.47  80 2.54
  17  0.010  0.997  0.245-  65 2.21  93 2.24  81 2.27  84 2.51
  18  0.258  0.987  0.253-  94 2.19  66 2.34  82 2.48  81 2.53
  19  0.511  0.995  0.248-  83 2.23  95 2.34  67 2.40  82 2.43
  20  0.752  0.993  0.246-  68 2.36  83 2.36  96 2.39  84 2.63
  21  0.007  0.265  0.237-  69 2.19  85 2.28  88 2.50  81 2.65
  22  0.261  0.251  0.246-  86 2.28  70 2.39  85 2.40  82 2.44
  23  0.497  0.246  0.251-  83 2.39  71 2.40  87 2.42  86 2.43
  24  0.766  0.247  0.252-  88 2.28  72 2.31  84 2.34  87 2.57
  25  0.999  0.499  0.245-  85 2.33  92 2.39  89 2.39  73 2.43
  26  0.253  0.502  0.241-  74 2.20  90 2.42  86 2.47  89 2.53
  27  0.506  0.495  0.250-  90 2.29  87 2.35  75 2.39  91 2.54
  28  0.746  0.497  0.252-  88 2.25  91 2.30  76 2.40  92 2.46
  29  0.994  0.750  0.255-  89 2.23  96 2.30  77 2.44  93 2.49
  30  0.234  0.757  0.250-  93 2.17  78 2.33  94 2.43  90 2.54
  31  0.499  0.750  0.250-  79 2.26  91 2.36  95 2.39  94 2.40
  32  0.747  0.750  0.244-  95 2.25  80 2.30  92 2.38  96 2.55
  33  0.995  0.004  0.500-  81 2.31 100 2.39  97 2.41 109 2.51
  34  0.245  0.000  0.510-  97 2.27 110 2.30  82 2.44  98 2.50
  35  0.496  0.008  0.504-  99 2.25  98 2.27  83 2.47 111 2.50
  36  0.750  0.997  0.506- 100 2.28  84 2.29  99 2.45 112 2.46
  37  0.001  0.245  0.491-  97 2.29 104 2.38  85 2.39 101 2.43
  38  0.246  0.250  0.502-  86 2.23 101 2.25  98 2.32 102 2.45
  39  0.503  0.252  0.496- 103 2.28  87 2.30  99 2.32 102 2.38
  40  0.747  0.256  0.504- 104 2.13 103 2.26 100 2.35  88 2.37
  41  0.995  0.508  0.497- 108 2.28  89 2.41 105 2.48 101 2.65
  42  0.256  0.500  0.494- 106 2.20 102 2.30 105 2.33  90 2.38
  43  0.495  0.502  0.498-  91 2.22 106 2.35 107 2.42 103 2.51
  44  0.757  0.502  0.500-  92 2.32 108 2.38 104 2.41 107 2.45
  45  0.995  0.748  0.502- 112 2.28 109 2.35  93 2.40 105 2.49
  46  0.256  0.764  0.489- 110 2.24  94 2.27 109 2.49 106 2.57
  47  0.499  0.741  0.505- 107 2.26 111 2.37  95 2.48 110 2.50
  48  0.754  0.741  0.502- 108 2.18  96 2.25 112 2.32 111 2.40
  49  0.995  0.004  0.746-  97 2.34 113 2.35 116 2.37 125 2.53
  50  0.242  0.001  0.759- 113 2.33 114 2.36  98 2.41 126 2.43
  51  0.502  0.994  0.762- 127 2.18 115 2.21 114 2.23  99 2.54
  52  0.749  0.003  0.741- 115 2.23 116 2.30 100 2.33 128 2.37
  53  0.999  0.243  0.751- 113 2.24 101 2.37 120 2.45 117 2.50
  54  0.246  0.257  0.753- 117 2.21 102 2.46 118 2.50 114 2.54
  55  0.506  0.248  0.742- 103 2.32 118 2.36 119 2.42 115 2.48
  56  0.756  0.251  0.750- 120 2.25 116 2.40 119 2.49 104 2.53
  57  0.000  0.505  0.741- 105 2.17 117 2.37 124 2.41 121 2.46
  58  0.241  0.501  0.753- 121 2.16 118 2.38 122 2.44 106 2.52
  59  0.496  0.506  0.747- 122 2.25 123 2.35 107 2.37 119 2.62
  60  0.743  0.508  0.742- 108 2.26 123 2.27 120 2.46 124 2.46
  61  0.998  0.747  0.757- 125 2.32 109 2.41 128 2.42 121 2.45
  62  0.255  0.758  0.744- 110 2.26 126 2.28 125 2.30 122 2.53
  63  0.500  0.754  0.763- 127 2.16 126 2.39 123 2.43 111 2.61
  64  0.748  0.751  0.757- 128 2.24 124 2.31 127 2.41 112 2.44
  65  0.062  0.068  0.070-  17 2.21   5 2.35   2 2.50   1 2.51
  66  0.300  0.060  0.069-   6 2.30  18 2.34   2 2.38   3 2.58
  67  0.580  0.056  0.058-   4 2.23   3 2.40  19 2.40   7 2.44
  68  0.819  0.053  0.059-   4 2.23  20 2.36   1 2.39   8 2.50
  69  0.056  0.308  0.065-  21 2.19   5 2.24   6 2.43   9 2.51
  70  0.323  0.311  0.057-   7 2.27  22 2.39  10 2.44   6 2.59
  71  0.571  0.304  0.062-   8 2.25   7 2.37  23 2.40  11 2.44
  72  0.816  0.302  0.070-   5 2.26   8 2.30  24 2.31  12 2.53
  73  0.067  0.560  0.053-   9 2.22  10 2.28  13 2.35  25 2.43
  74  0.310  0.555  0.067-  26 2.20  10 2.37  11 2.41  14 2.52
  75  0.560  0.569  0.061-  15 2.35  27 2.39  11 2.41  12 2.48
  76  0.811  0.562  0.062-  12 2.30  28 2.40  16 2.47   9 2.50
  77  0.061  0.822  0.062-   1 2.23  13 2.38  14 2.41  29 2.44
  78  0.303  0.812  0.066-   2 2.26  14 2.28  30 2.33  15 2.57
  79  0.562  0.812  0.071-  31 2.26   3 2.32  16 2.36  15 2.47
  80  0.821  0.814  0.063-  32 2.30  13 2.37   4 2.40  16 2.54
  81  0.058  0.056  0.318-  17 2.27  33 2.31  18 2.53  21 2.65
  82  0.319  0.058  0.317-  19 2.43  34 2.44  22 2.44  18 2.48
  83  0.565  0.056  0.309-  19 2.23  20 2.36  23 2.39  35 2.47
  84  0.812  0.062  0.325-  36 2.29  24 2.34  17 2.51  20 2.63
  85  0.072  0.315  0.303-  21 2.28  25 2.33  37 2.39  22 2.40
  86  0.305  0.308  0.325-  38 2.23  22 2.28  23 2.43  26 2.47
  87  0.563  0.308  0.314-  39 2.30  27 2.35  23 2.42  24 2.57
  88  0.809  0.319  0.317-  28 2.25  24 2.28  40 2.37  21 2.50
  89  0.052  0.573  0.307-  29 2.23  25 2.39  41 2.41  26 2.53
  90  0.324  0.557  0.306-  27 2.29  42 2.38  26 2.42  30 2.54
  91  0.565  0.563  0.323-  43 2.22  28 2.30  31 2.36  27 2.54
  92  0.811  0.562  0.317-  44 2.32  32 2.38  25 2.39  28 2.46
  93  0.063  0.820  0.313-  30 2.17  17 2.24  45 2.40  29 2.49
  94  0.309  0.814  0.310-  18 2.19  46 2.27  31 2.40  30 2.43
  95  0.569  0.810  0.309-  32 2.25  19 2.34  31 2.39  47 2.48
  96  0.813  0.805  0.324-  48 2.25  29 2.30  20 2.39  32 2.55
  97  0.065  0.064  0.561-  34 2.27  37 2.29  49 2.34  33 2.41
  98  0.317  0.067  0.569-  35 2.27  38 2.32  50 2.41  34 2.50
  99  0.556  0.069  0.561-  35 2.25  39 2.32  36 2.45  51 2.54
 100  0.806  0.070  0.556-  36 2.28  52 2.33  40 2.35  33 2.39
 101  0.068  0.298  0.563-  38 2.25  53 2.37  37 2.43  41 2.65
 102  0.314  0.318  0.559-  42 2.30  39 2.38  38 2.45  54 2.46
 103  0.568  0.303  0.559-  40 2.26  39 2.28  55 2.32  43 2.51
 104  0.813  0.312  0.551-  40 2.13  37 2.38  44 2.41  56 2.53
 105  0.072  0.552  0.571-  57 2.17  42 2.33  41 2.48  45 2.49
 106  0.309  0.561  0.554-  42 2.20  43 2.35  58 2.52  46 2.57
 107  0.564  0.562  0.560-  47 2.26  59 2.37  43 2.42  44 2.45
 108  0.815  0.569  0.564-  48 2.18  60 2.26  41 2.28  44 2.38
 109  0.061  0.805  0.566-  45 2.35  61 2.41  46 2.49  33 2.51
 110  0.301  0.819  0.566-  46 2.24  62 2.26  34 2.30  47 2.50
 111  0.564  0.810  0.558-  47 2.37  48 2.40  35 2.50  63 2.61
 112  0.814  0.802  0.565-  45 2.28  48 2.32  64 2.44  36 2.46
 113  0.058  0.066  0.807-  53 2.24  50 2.33  49 2.35   1 2.39
 114  0.326  0.057  0.805-  51 2.23  50 2.36   2 2.39  54 2.54
 115  0.573  0.052  0.808-  51 2.21  52 2.23  55 2.48   3 2.51
 116  0.808  0.062  0.805-  52 2.30  49 2.37  56 2.40   4 2.41
 117  0.071  0.317  0.803-  54 2.21  57 2.37  53 2.50   5 2.54
 118  0.320  0.314  0.820-   6 2.25  55 2.36  58 2.38  54 2.50
 119  0.560  0.299  0.828-   7 2.15  55 2.42  56 2.49  59 2.62
 120  0.806  0.313  0.816-  56 2.25   8 2.40  53 2.45  60 2.46
 121  0.071  0.553  0.816-  58 2.16   9 2.21  61 2.45  57 2.46
 122  0.318  0.557  0.814-  59 2.25  10 2.27  58 2.44  62 2.53
 123  0.563  0.563  0.809-  60 2.27  59 2.35  63 2.43  11 2.43
 124  0.809  0.568  0.810-  64 2.31  12 2.33  57 2.41  60 2.46
 125  0.074  0.804  0.807-  62 2.30  61 2.32  13 2.49  49 2.53
 126  0.312  0.809  0.816-  14 2.26  62 2.28  63 2.39  50 2.43
 127  0.558  0.822  0.809-  63 2.16  51 2.18  15 2.29  64 2.41
 128  0.806  0.816  0.811-  64 2.24  16 2.27  52 2.37  61 2.42
 
  LATTYP: Found a face centered cubic cell.
 ALAT       =    21.8746673814
  
  Lattice vectors:
  
 A1 = (   0.0000000000,  10.9373336907,  10.9373336907)
 A2 = (  10.9373336907,   0.0000000000,  10.9373336907)
 A3 = (  10.9373336907,  10.9373336907,   0.0000000000)


Analysis of symmetry for initial positions (statically):
=====================================================================
 Subroutine PRICEL returns:
 Original cell was already a primitive cell.
 

 Routine SETGRP: Setting up the symmetry group for a 
 face centered cubic supercell.


 Subroutine GETGRP returns: Found  1 space group operations
 (whereof  1 operations were pure point group operations)
 out of a pool of 48 trial point group operations.


The static configuration has the point symmetry C_1 .


Analysis of symmetry for dynamics (positions and initial velocities):
=====================================================================
 Subroutine PRICEL returns:
 Original cell was already a primitive cell.
 

 Routine SETGRP: Setting up the symmetry group for a 
 face centered cubic supercell.


 Subroutine GETGRP returns: Found  1 space group operations
 (whereof  1 operations were pure point group operations)
 out of a pool of 48 trial point group operations.


The dynamic configuration has the point symmetry C_1 .


 Subroutine INISYM returns: Found  1 space group operations
 (whereof  1 operations are pure point group operations),
 and found     1 'primitive' translations

 
 
 KPOINTS: KPOINTS File, automatically generated by

Automatic generation of k-mesh.
Space group operators:
 irot       det(A)        alpha          n_x          n_y          n_z        tau_x        tau_y        tau_z
    1     1.000000     0.000001     1.000000     0.000000     0.000000     0.000000     0.000000     0.000000
 
 Subroutine IBZKPT returns following result:
 ===========================================
 
 Found      8 irreducible k-points:
 
 Following reciprocal coordinates:
            Coordinates               Weight
  0.000000  0.000000  0.000000      1.000000
  0.500000  0.000000  0.000000      1.000000
  0.000000  0.500000  0.000000      1.000000
  0.500000  0.500000  0.000000      1.000000
  0.000000  0.000000  0.500000      1.000000
  0.500000  0.000000  0.500000      1.000000
  0.000000  0.500000  0.500000      1.000000
  0.500000  0.500000  0.500000      1.000000
 
 Following cartesian coordinates:
            Coordinates               Weight
  0.000000  0.000000  0.000000      1.000000
 -0.022857  0.022857  0.022857      1.000000
  0.022857 -0.022857  0.022857      1.000000
  0.000000  0.000000  0.045715      1.000000
  0.022857  0.022857 -0.022857      1.000000
  0.000000  0.045715  0.000000      1.000000
  0.045715  0.000000  0.000000      1.000000
  0.022857  0.022857  0.022857      1.000000
 


--------------------------------------------------------------------------------------------------------




 Dimension of arrays:
   k-points           NKPTS =      8   k-points in BZ     NKDIM =      8   number of bands    NBANDS=    322
   number of dos      NEDOS =    301   number of ions     NIONS =    128
   non local maximal  LDIM  =      4   non local SUM 2l+1 LMDIM =      8
   total plane-waves  NPLWV = ******
   max r-space proj   IRMAX =      1   max aug-charges    IRDMAX= 176811
   dimension x,y,z NGX =   120 NGY =  120 NGZ =  120
   dimension x,y,z NGXF=   240 NGYF=  240 NGZF=  240
   support grid    NGXF=   480 NGYF=  480 NGZF=  480
   ions per type =             128
   NGX,Y,Z   is equivalent  to a cutoff of  12.90, 12.90, 12.90 a.u.
   NGXF,Y,Z  is equivalent  to a cutoff of  25.80, 25.80, 25.80 a.u.

 SYSTEM =  potpaw_PBE@./ARUN.APL1ZEROSTATE         
 POSCAR =  kk                                      

 Startparameter for this run:
   NWRITE =      2    write-flag & timer
   PREC   = accura    normal or accurate (medium, high low for compatibility)
   ISTART =      0    job   : 0-new  1-cont  2-samecut
   ICHARG =      2    charge: 1-file 2-atom 10-const
   ISPIN  =      1    spin polarized calculation?
   LNONCOLLINEAR =      F non collinear calculations
   LSORBIT =      F    spin-orbit coupling
   INIWAV =      1    electr: 0-lowe 1-rand  2-diag
   LASPH  =      F    aspherical Exc in radial PAW
   METAGGA=      F    non-selfconsistent MetaGGA calc.

 Electronic Relaxation 1
   ENCUT  =  500.0 eV  36.75 Ry    6.06 a.u.  28.20 28.20 28.20*2*pi/ulx,y,z
   ENINI  =  500.0     initial cutoff
   ENAUG  =  322.1 eV  augmentation charge cutoff
   NELM   =    120;   NELMIN=  4; NELMDL= -5     # of ELM steps 
   EDIFF  = 0.1E-07   stopping-criterion for ELM
   LREAL  =      F    real-space projection
   NLSPLINE    = F    spline interpolate recip. space projectors
   LCOMPAT=      F    compatible to vasp.4.4
   GGA_COMPAT  = T    GGA compatible to vasp.4.4-vasp.4.6
   LMAXPAW     = -100 max onsite density
   LMAXMIX     =    2 max onsite mixed and CHGCAR
   VOSKOWN=      0    Vosko Wilk Nusair interpolation
   ROPT   =    0.00000
 Ionic relaxation
   EDIFFG = 0.1E-06   stopping-criterion for IOM
   NSW    =      0    number of steps for IOM
   NBLOCK =      1;   KBLOCK =      1    inner block; outer block 
   IBRION =     -1    ionic relax: 0-MD 1-quasi-New 2-CG
   NFREE  =      0    steps in history (QN), initial steepest desc. (CG)
   ISIF   =      2    stress and relaxation
   IWAVPR =     10    prediction:  0-non 1-charg 2-wave 3-comb
   ISYM   =      2    0-nonsym 1-usesym 2-fastsym
   LCORR  =      T    Harris-Foulkes like correction to forces

   POTIM  = 0.5000    time-step for ionic-motion
   TEIN   =    0.0    initial temperature
   TEBEG  =    0.0;   TEEND  =   0.0 temperature during run
   SMASS  =  -3.00    Nose mass-parameter (am)
   estimated Nose-frequenzy (Omega)   =  0.10E-29 period in steps =****** mass=  -0.547E-26a.u.
   SCALEE = 1.0000    scale energy and forces
   NPACO  =    256;   APACO  = 16.0  distance and # of slots for P.C.
   PSTRESS=    0.0 pullay stress

  Mass of Ions in am
   POMASS =  28.09
  Ionic Valenz
   ZVAL   =   4.00
  Atomic Wigner-Seitz radii
   RWIGS  =  -1.00
  virtual crystal weights 
   VCA    =   1.00
   NELECT =     512.0000    total number of electrons
   NUPDOWN=      -1.0000    fix difference up-down

 DOS related values:
   EMIN   =  10.00;   EMAX   =-10.00  energy-range for DOS
   EFERMI =   0.00
   ISMEAR =     0;   SIGMA  =   0.01  broadening in eV -4-tet -1-fermi 0-gaus

 Electronic relaxation 2 (details)
   IALGO  =     38    algorithm
   LDIAG  =      T    sub-space diagonalisation (order eigenvalues)
   LSUBROT=      F    optimize rotation matrix (better conditioning)
   TURBO    =      0    0=normal 1=particle mesh
   IRESTART =      0    0=no restart 2=restart with 2 vectors
   NREBOOT  =      0    no. of reboots
   NMIN     =      0    reboot dimension
   EREF     =   0.00    reference energy to select bands
   IMIX   =      4    mixing-type and parameters
     AMIX     =   0.40;   BMIX     =  1.00
     AMIX_MAG =   1.60;   BMIX_MAG =  1.00
     AMIN     =   0.10
     WC   =   100.;   INIMIX=   1;  MIXPRE=   1;  MAXMIX= -45

 Intra band minimization:
   WEIMIN = 0.0000     energy-eigenvalue tresh-hold
   EBREAK =  0.78E-11  absolut break condition
   DEPER  =   0.30     relativ break condition  

   TIME   =   0.40     timestep for ELM

  volume/ion in A,a.u.               =      20.44       137.96
  Fermi-wavevector in a.u.,A,eV,Ry     =   0.950408  1.796010 12.289804  0.903275
  Thomas-Fermi vector in A             =   2.078782
 
 Write flags
   LWAVE        =      F    write WAVECAR
   LDOWNSAMPLE  =      F    k-point downsampling of WAVECAR
   LCHARG       =      F    write CHGCAR
   LVTOT        =      F    write LOCPOT, total local potential
   LVHAR        =      F    write LOCPOT, Hartree potential only
   LELF         =      F    write electronic localiz. function (ELF)
   LORBIT       =      0    0 simple, 1 ext, 2 COOP (PROOUT), +10 PAW based schemes


 Dipole corrections
   LMONO  =      F    monopole corrections only (constant potential shift)
   LDIPOL =      F    correct potential (dipole corrections)
   IDIPOL =      0    1-x, 2-y, 3-z, 4-all directions 
   EPSILON=  1.0000000 bulk dielectric constant

 Exchange correlation treatment:
   GGA     =    --    GGA type
   LEXCH   =     8    internal setting for exchange type
   VOSKOWN=      0    Vosko Wilk Nusair interpolation
   LHFCALC =     F    Hartree Fock is set to
   LHFONE  =     F    Hartree Fock one center treatment
   AEXX    =    0.0000 exact exchange contribution

 Linear response parameters
   LEPSILON=     F    determine dielectric tensor
   LRPA    =     F    only Hartree local field effects (RPA)
   LNABLA  =     F    use nabla operator in PAW spheres
   LVEL    =     F    velocity operator in full k-point grid
   LINTERFAST=   F  fast interpolation
   KINTER  =     0    interpolate to denser k-point grid
   CSHIFT  =0.1000    complex shift for real part using Kramers Kronig
   OMEGAMAX=  -1.0    maximum frequency
   DEG_THRESHOLD= 0.2000000E-02 threshold for treating states as degnerate
   RTIME   =   -0.100 relaxation time in fs
  (WPLASMAI=    0.000 imaginary part of plasma frequency in eV, 0.658/RTIME)
   DFIELD  = 0.0000000 0.0000000 0.0000000 field for delta impulse in time
 
 Orbital magnetization related:
   ORBITALMAG=     F  switch on orbital magnetization
   LCHIMAG   =     F  perturbation theory with respect to B field
   DQ        =  0.001000  dq finite difference perturbation B field
   LLRAUG    =     F  two centre corrections for induced B field



--------------------------------------------------------------------------------------------------------


 Static calculation
 charge density and potential will be updated during run
 non-spin polarized calculation
 Variant of blocked Davidson
 Davidson routine will perform the subspace rotation
 perform sub-space diagonalisation
    after iterative eigenvector-optimisation
 modified Broyden-mixing scheme, WC =      100.0
 initial mixing is a Kerker type mixing with AMIX =  0.4000 and BMIX =      1.0000
 Hartree-type preconditioning will be used
 using additional bands           66
 reciprocal scheme for non local part
 use partial core corrections
 calculate Harris-corrections to forces 
   (improved forces if not selfconsistent)
 use gradient corrections 
 use of overlap-Matrix (Vanderbilt PP)
 Gauss-broadening in eV      SIGMA  =   0.01


--------------------------------------------------------------------------------------------------------


  energy-cutoff  :      500.00
  volume of cell :     2616.76
      direct lattice vectors                 reciprocal lattice vectors
     0.000000000 10.937333691 10.937333691    -0.045714981  0.045714981  0.045714981
    10.937333691  0.000000000 10.937333691     0.045714981 -0.045714981  0.045714981
    10.937333691 10.937333691  0.000000000     0.045714981  0.045714981 -0.045714981

  length of vectors
    15.467725642 15.467725642 15.467725642     0.079180669  0.079180669  0.079180669


 
 k-points in units of 2pi/SCALE and weight: KPOINTS File, automatically generated by
   0.00000000  0.00000000  0.00000000       0.125
  -0.02285749  0.02285749  0.02285749       0.125
   0.02285749 -0.02285749  0.02285749       0.125
   0.00000000  0.00000000  0.04571498       0.125
   0.02285749  0.02285749 -0.02285749       0.125
   0.00000000  0.04571498  0.00000000       0.125
   0.04571498  0.00000000  0.00000000       0.125
   0.02285749  0.02285749  0.02285749       0.125
 
 k-points in reciprocal lattice and weights: KPOINTS File, automatically generated by
   0.00000000  0.00000000  0.00000000       0.125
   0.50000000  0.00000000  0.00000000       0.125
   0.00000000  0.50000000  0.00000000       0.125
   0.50000000  0.50000000  0.00000000       0.125
   0.00000000  0.00000000  0.50000000       0.125
   0.50000000  0.00000000  0.50000000       0.125
   0.00000000  0.50000000  0.50000000       0.125
   0.50000000  0.50000000  0.50000000       0.125
 
 position of ions in fractional coordinates (direct lattice) 
   0.00785913  0.99841828  0.99533721
   0.25760595  0.98997488  0.99406064
   0.50338106  0.99600366  0.00576920
   0.75695123  0.00329080  0.99511230
   0.99467268  0.25334533  0.00333227
   0.24861600  0.24208973  0.99603056
   0.50255152  0.24915477  0.99818741
   0.74919658  0.25135995  0.00569988
   0.00853533  0.50499829  0.99105440
   0.24762469  0.50419286  0.99315006
   0.50075137  0.49763189  0.00130981
   0.75626908  0.50172206  0.99463622
   0.00783269  0.74577175  0.00348390
   0.25139555  0.75454872  0.99456676
   0.50622813  0.75455972  0.99009809
   0.74829938  0.75726392  0.99044078
   0.00999857  0.99693644  0.24484854
   0.25822641  0.98702969  0.25284021
   0.51149137  0.99458484  0.24766121
   0.75164482  0.99313664  0.24609779
   0.00670599  0.26493463  0.23712919
   0.26138218  0.25095861  0.24607578
   0.49692185  0.24552751  0.25134721
   0.76620110  0.24653063  0.25218631
   0.99945694  0.49906718  0.24490662
   0.25259432  0.50236824  0.24133479
   0.50587231  0.49457711  0.24983161
   0.74629788  0.49665092  0.25203145
   0.99444719  0.74959511  0.25475814
   0.23420898  0.75689471  0.25007901
   0.49903400  0.74953233  0.25004290
   0.74701155  0.75001208  0.24366610
   0.99549137  0.00405781  0.50012497
   0.24506799  0.00033866  0.51042597
   0.49616640  0.00755905  0.50415948
   0.74951910  0.99670144  0.50601449
   0.00142951  0.24476335  0.49120024
   0.24566540  0.25017233  0.50153289
   0.50251269  0.25230721  0.49593421
   0.74672553  0.25600954  0.50397800
   0.99477253  0.50765866  0.49705210
   0.25589162  0.50023478  0.49420148
   0.49450998  0.50187766  0.49771310
   0.75722877  0.50150108  0.49986745
   0.99462624  0.74841814  0.50246130
   0.25609564  0.76418032  0.48911072
   0.49880613  0.74103267  0.50479306
   0.75441693  0.74132042  0.50221469
   0.99527478  0.00354821  0.74647758
   0.24232249  0.00138658  0.75922370
   0.50192838  0.99419877  0.76237639
   0.74877401  0.00286981  0.74095626
   0.99947425  0.24335664  0.75089051
   0.24561393  0.25696553  0.75306836
   0.50570914  0.24820805  0.74226039
   0.75592502  0.25070652  0.75011873
   0.00002185  0.50505619  0.74146010
   0.24128609  0.50110173  0.75344563
   0.49627385  0.50551426  0.74747027
   0.74252910  0.50776108  0.74203516
   0.99763297  0.74694650  0.75660512
   0.25493404  0.75764097  0.74440736
   0.50041114  0.75413657  0.76321655
   0.74783191  0.75061973  0.75714075
   0.06154818  0.06756399  0.07046985
   0.29955299  0.06013574  0.06879966
   0.58021584  0.05649287  0.05753281
   0.81910514  0.05345650  0.05941993
   0.05639968  0.30752287  0.06506691
   0.32314746  0.31140507  0.05669268
   0.57109188  0.30416958  0.06183663
   0.81631776  0.30163258  0.07039233
   0.06710095  0.56038397  0.05252073
   0.31000432  0.55498402  0.06732885
   0.56018456  0.56918232  0.06121258
   0.81054427  0.56211730  0.06204688
   0.06098781  0.82202908  0.06165737
   0.30308306  0.81169450  0.06555412
   0.56229890  0.81219178  0.07095545
   0.82058498  0.81355817  0.06252292
   0.05767831  0.05592427  0.31750655
   0.31908247  0.05786717  0.31749713
   0.56463000  0.05610641  0.30911366
   0.81205563  0.06217847  0.32465871
   0.07161315  0.31482618  0.30274886
   0.30477665  0.30809576  0.32478204
   0.56335969  0.30823299  0.31401601
   0.80900140  0.31893746  0.31660491
   0.05234931  0.57327004  0.30672337
   0.32432088  0.55734420  0.30572588
   0.56483886  0.56341133  0.32257564
   0.81067199  0.56213816  0.31672938
   0.06311938  0.82010107  0.31286959
   0.30941922  0.81353251  0.31017607
   0.56931694  0.80962927  0.30896136
   0.81282996  0.80454582  0.32429950
   0.06524516  0.06428001  0.56105938
   0.31684710  0.06710357  0.56938096
   0.55578250  0.06914936  0.56136026
   0.80613348  0.07018676  0.55618676
   0.06787004  0.29822709  0.56317306
   0.31446527  0.31804146  0.55860025
   0.56849425  0.30325295  0.55905069
   0.81304629  0.31164999  0.55061781
   0.07196928  0.55193565  0.57077892
   0.30878444  0.56142539  0.55435591
   0.56377892  0.56229561  0.55989331
   0.81452714  0.56888514  0.56390406
   0.06093869  0.80494344  0.56570964
   0.30134485  0.81865979  0.56571689
   0.56421273  0.81045446  0.55762651
   0.81447136  0.80225842  0.56468637
   0.05816891  0.06604099  0.80679513
   0.32628183  0.05659881  0.80526609
   0.57286444  0.05191624  0.80769449
   0.80765447  0.06185352  0.80547808
   0.07089315  0.31728909  0.80272485
   0.32002185  0.31393982  0.81965155
   0.55963295  0.29864166  0.82780749
   0.80551299  0.31349182  0.81564295
   0.07075960  0.55347117  0.81611673
   0.31823749  0.55699995  0.81361188
   0.56330857  0.56296604  0.80857100
   0.80937765  0.56757439  0.81003832
   0.07388031  0.80361289  0.80672926
   0.31197849  0.80886728  0.81584215
   0.55753944  0.82189446  0.80906833
   0.80626785  0.81565963  0.81099639
 
 position of ions in cartesian coordinates  (Angst):
  21.80636911 10.97229312 11.00599186
  21.70005852 13.68989511 13.64520778
  10.95672399  5.56874628 16.39927104
  10.91986783 19.16290345  8.31502067
   2.80736856 10.91551313 13.64998939
  13.54173472 13.61311475  5.36701230
  13.64259767 16.41408248  8.22166254
   2.81154914  8.25655452 10.94342058
  16.36282757 10.93284653  5.61668864
  16.37693917 13.57076752  8.22287944
   5.45709186  5.49121074 10.91965086
  16.36616987 19.15023555 13.75906890
   8.19485902  0.12377331  8.24242316
  19.13065961 13.62750557 11.00234813
  19.08190470 16.36581922 13.78965746
  19.11522942 19.01718123 16.46684813
  13.58181670  2.78734796 11.01318419
  13.56087080  5.58970611 13.61978143
  13.58685951  8.30310511 16.47245807
  13.55392048 10.91264386 19.08325711
   5.49123961  2.66690675  2.97102410
   5.43623097  5.55023697  5.60364213
   5.43448462  8.18406840  8.12041641
   5.45463357 11.13844295 11.07658494
   8.13708975 13.61001951 16.38985836
   8.13412825  5.40226749  8.25727741
   8.14184658  8.26538593 10.94224921
   8.18858895 10.91906100 13.59454577
  10.98494665 13.66297552 19.07517262
  11.01360761  5.29681938 10.84003177
  10.93268783  8.19290397 13.65598659
  10.86818989 10.83537207 16.37344696
   5.51441524 16.35805494 10.93240287
   5.58640314  8.26308950  2.68409436
   5.59683628 10.94089793  5.50941330
  16.43570559 13.73218986 19.09899684
   8.04947936  5.38805592  2.69269340
   8.22165076  8.17235696  5.42314263
   8.18376607 10.92034688  8.25571710
   8.31223739 13.67936196 10.96724812
  10.98885693 16.31658386 16.43259135
  10.87648116  8.20401856  8.27000675
  10.93285773 10.85227497 10.89782416
  10.95230177 13.74928083 13.76714848
  13.68128582 16.37414592 19.06425799
  13.70766230  8.15057062 11.15909861
  13.62601168 10.97669918 13.56053065
  13.60095852 13.74419936 16.35937852
   8.20328243 19.05012683 10.92446040
   8.31904846 10.95424492  2.66552746
  19.21224859 13.82812316 16.36364189
   8.13547396 16.29367709  8.22097936
  10.87441279 19.14432346 13.59325613
  11.04707776 10.92292152  5.49687929
  10.83308381 13.64945916  8.24584382
  10.94635972 16.47210305 11.00986510
  13.63356462  8.10983555  5.52420712
  13.72140319 10.87971283  8.11974340
  13.70430998 13.60324450 10.95689089
  13.66943857 16.23717474 13.67484098
  16.44484575 19.18668738 19.08104783
  16.42840386 10.93013035 11.07487077
  16.59579740 13.82071772 13.72140689
  16.49087951 16.46038823 16.38906558
   1.50972209  1.44392519  1.41214285
   1.41020947  4.02879586  3.93403568
   1.24713691  6.97526971  6.96389561
   1.23456722  9.60872190  9.54349782
   4.07513871  1.32852062  3.98034232
   4.02600784  4.15443837  6.94031277
   4.00313202  6.92255024  9.57302661
   4.06896054  9.69824418 12.22739590
   6.70354313  1.30834222  6.86301196
   6.80644357  4.12701885  9.46066615
   6.89483940  6.79642782 12.35226242
   6.82669192  9.54382061 15.01325771
   9.66517357  1.34141130  9.65785037
   9.59476088  4.03190781 12.19269414
   9.65927595  6.92611408 15.03326321
   9.58199123  9.65884574 17.87316890
   4.08433747  4.10352202  1.24250931
   4.10548462  6.96248356  4.12282401
   3.99453377  9.55642589  6.78920124
   4.23096726 12.43262406  9.56179005
   6.75462427  4.09452224  4.22661598
   6.92199564  6.88569348  6.70319006
   6.80574493  9.59615075  9.53289999
   6.95113895 12.31113184 12.33664365
   9.62478155  3.92729773  6.84260757
   9.43968547  6.89103168  9.64306513
   9.69033511  9.70594856 12.34004879
   9.61246750 12.33076498 15.01488273
  12.39167820  4.11231676  9.66007678
  12.29037577  6.77672043 12.28209777
  12.23439894  9.60602274 15.08199480
  12.34655793 12.43716431 17.68977855
   6.83954563  6.85010182  1.41666002
   6.96144374  9.69297205  4.19939668
   6.89609409 12.21856320  6.83508831
   6.85085616 14.90015109  9.58460689
   9.42142092  6.90192895  4.00412652
   9.58812292  9.54900894  6.91793727
   9.43130261 12.33233517  9.53458997
   9.43091063 14.91484922 12.30117849
  12.27950392  7.02995158  6.82385647
  12.20367241  9.44045410  9.51777526
  12.27375468 12.28997811 12.31625283
  12.38969343 15.07636203 15.13084173
  14.99129007  6.85386191  9.47044175
  15.14138971  9.48334361 12.24986454
  14.96315798 12.26993001 15.03519367
  14.95073129 15.08430827 17.68271315
   9.54649990  9.46040032  1.35852520
   9.42650393 12.37611719  4.18769333
   9.40184942 15.09963367  6.83343484
   9.48629517 17.64336899  9.51009902
  12.24996628  9.55505166  4.24567876
  12.39846711 12.46498834  6.93385035
  12.32035024 15.17489904  9.38723587
  12.34972370 17.73112340 12.23892897
  14.97963989  9.70006237  6.82742025
  14.99083893 12.37941417  9.57276389
  15.00095829 15.00470467 12.31844130
  15.06740994 17.71209283 15.06018390
  17.61284944  9.63152067  9.59743597
  17.76998925 12.33535074 12.25906425
  17.83838422 14.94704519 15.08732889
  17.79127968 17.68855862 17.73956207
 


--------------------------------------------------------------------------------------------------------


 k-point  1 :   0.0000 0.0000 0.0000  plane waves:   66299
 k-point  2 :   0.5000 0.0000 0.0000  plane waves:   66394
 k-point  3 :   0.0000 0.5000 0.0000  plane waves:   66394
 k-point  4 :   0.5000 0.5000 0.0000  plane waves:   66552
 k-point  5 :   0.0000 0.0000 0.5000  plane waves:   66394
 k-point  6 :   0.5000 0.0000 0.5000  plane waves:   66552
 k-point  7 :   0.0000 0.5000 0.5000  plane waves:   66552
 k-point  8 :   0.5000 0.5000 0.5000  plane waves:   66394

 maximum and minimum number of plane-waves per node :      4207     4110

 maximum number of plane-waves:     66552
 maximum index in each direction: 
   IXMAX=   28   IYMAX=   28   IZMAX=   28
   IXMIN=  -28   IYMIN=  -28   IZMIN=  -28


 parallel 3D FFT for wavefunctions:
    minimum data exchange during FFTs selected (reduces bandwidth)
 parallel 3D FFT for charge:
    minimum data exchange during FFTs selected (reduces bandwidth)


 total amount of memory used by VASP MPI-rank0   221701. kBytes
=======================================================================

   base      :      30000. kBytes
   nonl-proj :      10690. kBytes
   fftplans  :      66746. kBytes
   grid      :      26864. kBytes
   one-center:         24. kBytes
   wavefun   :      87377. kBytes
 
     INWAV:  cpu time    0.0000: real time    0.0002
 Broyden mixing: mesh for mixing (old mesh)
   NGX = 57   NGY = 57   NGZ = 57
  (NGX  =240   NGY  =240   NGZ  =240)
  gives a total of 185193 points

 initial charge density was supplied:
 charge density of overlapping atoms calculated
 number of electron     512.0000000 magnetization 
 keeping initial charge density in first step


--------------------------------------------------------------------------------------------------------


 Maximum index for augmentation-charges         5606 (set IRDMAX)


--------------------------------------------------------------------------------------------------------


 First call to EWALD:  gamma=   0.129
 Maximum number of real-space cells 3x 3x 3
 Maximum number of reciprocal cells 3x 3x 3

    FEWALD:  cpu time    0.0059: real time    0.0059


--------------------------------------- Iteration      1(   1)  ---------------------------------------


    POTLOK:  cpu time    0.4874: real time    0.4972
    SETDIJ:  cpu time    0.5033: real time    0.5040
     EDDAV:  cpu time   69.6251: real time   69.6546
       DOS:  cpu time    0.0065: real time    0.0065
    --------------------------------------------
      LOOP:  cpu time   70.6223: real time   70.6622

 eigenvalue-minimisations  :  5152
 total energy-change (2. order) : 0.1384151E+04  (-0.1908326E+05)
 number of electron     512.0000000 magnetization 
 augmentation part      512.0000000 magnetization 

 Free energy of the ion-electron system (eV)
  ---------------------------------------------------
  alpha Z        PSCENC =       210.77028614
  Ewald energy   TEWEN  =    -14472.01481214
  -Hartree energ DENC   =      -754.15642826
  -exchange      EXHF   =         0.00000000
  -V(xc)+E(xc)   XCENC  =     -1195.25598967
  PAW double counting   =      4221.13331941    -1969.18571412
  entropy T*S    EENTRO =        -0.00060474
  eigenvalues    EBANDS =      2150.38034262
  atomic energy  EATOM  =     13192.48085998
  Solvation  Ediel_sol  =         0.00000000
  ---------------------------------------------------
  free energy    TOTEN  =      1384.15125923 eV

  energy without entropy =     1384.15186397  energy(sigma->0) =     1384.15156160


--------------------------------------------------------------------------------------------------------




--------------------------------------- Iteration      1(   2)  ---------------------------------------


     EDDAV:  cpu time   79.1217: real time   79.1536
       DOS:  cpu time    0.0010: real time    0.0010
    --------------------------------------------
      LOOP:  cpu time   79.1228: real time   79.1546

 eigenvalue-minimisations  :  6112
 total energy-change (2. order) :-0.1921614E+04  (-0.1827785E+04)
 number of electron     512.0000000 magnetization 
 augmentation part      512.0000000 magnetization 

 Free energy of the ion-electron system (eV)
  ---------------------------------------------------
  alpha Z        PSCENC =       210.77028614
  Ewald energy   TEWEN  =    -14472.01481214
  -Hartree energ DENC   =      -754.15642826
  -exchange      EXHF   =         0.00000000
  -V(xc)+E(xc)   XCENC  =     -1195.25598967
  PAW double counting   =      4221.13331941    -1969.18571412
  entropy T*S    EENTRO =        -0.00000000
  eigenvalues    EBANDS =       228.76618446
  atomic energy  EATOM  =     13192.48085998
  Solvation  Ediel_sol  =         0.00000000
  ---------------------------------------------------
  free energy    TOTEN  =      -537.46229419 eV

  energy without entropy =     -537.46229419  energy(sigma->0) =     -537.46229419


--------------------------------------------------------------------------------------------------------




--------------------------------------- Iteration      1(   3)  ---------------------------------------


     EDDAV:  cpu time   80.7014: real time   80.7303
       DOS:  cpu time    0.0025: real time    0.0025
    --------------------------------------------
      LOOP:  cpu time   80.7039: real time   80.7328

 eigenvalue-minimisations  :  6272
 total energy-change (2. order) :-0.1498811E+03  (-0.1469083E+03)
 number of electron     512.0000000 magnetization 
 augmentation part      512.0000000 magnetization 

 Free energy of the ion-electron system (eV)
  ---------------------------------------------------
  alpha Z        PSCENC =       210.77028614
  Ewald energy   TEWEN  =    -14472.01481214
  -Hartree energ DENC   =      -754.15642826
  -exchange      EXHF   =         0.00000000
  -V(xc)+E(xc)   XCENC  =     -1195.25598967
  PAW double counting   =      4221.13331941    -1969.18571412
  entropy T*S    EENTRO =        -0.00000000
  eigenvalues    EBANDS =        78.88513137
  atomic energy  EATOM  =     13192.48085998
  Solvation  Ediel_sol  =         0.00000000
  ---------------------------------------------------
  free energy    TOTEN  =      -687.34334727 eV

  energy without entropy =     -687.34334727  energy(sigma->0) =     -687.34334727


--------------------------------------------------------------------------------------------------------




--------------------------------------- Iteration      1(   4)  ---------------------------------------


     EDDAV:  cpu time   80.0099: real time   80.0449
       DOS:  cpu time    0.0016: real time    0.0016
    --------------------------------------------
      LOOP:  cpu time   80.0116: real time   80.0465

 eigenvalue-minimisations  :  6192
 total energy-change (2. order) :-0.4307568E+01  (-0.4272246E+01)
 number of electron     512.0000000 magnetization 
 augmentation part      512.0000000 magnetization 

 Free energy of the ion-electron system (eV)
  ---------------------------------------------------
  alpha Z        PSCENC =       210.77028614
  Ewald energy   TEWEN  =    -14472.01481214
  -Hartree energ DENC   =      -754.15642826
  -exchange      EXHF   =         0.00000000
  -V(xc)+E(xc)   XCENC  =     -1195.25598967
  PAW double counting   =      4221.13331941    -1969.18571412
  entropy T*S    EENTRO =        -0.00000000
  eigenvalues    EBANDS =        74.57756320
  atomic energy  EATOM  =     13192.48085998
  Solvation  Ediel_sol  =         0.00000000
  ---------------------------------------------------
  free energy    TOTEN  =      -691.65091544 eV

  energy without entropy =     -691.65091544  energy(sigma->0) =     -691.65091544


--------------------------------------------------------------------------------------------------------




--------------------------------------- Iteration      1(   5)  ---------------------------------------


     EDDAV:  cpu time   81.3693: real time   81.4107
       DOS:  cpu time    0.0016: real time    0.0016
    CHARGE:  cpu time    3.2024: real time    3.2036
    MIXING:  cpu time    0.0351: real time    0.0351
    --------------------------------------------
      LOOP:  cpu time   84.6084: real time   84.6509

 eigenvalue-minimisations  :  6352
 total energy-change (2. order) :-0.1523313E+00  (-0.1519409E+00)
 number of electron     511.9999998 magnetization 
 augmentation part      -30.1774424 magnetization 

 Broyden mixing:
  rms(total) = 0.24015E+01    rms(broyden)= 0.24015E+01
  rms(prec ) = 0.29094E+01
  weight for this iteration     100.00

 Free energy of the ion-electron system (eV)
  ---------------------------------------------------
  alpha Z        PSCENC =       210.77028614
  Ewald energy   TEWEN  =    -14472.01481214
  -Hartree energ DENC   =      -754.15642826
  -exchange      EXHF   =         0.00000000
  -V(xc)+E(xc)   XCENC  =     -1195.25598967
  PAW double counting   =      4221.13331941    -1969.18571412
  entropy T*S    EENTRO =        -0.00000000
  eigenvalues    EBANDS =        74.42523192
  atomic energy  EATOM  =     13192.48085998
  Solvation  Ediel_sol  =         0.00000000
  ---------------------------------------------------
  free energy    TOTEN  =      -691.80324673 eV

  energy without entropy =     -691.80324673  energy(sigma->0) =     -691.80324673


--------------------------------------------------------------------------------------------------------




--------------------------------------- Iteration      1(   6)  ---------------------------------------


    POTLOK:  cpu time    0.4875: real time    0.4910
    SETDIJ:  cpu time    0.5206: real time    0.5209
     EDDAV:  cpu time   76.7318: real time   76.7653
       DOS:  cpu time    0.0014: real time    0.0014
    CHARGE:  cpu time    3.2034: real time    3.2038
    MIXING:  cpu time    0.0633: real time    0.0633
    --------------------------------------------
      LOOP:  cpu time   81.0081: real time   81.0457

 eigenvalue-minimisations  :  5896
 total energy-change (2. order) : 0.8456089E+01  (-0.5841406E+00)
 number of electron     511.9999998 magnetization 
 augmentation part      -29.8339684 magnetization 

 Broyden mixing:
  rms(total) = 0.14273E+01    rms(broyden)= 0.14273E+01
  rms(prec ) = 0.17197E+01
  weight for this iteration     100.00

 eigenvalues of (default mixing * dielectric matrix)
  average eigenvalue GAMMA=   2.4322
  2.4322

 Free energy of the ion-electron system (eV)
  ---------------------------------------------------
  alpha Z        PSCENC =       210.77028614
  Ewald energy   TEWEN  =    -14472.01481214
  -Hartree energ DENC   =      -849.78796454
  -exchange      EXHF   =         0.00000000
  -V(xc)+E(xc)   XCENC  =     -1180.55044490
  PAW double counting   =      4467.07107462    -2221.93460794
  entropy T*S    EENTRO =        -0.00000000
  eigenvalues    EBANDS =       170.61845112
  atomic energy  EATOM  =     13192.48085998
  Solvation  Ediel_sol  =         0.00000000
  ---------------------------------------------------
  free energy    TOTEN  =      -683.34715766 eV

  energy without entropy =     -683.34715766  energy(sigma->0) =     -683.34715766


--------------------------------------------------------------------------------------------------------




--------------------------------------- Iteration      1(   7)  ---------------------------------------


    POTLOK:  cpu time    0.4874: real time    0.4903
    SETDIJ:  cpu time    0.5145: real time    0.5145
     EDDAV:  cpu time   76.0382: real time   76.0694
       DOS:  cpu time    0.0010: real time    0.0010
    CHARGE:  cpu time    3.1864: real time    3.1869
    MIXING:  cpu time    0.0362: real time    0.0361
    --------------------------------------------
      LOOP:  cpu time   80.2637: real time   80.2982

 eigenvalue-minimisations  :  5824
 total energy-change (2. order) : 0.3537749E+01  (-0.1127744E+01)
 number of electron     511.9999998 magnetization 
 augmentation part      -29.3778839 magnetization 

 Broyden mixing:
  rms(total) = 0.15575E+00    rms(broyden)= 0.15575E+00
  rms(prec ) = 0.20196E+00
  weight for this iteration     100.00

 eigenvalues of (default mixing * dielectric matrix)
  average eigenvalue GAMMA=   2.1178
  2.1178  2.1178

 Free energy of the ion-electron system (eV)
  ---------------------------------------------------
  alpha Z        PSCENC =       210.77028614
  Ewald energy   TEWEN  =    -14472.01481214
  -Hartree energ DENC   =     -1001.17940233
  -exchange      EXHF   =         0.00000000
  -V(xc)+E(xc)   XCENC  =     -1156.49922656
  PAW double counting   =      4789.01336709    -2552.46825454
  entropy T*S    EENTRO =        -0.00000000
  eigenvalues    EBANDS =       310.08777379
  atomic energy  EATOM  =     13192.48085998
  Solvation  Ediel_sol  =         0.00000000
  ---------------------------------------------------
  free energy    TOTEN  =      -679.80940855 eV

  energy without entropy =     -679.80940855  energy(sigma->0) =     -679.80940855


--------------------------------------------------------------------------------------------------------




--------------------------------------- Iteration      1(   8)  ---------------------------------------


    POTLOK:  cpu time    0.4909: real time    0.4926
    SETDIJ:  cpu time    0.5217: real time    0.5217
     EDDAV:  cpu time   76.0155: real time   76.0600
       DOS:  cpu time    0.0011: real time    0.0011
    CHARGE:  cpu time    3.1696: real time    3.1709
    MIXING:  cpu time    0.0396: real time    0.0396
    --------------------------------------------
      LOOP:  cpu time   80.2385: real time   80.2861

 eigenvalue-minimisations  :  5808
 total energy-change (2. order) :-0.5706001E-01  (-0.1081580E+00)
 number of electron     511.9999998 magnetization 
 augmentation part      -29.4482404 magnetization 

 Broyden mixing:
  rms(total) = 0.61666E-01    rms(broyden)= 0.61665E-01
  rms(prec ) = 0.76582E-01
  weight for this iteration     100.00

 eigenvalues of (default mixing * dielectric matrix)
  average eigenvalue GAMMA=   2.0145
  2.6820  1.6807  1.6807

 Free energy of the ion-electron system (eV)
  ---------------------------------------------------
  alpha Z        PSCENC =       210.77028614
  Ewald energy   TEWEN  =    -14472.01481214
  -Hartree energ DENC   =      -994.57133945
  -exchange      EXHF   =         0.00000000
  -V(xc)+E(xc)   XCENC  =     -1156.62643955
  PAW double counting   =      4740.64333795    -2502.59288712
  entropy T*S    EENTRO =        -0.00000000
  eigenvalues    EBANDS =       302.04452562
  atomic energy  EATOM  =     13192.48085998
  Solvation  Ediel_sol  =         0.00000000
  ---------------------------------------------------
  free energy    TOTEN  =      -679.86646856 eV

  energy without entropy =     -679.86646856  energy(sigma->0) =     -679.86646856


--------------------------------------------------------------------------------------------------------




--------------------------------------- Iteration      1(   9)  ---------------------------------------


    POTLOK:  cpu time    0.4875: real time    0.4889
    SETDIJ:  cpu time    0.5107: real time    0.5113
     EDDAV:  cpu time   78.5974: real time   78.6302
       DOS:  cpu time    0.0010: real time    0.0010
    CHARGE:  cpu time    3.1673: real time    3.1680
    MIXING:  cpu time    0.0349: real time    0.0349
    --------------------------------------------
      LOOP:  cpu time   82.7988: real time   82.8344

 eigenvalue-minimisations  :  6088
 total energy-change (2. order) :-0.2183318E-01  (-0.1020839E-01)
 number of electron     511.9999998 magnetization 
 augmentation part      -29.4526015 magnetization 

 Broyden mixing:
  rms(total) = 0.28617E-01    rms(broyden)= 0.28617E-01
  rms(prec ) = 0.33155E-01
  weight for this iteration     100.00

 eigenvalues of (default mixing * dielectric matrix)
  average eigenvalue GAMMA=   1.7972
  2.5914  1.8461  1.8461  0.9053

 Free energy of the ion-electron system (eV)
  ---------------------------------------------------
  alpha Z        PSCENC =       210.77028614
  Ewald energy   TEWEN  =    -14472.01481214
  -Hartree energ DENC   =     -1001.36188961
  -exchange      EXHF   =         0.00000000
  -V(xc)+E(xc)   XCENC  =     -1155.45010079
  PAW double counting   =      4744.11622861    -2506.16240180
  entropy T*S    EENTRO =        -0.00000000
  eigenvalues    EBANDS =       307.73352786
  atomic energy  EATOM  =     13192.48085998
  Solvation  Ediel_sol  =         0.00000000
  ---------------------------------------------------
  free energy    TOTEN  =      -679.88830174 eV

  energy without entropy =     -679.88830174  energy(sigma->0) =     -679.88830174


--------------------------------------------------------------------------------------------------------




--------------------------------------- Iteration      1(  10)  ---------------------------------------


    POTLOK:  cpu time    0.4888: real time    0.4897
    SETDIJ:  cpu time    0.5133: real time    0.5133
     EDDAV:  cpu time   77.3978: real time   77.4273
       DOS:  cpu time    0.0013: real time    0.0013
    CHARGE:  cpu time    3.1677: real time    3.1679
    MIXING:  cpu time    0.0365: real time    0.0365
    --------------------------------------------
      LOOP:  cpu time   81.6053: real time   81.6360

 eigenvalue-minimisations  :  5968
 total energy-change (2. order) :-0.2561804E-02  (-0.9056996E-03)
 number of electron     511.9999998 magnetization 
 augmentation part      -29.4626097 magnetization 

 Broyden mixing:
  rms(total) = 0.10953E-01    rms(broyden)= 0.10953E-01
  rms(prec ) = 0.13183E-01
  weight for this iteration     100.00

 eigenvalues of (default mixing * dielectric matrix)
  average eigenvalue GAMMA=   1.8622
  2.6944  2.6944  1.5083  1.5083  0.9056

 Free energy of the ion-electron system (eV)
  ---------------------------------------------------
  alpha Z        PSCENC =       210.77028614
  Ewald energy   TEWEN  =    -14472.01481214
  -Hartree energ DENC   =     -1000.16816853
  -exchange      EXHF   =         0.00000000
  -V(xc)+E(xc)   XCENC  =     -1155.62785189
  PAW double counting   =      4736.76086290    -2498.62311286
  entropy T*S    EENTRO =        -0.00000000
  eigenvalues    EBANDS =       306.53107284
  atomic energy  EATOM  =     13192.48085998
  Solvation  Ediel_sol  =         0.00000000
  ---------------------------------------------------
  free energy    TOTEN  =      -679.89086354 eV

  energy without entropy =     -679.89086354  energy(sigma->0) =     -679.89086354


--------------------------------------------------------------------------------------------------------




--------------------------------------- Iteration      1(  11)  ---------------------------------------


    POTLOK:  cpu time    0.4867: real time    0.4928
    SETDIJ:  cpu time    0.5146: real time    0.5148
     EDDAV:  cpu time   75.9642: real time   76.0114
       DOS:  cpu time    0.0016: real time    0.0015
    CHARGE:  cpu time    3.1781: real time    3.1783
    MIXING:  cpu time    0.0394: real time    0.0394
    --------------------------------------------
      LOOP:  cpu time   80.1845: real time   80.2383

 eigenvalue-minimisations  :  5816
 total energy-change (2. order) :-0.1454923E-02  (-0.2247184E-03)
 number of electron     511.9999998 magnetization 
 augmentation part      -29.4650698 magnetization 

 Broyden mixing:
  rms(total) = 0.38936E-02    rms(broyden)= 0.38936E-02
  rms(prec ) = 0.54776E-02
  weight for this iteration     100.00

 eigenvalues of (default mixing * dielectric matrix)
  average eigenvalue GAMMA=   1.7819
  2.8471  2.0617  2.0617  1.6315  1.2243  0.8652

 Free energy of the ion-electron system (eV)
  ---------------------------------------------------
  alpha Z        PSCENC =       210.77028614
  Ewald energy   TEWEN  =    -14472.01481214
  -Hartree energ DENC   =     -1000.08605710
  -exchange      EXHF   =         0.00000000
  -V(xc)+E(xc)   XCENC  =     -1155.63907196
  PAW double counting   =      4732.55746724    -2494.32312369
  entropy T*S    EENTRO =        -0.00000000
  eigenvalues    EBANDS =       306.36213305
  atomic energy  EATOM  =     13192.48085998
  Solvation  Ediel_sol  =         0.00000000
  ---------------------------------------------------
  free energy    TOTEN  =      -679.89231847 eV

  energy without entropy =     -679.89231847  energy(sigma->0) =     -679.89231847


--------------------------------------------------------------------------------------------------------




--------------------------------------- Iteration      1(  12)  ---------------------------------------


    POTLOK:  cpu time    0.4871: real time    0.4905
    SETDIJ:  cpu time    0.5286: real time    0.5286
     EDDAV:  cpu time   78.7183: real time   78.7439
       DOS:  cpu time    0.0016: real time    0.0016
    CHARGE:  cpu time    3.1737: real time    3.1741
    MIXING:  cpu time    0.0484: real time    0.0484
    --------------------------------------------
      LOOP:  cpu time   82.9576: real time   82.9871

 eigenvalue-minimisations  :  6096
 total energy-change (2. order) :-0.5389217E-04  (-0.4324773E-04)
 number of electron     511.9999998 magnetization 
 augmentation part      -29.4631096 magnetization 

 Broyden mixing:
  rms(total) = 0.17451E-02    rms(broyden)= 0.17451E-02
  rms(prec ) = 0.20806E-02
  weight for this iteration     100.00

 eigenvalues of (default mixing * dielectric matrix)
  average eigenvalue GAMMA=   1.8313
  3.1713  2.6832  1.7817  1.7817  0.8944  1.2533  1.2533

 Free energy of the ion-electron system (eV)
  ---------------------------------------------------
  alpha Z        PSCENC =       210.77028614
  Ewald energy   TEWEN  =    -14472.01481214
  -Hartree energ DENC   =     -1000.71001499
  -exchange      EXHF   =         0.00000000
  -V(xc)+E(xc)   XCENC  =     -1155.56939854
  PAW double counting   =      4733.87740117    -2495.68788494
  entropy T*S    EENTRO =        -0.00000000
  eigenvalues    EBANDS =       306.96119096
  atomic energy  EATOM  =     13192.48085998
  Solvation  Ediel_sol  =         0.00000000
  ---------------------------------------------------
  free energy    TOTEN  =      -679.89237236 eV

  energy without entropy =     -679.89237236  energy(sigma->0) =     -679.89237236


--------------------------------------------------------------------------------------------------------




--------------------------------------- Iteration      1(  13)  ---------------------------------------


    POTLOK:  cpu time    0.4891: real time    0.4907
    SETDIJ:  cpu time    0.5109: real time    0.5115
     EDDAV:  cpu time   75.6812: real time   75.7107
       DOS:  cpu time    0.0016: real time    0.0016
    CHARGE:  cpu time    3.1669: real time    3.1770
    MIXING:  cpu time    0.0313: real time    0.0313
    --------------------------------------------
      LOOP:  cpu time   79.8809: real time   79.9227

 eigenvalue-minimisations  :  5792
 total energy-change (2. order) :-0.2871260E-04  (-0.1149913E-04)
 number of electron     511.9999998 magnetization 
 augmentation part      -29.4630284 magnetization 

 Broyden mixing:
  rms(total) = 0.55789E-03    rms(broyden)= 0.55788E-03
  rms(prec ) = 0.73052E-03
  weight for this iteration     100.00

 eigenvalues of (default mixing * dielectric matrix)
  average eigenvalue GAMMA=   1.7886
  3.1434  2.5431  1.9717  1.9717  1.3883  1.3883  0.9513  0.9513

 Free energy of the ion-electron system (eV)
  ---------------------------------------------------
  alpha Z        PSCENC =       210.77028614
  Ewald energy   TEWEN  =    -14472.01481214
  -Hartree energ DENC   =     -1000.70980427
  -exchange      EXHF   =         0.00000000
  -V(xc)+E(xc)   XCENC  =     -1155.57955941
  PAW double counting   =      4733.34275257    -2495.14281618
  entropy T*S    EENTRO =        -0.00000000
  eigenvalues    EBANDS =       306.96069223
  atomic energy  EATOM  =     13192.48085998
  Solvation  Ediel_sol  =         0.00000000
  ---------------------------------------------------
  free energy    TOTEN  =      -679.89240107 eV

  energy without entropy =     -679.89240107  energy(sigma->0) =     -679.89240107


--------------------------------------------------------------------------------------------------------




--------------------------------------- Iteration      1(  14)  ---------------------------------------


    POTLOK:  cpu time    0.4918: real time    0.4923
    SETDIJ:  cpu time    0.5131: real time    0.5138
     EDDAV:  cpu time   79.2151: real time   79.2617
       DOS:  cpu time    0.0013: real time    0.0013
    CHARGE:  cpu time    3.0862: real time    3.0872
    MIXING:  cpu time    0.0386: real time    0.0386
    --------------------------------------------
      LOOP:  cpu time   83.3460: real time   83.3950

 eigenvalue-minimisations  :  6160
 total energy-change (2. order) :-0.3044683E-05  (-0.8274875E-06)
 number of electron     511.9999998 magnetization 
 augmentation part      -29.4629490 magnetization 

 Broyden mixing:
  rms(total) = 0.19599E-03    rms(broyden)= 0.19593E-03
  rms(prec ) = 0.26596E-03
  weight for this iteration     100.00

 eigenvalues of (default mixing * dielectric matrix)
  average eigenvalue GAMMA=   1.7738
  3.2265  2.6214  2.2127  1.6767  1.6767  0.9237  1.0206  1.3031  1.3031

 Free energy of the ion-electron system (eV)
  ---------------------------------------------------
  alpha Z        PSCENC =       210.77028614
  Ewald energy   TEWEN  =    -14472.01481214
  -Hartree energ DENC   =     -1000.74782138
  -exchange      EXHF   =         0.00000000
  -V(xc)+E(xc)   XCENC  =     -1155.57372862
  PAW double counting   =      4733.46861459    -2495.27098046
  entropy T*S    EENTRO =        -0.00000000
  eigenvalues    EBANDS =       306.99517776
  atomic energy  EATOM  =     13192.48085998
  Solvation  Ediel_sol  =         0.00000000
  ---------------------------------------------------
  free energy    TOTEN  =      -679.89240412 eV

  energy without entropy =     -679.89240412  energy(sigma->0) =     -679.89240412


--------------------------------------------------------------------------------------------------------




--------------------------------------- Iteration      1(  15)  ---------------------------------------


    POTLOK:  cpu time    0.4907: real time    0.4942
    SETDIJ:  cpu time    0.5076: real time    0.5076
     EDDAV:  cpu time   78.0423: real time   78.0692
       DOS:  cpu time    0.0020: real time    0.0020
    CHARGE:  cpu time    3.1095: real time    3.1108
    MIXING:  cpu time    0.0418: real time    0.0418
    --------------------------------------------
      LOOP:  cpu time   82.1939: real time   82.2256

 eigenvalue-minimisations  :  6040
 total energy-change (2. order) :-0.3961017E-05  (-0.2186302E-06)
 number of electron     511.9999998 magnetization 
 augmentation part      -29.4628102 magnetization 

 Broyden mixing:
  rms(total) = 0.67806E-04    rms(broyden)= 0.67654E-04
  rms(prec ) = 0.89275E-04
  weight for this iteration     100.00

 eigenvalues of (default mixing * dielectric matrix)
  average eigenvalue GAMMA=   1.7156
  3.2430  2.5827  2.1954  1.7040  1.7040  1.4190  1.4190  0.9982  0.9451  0.9451

 Free energy of the ion-electron system (eV)
  ---------------------------------------------------
  alpha Z        PSCENC =       210.77028614
  Ewald energy   TEWEN  =    -14472.01481214
  -Hartree energ DENC   =     -1000.77398546
  -exchange      EXHF   =         0.00000000
  -V(xc)+E(xc)   XCENC  =     -1155.57228774
  PAW double counting   =      4733.54383367    -2495.34862614
  entropy T*S    EENTRO =        -0.00000000
  eigenvalues    EBANDS =       307.02232359
  atomic energy  EATOM  =     13192.48085998
  Solvation  Ediel_sol  =         0.00000000
  ---------------------------------------------------
  free energy    TOTEN  =      -679.89240808 eV

  energy without entropy =     -679.89240808  energy(sigma->0) =     -679.89240808


--------------------------------------------------------------------------------------------------------




--------------------------------------- Iteration      1(  16)  ---------------------------------------


    POTLOK:  cpu time    0.4889: real time    0.4902
    SETDIJ:  cpu time    0.5090: real time    0.5092
     EDDAV:  cpu time   78.4072: real time   78.4470
       DOS:  cpu time    0.0018: real time    0.0018
    CHARGE:  cpu time    3.1247: real time    3.1261
    MIXING:  cpu time    0.0333: real time    0.0333
    --------------------------------------------
      LOOP:  cpu time   82.5650: real time   82.6075

 eigenvalue-minimisations  :  6064
 total energy-change (2. order) : 0.4213580E-06  (-0.1892554E-07)
 number of electron     511.9999998 magnetization 
 augmentation part      -29.4628099 magnetization 

 Broyden mixing:
  rms(total) = 0.34076E-04    rms(broyden)= 0.33773E-04
  rms(prec ) = 0.44753E-04
  weight for this iteration     100.00

 eigenvalues of (default mixing * dielectric matrix)
  average eigenvalue GAMMA=   1.7125
  3.2900  2.6313  2.0955  2.0955  1.4407  1.4407  1.4416  1.4416  0.9088  1.0257
  1.0257

 Free energy of the ion-electron system (eV)
  ---------------------------------------------------
  alpha Z        PSCENC =       210.77028614
  Ewald energy   TEWEN  =    -14472.01481214
  -Hartree energ DENC   =     -1000.77302946
  -exchange      EXHF   =         0.00000000
  -V(xc)+E(xc)   XCENC  =     -1155.57225070
  PAW double counting   =      4733.53893843    -2495.34339557
  entropy T*S    EENTRO =        -0.00000000
  eigenvalues    EBANDS =       307.02099567
  atomic energy  EATOM  =     13192.48085998
  Solvation  Ediel_sol  =         0.00000000
  ---------------------------------------------------
  free energy    TOTEN  =      -679.89240766 eV

  energy without entropy =     -679.89240766  energy(sigma->0) =     -679.89240766


--------------------------------------------------------------------------------------------------------




--------------------------------------- Iteration      1(  17)  ---------------------------------------


    POTLOK:  cpu time    0.4815: real time    0.4882
    SETDIJ:  cpu time    0.5059: real time    0.5059
     EDDAV:  cpu time   62.5305: real time   62.5498
       DOS:  cpu time    0.0013: real time    0.0013
    CHARGE:  cpu time    3.1324: real time    3.1328
    MIXING:  cpu time    0.0405: real time    0.0405
    --------------------------------------------
      LOOP:  cpu time   66.6922: real time   66.7185

 eigenvalue-minimisations  :  4456
 total energy-change (2. order) : 0.2293891E-06  (-0.3645524E-08)
 number of electron     511.9999998 magnetization 
 augmentation part      -29.4628163 magnetization 

 Broyden mixing:
  rms(total) = 0.15469E-04    rms(broyden)= 0.14790E-04
  rms(prec ) = 0.18337E-04
  weight for this iteration     100.00

 eigenvalues of (default mixing * dielectric matrix)
  average eigenvalue GAMMA=   1.6986
  3.2982  2.6339  2.2742  1.7442  1.7442  1.7788  1.4002  1.4002  0.9269  0.9656
  1.1085  1.1085

 Free energy of the ion-electron system (eV)
  ---------------------------------------------------
  alpha Z        PSCENC =       210.77028614
  Ewald energy   TEWEN  =    -14472.01481214
  -Hartree energ DENC   =     -1000.77159889
  -exchange      EXHF   =         0.00000000
  -V(xc)+E(xc)   XCENC  =     -1155.57236626
  PAW double counting   =      4733.53690638    -2495.34114930
  entropy T*S    EENTRO =        -0.00000000
  eigenvalues    EBANDS =       307.01946666
  atomic energy  EATOM  =     13192.48085998
  Solvation  Ediel_sol  =         0.00000000
  ---------------------------------------------------
  free energy    TOTEN  =      -679.89240743 eV

  energy without entropy =     -679.89240743  energy(sigma->0) =     -679.89240743


--------------------------------------------------------------------------------------------------------




--------------------------------------- Iteration      1(  18)  ---------------------------------------


    POTLOK:  cpu time    0.4909: real time    0.4919
    SETDIJ:  cpu time    0.5038: real time    0.5041
     EDDAV:  cpu time   51.1315: real time   51.1596
       DOS:  cpu time    0.0010: real time    0.0010
    CHARGE:  cpu time    3.1048: real time    3.1056
    MIXING:  cpu time    0.0405: real time    0.0405
    --------------------------------------------
      LOOP:  cpu time   55.2725: real time   55.3026

 eigenvalue-minimisations  :  3296
 total energy-change (2. order) :-0.1691260E-06  (-0.9756643E-09)
 number of electron     511.9999998 magnetization 
 augmentation part      -29.4628107 magnetization 

 Broyden mixing:
  rms(total) = 0.69751E-05    rms(broyden)= 0.53028E-05
  rms(prec ) = 0.71074E-05
  weight for this iteration     100.00
  WARNING: grid for Broyden might be to small

 eigenvalues of (default mixing * dielectric matrix)
  average eigenvalue GAMMA=   1.7265
  3.2845  2.7145  2.3889  2.3889  1.7908  1.7908  1.3242  1.3242  0.9198  1.0046
  1.0046  1.2543  1.2543

 Free energy of the ion-electron system (eV)
  ---------------------------------------------------
  alpha Z        PSCENC =       210.77028614
  Ewald energy   TEWEN  =    -14472.01481214
  -Hartree energ DENC   =     -1000.77273315
  -exchange      EXHF   =         0.00000000
  -V(xc)+E(xc)   XCENC  =     -1155.57223519
  PAW double counting   =      4733.54246485    -2495.34681021
  entropy T*S    EENTRO =        -0.00000000
  eigenvalues    EBANDS =       307.02057211
  atomic energy  EATOM  =     13192.48085998
  Solvation  Ediel_sol  =         0.00000000
  ---------------------------------------------------
  free energy    TOTEN  =      -679.89240760 eV

  energy without entropy =     -679.89240760  energy(sigma->0) =     -679.89240760


--------------------------------------------------------------------------------------------------------




--------------------------------------- Iteration      1(  19)  ---------------------------------------


    POTLOK:  cpu time    0.4894: real time    0.4927
    SETDIJ:  cpu time    0.5069: real time    0.5070
     EDDAV:  cpu time   49.9512: real time   49.9805
       DOS:  cpu time    0.0017: real time    0.0017
    CHARGE:  cpu time    3.1166: real time    3.1186
    MIXING:  cpu time    0.0409: real time    0.0409
    --------------------------------------------
      LOOP:  cpu time   54.1068: real time   54.1413

 eigenvalue-minimisations  :  3176
 total energy-change (2. order) : 0.4650610E-07  (-0.2126251E-09)
 number of electron     511.9999998 magnetization 
 augmentation part      -29.4628123 magnetization 

 Broyden mixing:
  rms(total) = 0.53339E-05    rms(broyden)= 0.28139E-05
  rms(prec ) = 0.38006E-05
  weight for this iteration     100.00
  WARNING: grid for Broyden might be to small

 eigenvalues of (default mixing * dielectric matrix)
  average eigenvalue GAMMA=   1.6872
  3.3275  2.7187  2.3229  2.3229  1.7991  1.7991  1.4183  1.4183  1.3029  1.3029
  1.0282  1.0282  0.9159  0.9159

 Free energy of the ion-electron system (eV)
  ---------------------------------------------------
  alpha Z        PSCENC =       210.77028614
  Ewald energy   TEWEN  =    -14472.01481214
  -Hartree energ DENC   =     -1000.77239027
  -exchange      EXHF   =         0.00000000
  -V(xc)+E(xc)   XCENC  =     -1155.57226590
  PAW double counting   =      4733.54196054    -2495.34626810
  entropy T*S    EENTRO =        -0.00000000
  eigenvalues    EBANDS =       307.02022220
  atomic energy  EATOM  =     13192.48085998
  Solvation  Ediel_sol  =         0.00000000
  ---------------------------------------------------
  free energy    TOTEN  =      -679.89240755 eV

  energy without entropy =     -679.89240755  energy(sigma->0) =     -679.89240755


--------------------------------------------------------------------------------------------------------




--------------------------------------- Iteration      1(  20)  ---------------------------------------


    POTLOK:  cpu time    0.4889: real time    0.4902
    SETDIJ:  cpu time    0.5050: real time    0.5051
     EDDAV:  cpu time   50.0953: real time   50.1141
       DOS:  cpu time    0.0020: real time    0.0020
    CHARGE:  cpu time    3.1195: real time    3.1202
    MIXING:  cpu time    0.0373: real time    0.0374
    --------------------------------------------
      LOOP:  cpu time   54.2480: real time   54.2689

 eigenvalue-minimisations  :  3176
 total energy-change (2. order) :-0.1452463E-07  (-0.4516890E-10)
 number of electron     511.9999998 magnetization 
 augmentation part      -29.4628115 magnetization 

 Broyden mixing:
  rms(total) = 0.47792E-05    rms(broyden)= 0.15192E-05
  rms(prec ) = 0.21654E-05
  weight for this iteration     100.00
  WARNING: grid for Broyden might be to small

 eigenvalues of (default mixing * dielectric matrix)
  average eigenvalue GAMMA=   1.7152
  3.2620  2.7353  2.5143  2.5143  1.8788  1.8788  1.7497  1.3787  1.3787  1.2154
  1.2154  1.1724  0.9629  0.9629  0.9084

 Free energy of the ion-electron system (eV)
  ---------------------------------------------------
  alpha Z        PSCENC =       210.77028614
  Ewald energy   TEWEN  =    -14472.01481214
  -Hartree energ DENC   =     -1000.77259125
  -exchange      EXHF   =         0.00000000
  -V(xc)+E(xc)   XCENC  =     -1155.57224260
  PAW double counting   =      4733.54232155    -2495.34664033
  entropy T*S    EENTRO =        -0.00000000
  eigenvalues    EBANDS =       307.02041109
  atomic energy  EATOM  =     13192.48085998
  Solvation  Ediel_sol  =         0.00000000
  ---------------------------------------------------
  free energy    TOTEN  =      -679.89240756 eV

  energy without entropy =     -679.89240756  energy(sigma->0) =     -679.89240756


--------------------------------------------------------------------------------------------------------




--------------------------------------- Iteration      1(  21)  ---------------------------------------


    POTLOK:  cpu time    0.4859: real time    0.4908
    SETDIJ:  cpu time    0.5077: real time    0.5082
     EDDAV:  cpu time   49.8393: real time   49.8552
       DOS:  cpu time    0.0016: real time    0.0016
    --------------------------------------------
      LOOP:  cpu time   50.8345: real time   50.8558

 eigenvalue-minimisations  :  3168
 total energy-change (2. order) : 0.9385985E-09  (-0.1828360E-10)
 number of electron     511.9999998 magnetization 
 augmentation part      -29.4628115 magnetization 

 Free energy of the ion-electron system (eV)
  ---------------------------------------------------
  alpha Z        PSCENC =       210.77028614
  Ewald energy   TEWEN  =    -14472.01481214
  -Hartree energ DENC   =     -1000.77252084
  -exchange      EXHF   =         0.00000000
  -V(xc)+E(xc)   XCENC  =     -1155.57224948
  PAW double counting   =      4733.54225455    -2495.34657265
  entropy T*S    EENTRO =        -0.00000000
  eigenvalues    EBANDS =       307.02034686
  atomic energy  EATOM  =     13192.48085998
  Solvation  Ediel_sol  =         0.00000000
  ---------------------------------------------------
  free energy    TOTEN  =      -679.89240756 eV

  energy without entropy =     -679.89240756  energy(sigma->0) =     -679.89240756


--------------------------------------------------------------------------------------------------------




 average (electrostatic) potential at core
  the test charge radii are     0.9892
  (the norm of the test charge is              1.0000)
       1 -83.4377       2 -83.3555       3 -83.4281       4 -83.4148       5 -83.4963
       6 -83.5605       7 -83.4352       8 -83.5850       9 -83.4473      10 -83.5001
      11 -83.4564      12 -83.4931      13 -83.4689      14 -83.4283      15 -83.5020
      16 -83.4774      17 -83.3813      18 -83.3366      19 -83.3391      20 -83.5045
      21 -83.5004      22 -83.4304      23 -83.4895      24 -83.5262      25 -83.5133
      26 -83.4860      27 -83.4952      28 -83.4645      29 -83.4265      30 -83.5662
      31 -83.4442      32 -83.4509      33 -83.3930      34 -83.5131      35 -83.4925
      36 -83.5723      37 -83.5359      38 -83.5243      39 -83.5597      40 -83.6201
      41 -83.6157      42 -83.4719      43 -83.5126      44 -83.6840      45 -83.5045
      46 -83.6372      47 -83.5672      48 -83.5045      49 -83.5196      50 -83.5676
      51 -83.5644      52 -83.5595      53 -83.5297      54 -83.5424      55 -83.6750
      56 -83.5688      57 -83.6259      58 -83.6114      59 -83.4991      60 -83.6336
      61 -83.5634      62 -83.5150      63 -83.5466      64 -83.6327      65 -83.5118
      66 -83.4251      67 -83.4427      68 -83.4469      69 -83.4528      70 -83.5535
      71 -83.4627      72 -83.5386      73 -83.4978      74 -83.4704      75 -83.4979
      76 -83.5743      77 -83.4081      78 -83.4237      79 -83.3547      80 -83.4879
      81 -83.3907      82 -83.4991      83 -83.3249      84 -83.4844      85 -83.4393
      86 -83.4465      87 -83.5459      88 -83.5193      89 -83.5088      90 -83.5431
      91 -83.4260      92 -83.4531      93 -83.4705      94 -83.4657      95 -83.4165
      96 -83.4415      97 -83.4191      98 -83.4952      99 -83.5546     100 -83.5417
     101 -83.5594     102 -83.5660     103 -83.6155     104 -83.7052     105 -83.5521
     106 -83.6237     107 -83.5572     108 -83.5389     109 -83.4368     110 -83.5812
     111 -83.6029     112 -83.6440     113 -83.5335     114 -83.5749     115 -83.5231
     116 -83.5689     117 -83.6240     118 -83.5665     119 -83.5207     120 -83.6766
     121 -83.4675     122 -83.4874     123 -83.5232     124 -83.6774     125 -83.5100
     126 -83.5805     127 -83.5425     128 -83.6234
 
 
 
 E-fermi :   5.8814     XC(G=0):  -9.3301     alpha+bet :-11.7321


 k-point     1 :       0.0000    0.0000    0.0000
  band No.  band energies     occupation 
      1      -6.2968      2.00000
      2      -5.6820      2.00000
      3      -5.6531      2.00000
      4      -5.5990      2.00000
      5      -5.5373      2.00000
      6      -5.5204      2.00000
      7      -5.4974      2.00000
      8      -5.4514      2.00000
      9      -5.4136      2.00000
     10      -5.3169      2.00000
     11      -5.2263      2.00000
     12      -5.2133      2.00000
     13      -5.1512      2.00000
     14      -5.1274      2.00000
     15      -5.1050      2.00000
     16      -4.5176      2.00000
     17      -4.4862      2.00000
     18      -4.4192      2.00000
     19      -4.4128      2.00000
     20      -4.3622      2.00000
     21      -4.3223      2.00000
     22      -4.3046      2.00000
     23      -4.2691      2.00000
     24      -4.2457      2.00000
     25      -4.2018      2.00000
     26      -4.1244      2.00000
     27      -4.1022      2.00000
     28      -4.0377      2.00000
     29      -4.0008      2.00000
     30      -3.9871      2.00000
     31      -3.8988      2.00000
     32      -3.8839      2.00000
     33      -3.8152      2.00000
     34      -3.7913      2.00000
     35      -3.7513      2.00000
     36      -3.7168      2.00000
     37      -3.7002      2.00000
     38      -3.6821      2.00000
     39      -3.6614      2.00000
     40      -3.6353      2.00000
     41      -3.6320      2.00000
     42      -3.6091      2.00000
     43      -3.5719      2.00000
     44      -3.5384      2.00000
     45      -3.5184      2.00000
[...]
   -.343E+01 -.428E+01 -.340E+01   0.267E+01 0.306E+01 0.307E+01   0.960E+00 0.149E+01 0.162E+01   -.259E-06 0.409E-07 -.115E-05
   0.688E+00 -.494E+01 0.628E+01   -.856E+00 0.429E+01 -.543E+01   -.917E+00 0.189E+01 -.200E+01   0.409E-06 0.983E-06 -.587E-07
   0.498E+01 -.152E+02 0.863E+00   -.467E+01 0.134E+02 -.526E+00   -.114E+01 0.306E+01 0.676E+00   0.193E-07 -.148E-05 -.881E-06
   0.268E+01 -.129E-01 0.548E+01   -.208E+01 -.770E-01 -.471E+01   -.198E+01 -.945E+00 -.513E+00   0.110E-05 0.128E-05 0.463E-07
   0.754E+01 0.238E+01 0.305E+00   -.729E+01 -.204E+01 -.128E+00   -.117E+01 -.154E+01 -.342E+00   0.235E-05 0.536E-06 -.212E-06
   -.817E+01 -.133E+01 -.141E+02   0.744E+01 0.176E+01 0.127E+02   0.105E+01 -.822E-01 0.361E+01   0.308E-06 -.308E-06 -.717E-06
   0.306E+00 0.360E+01 0.644E+00   -.408E+00 -.354E+01 -.409E+00   -.237E+00 -.511E+00 -.361E+00   -.148E-06 0.866E-06 0.132E-05
   -.868E+01 -.702E+01 -.228E+01   0.749E+01 0.588E+01 0.217E+01   0.273E+01 0.212E+01 0.837E+00   -.147E-05 -.383E-07 -.141E-05
   0.987E+01 0.840E+01 0.498E+01   -.893E+01 -.787E+01 -.480E+01   -.301E+01 -.129E+01 0.371E-01   0.493E-06 0.162E-05 -.111E-05
   0.140E+01 -.828E+01 -.377E+01   -.170E+01 0.754E+01 0.370E+01   0.445E+00 0.149E+01 0.230E+00   -.884E-06 -.443E-06 -.108E-05
   -.340E+01 0.232E+01 -.819E+01   0.279E+01 -.269E+01 0.719E+01   -.920E-01 -.380E+00 0.306E+01   -.108E-06 0.298E-06 -.133E-05
   0.123E+02 0.367E+01 -.429E+01   -.116E+02 -.376E+01 0.396E+01   -.189E+01 0.146E+00 0.113E+01   0.190E-05 0.111E-05 -.867E-06
   0.420E+01 -.704E+01 -.251E+01   -.406E+01 0.537E+01 0.280E+01   -.102E+01 0.285E+01 0.227E+00   0.172E-05 0.163E-05 -.345E-06
   0.916E+01 -.108E+02 0.151E+01   -.843E+01 0.965E+01 -.934E+00   -.208E+01 0.274E+01 -.879E+00   0.246E-05 -.983E-06 0.894E-06
   -.192E+01 0.713E+01 -.127E+01   0.101E+01 -.644E+01 0.123E+01   0.191E+01 -.214E+01 -.394E+00   0.124E-05 0.157E-05 -.120E-05
   0.369E+01 0.858E+01 -.762E+00   -.335E+01 -.778E+01 0.590E+00   -.175E+01 -.270E+01 0.980E-01   0.685E-06 0.886E-06 -.670E-08
   0.315E+01 0.144E+01 -.125E+01   -.300E+01 -.152E+01 0.134E+01   -.112E+01 -.712E+00 0.110E+00   0.209E-05 0.287E-06 -.118E-05
   -.207E+01 0.447E+00 0.140E+02   0.142E+01 -.280E+00 -.125E+02   0.762E+00 -.914E+00 -.436E+01   -.282E-06 -.967E-06 -.559E-06
   0.123E+02 -.318E+01 0.596E+01   -.105E+02 0.253E+01 -.455E+01   -.350E+01 0.103E+01 -.178E+01   -.140E-06 0.609E-07 0.377E-06
   -.799E+01 -.296E+00 0.749E+01   0.744E+01 0.152E-01 -.647E+01   0.146E+01 -.151E+00 -.233E+01   -.349E-06 -.967E-07 0.148E-05
   -.286E+00 0.919E+01 0.207E+00   0.308E+00 -.842E+01 0.496E+00   -.938E+00 -.276E+01 -.394E+00   0.114E-05 0.237E-05 -.220E-05
   0.425E+01 0.162E+01 0.235E+01   -.365E+01 -.178E+01 -.198E+01   -.805E+00 -.506E+00 -.143E+01   -.160E-06 -.154E-05 0.403E-06
   0.362E+01 0.970E+00 0.470E+01   -.330E+01 -.545E+00 -.424E+01   -.469E+00 -.119E+01 -.215E+01   -.405E-06 0.776E-06 0.171E-05
   0.780E+00 -.438E+01 0.668E+00   -.137E+01 0.325E+01 -.658E+00   0.783E+00 0.305E+01 0.155E+00   -.550E-06 -.495E-07 -.119E-06
   0.347E+01 -.985E+00 -.591E+01   -.387E+01 0.173E+01 0.543E+01   0.445E+00 0.283E+00 0.110E+01   0.101E-05 -.113E-05 -.469E-07
   -.950E+01 0.113E+02 -.144E+01   0.901E+01 -.104E+02 0.131E+01   0.197E+01 -.280E+01 -.955E-01   -.125E-05 0.985E-07 0.108E-05
   0.143E+01 -.139E+01 0.619E+01   -.609E+00 0.109E+01 -.554E+01   -.844E+00 0.731E+00 -.161E+01   0.157E-05 -.118E-05 0.197E-05
   -.942E+01 0.477E+01 -.126E+01   0.906E+01 -.457E+01 0.129E+01   0.205E+01 -.114E+01 0.743E+00   -.185E-05 0.102E-05 0.121E-05
   -.129E+02 -.983E+01 -.720E+01   0.120E+02 0.913E+01 0.670E+01   0.352E+01 0.321E+01 0.217E+01   -.228E-05 -.328E-05 -.176E-05
   0.100E+02 0.713E+01 -.423E+01   -.916E+01 -.663E+01 0.350E+01   -.211E+01 -.346E+01 0.203E+01   -.535E-06 0.145E-05 0.673E-06
   -.143E+02 -.357E+01 -.509E+01   0.125E+02 0.296E+01 0.480E+01   0.412E+01 0.182E+01 0.169E+01   -.350E-05 -.205E-05 -.180E-05
   0.579E+01 -.577E+01 0.528E+01   -.453E+01 0.505E+01 -.522E+01   -.198E+01 0.136E+01 -.809E+00   0.668E-06 0.119E-05 0.773E-06
   0.816E+01 -.688E+01 0.799E+01   -.748E+01 0.678E+01 -.722E+01   -.225E+01 0.357E+00 -.206E+01   0.343E-05 -.276E-05 0.204E-05
   -.458E+00 -.407E+01 -.335E+01   0.542E+00 0.347E+01 0.282E+01   0.625E+00 0.442E+00 0.151E+01   -.237E-06 -.102E-05 0.103E-06
   0.529E+01 -.391E+01 -.457E+01   -.450E+01 0.359E+01 0.440E+01   -.153E+01 0.148E+01 0.160E+01   0.334E-06 0.849E-06 -.539E-06
   -.587E+01 0.352E+01 0.132E+01   0.553E+01 -.358E+01 -.159E+01   0.173E+01 0.702E+00 0.137E+00   -.223E-05 0.145E-05 0.210E-05
   -.636E+01 0.361E+01 -.500E+00   0.546E+01 -.298E+01 0.525E+00   0.246E+01 -.804E+00 0.691E-01   -.252E-05 -.218E-05 -.170E-05
   -.882E-01 -.101E+01 0.369E+01   0.104E+01 0.476E+00 -.311E+01   -.996E+00 0.157E+01 -.137E+01   -.354E-06 0.990E-06 0.322E-07
   -.953E+01 0.117E+02 -.460E+01   0.937E+01 -.107E+02 0.376E+01   0.232E+01 -.230E+01 -.812E-01   -.219E-05 0.864E-06 0.212E-06
   -.184E+02 -.882E+00 0.476E+00   0.171E+02 0.102E+01 -.402E+00   0.416E+01 0.405E-01 -.118E+00   -.241E-05 -.153E-06 0.989E-06
   -.121E+01 -.152E+01 -.221E+00   0.134E+01 0.167E+01 0.949E+00   0.684E+00 0.706E+00 0.495E-01   0.326E-06 -.155E-05 -.103E-05
   -.287E+01 0.470E+01 0.129E+02   0.218E+01 -.439E+01 -.115E+02   0.169E+01 -.118E+01 -.367E+01   0.477E-06 0.141E-05 0.250E-05
   0.444E+01 -.791E+00 -.486E+01   -.417E+01 0.611E+00 0.398E+01   -.152E+01 -.152E+01 0.633E+00   0.369E-07 -.405E-07 -.397E-06
   0.487E+01 0.989E+01 -.110E+02   -.413E+01 -.843E+01 0.101E+02   -.249E+01 -.358E+01 0.387E+01   0.186E-05 0.937E-06 -.244E-06
   -.711E+01 -.390E+01 -.812E+01   0.606E+01 0.350E+01 0.752E+01   0.153E+01 0.125E+01 0.196E+01   0.138E-05 -.198E-05 -.136E-05
   0.899E+00 0.127E+02 0.395E+01   -.386E+00 -.111E+02 -.349E+01   0.239E+00 -.469E+01 -.113E+01   -.960E-06 0.665E-07 -.312E-06
   0.267E+01 0.726E+01 -.354E+01   -.276E+01 -.620E+01 0.375E+01   0.613E+00 -.322E+01 0.143E+00   -.146E-06 0.168E-05 0.255E-05
   -.339E+01 0.881E+00 0.513E+01   0.303E+01 -.360E+00 -.514E+01   0.187E+01 -.751E+00 -.468E+00   -.306E-05 -.490E-06 0.397E-06
   0.819E+01 -.373E+01 0.704E+01   -.699E+01 0.377E+01 -.720E+01   -.198E+01 0.378E-01 -.216E+00   -.447E-06 -.182E-05 -.149E-06
   -.604E+01 0.276E+01 0.117E+01   0.565E+01 -.250E+01 -.119E+01   0.245E+01 -.645E+00 -.723E-01   -.114E-05 0.177E-05 0.689E-06
   0.662E+01 0.227E+01 -.390E+01   -.582E+01 -.193E+01 0.350E+01   -.460E+00 -.616E+00 0.201E+01   0.385E-06 0.303E-07 -.857E-06
   0.778E+01 -.412E+01 -.200E+01   -.700E+01 0.346E+01 0.114E+01   -.126E+01 0.298E+01 0.138E+01   0.735E-06 -.148E-05 0.135E-05
   0.234E+01 -.666E+01 -.951E+01   -.202E+01 0.657E+01 0.826E+01   -.380E+00 0.729E+00 0.268E+01   0.539E-06 -.224E-05 -.333E-06
 -----------------------------------------------------------------------------------------------
   -.284E+00 0.551E-01 -.392E+00   -.158E-12 -.246E-12 -.179E-12   0.284E+00 -.551E-01 0.392E+00   -.111E-05 -.146E-06 -.324E-06
 
 
 POSITION                                       TOTAL-FORCE (eV/Angst)
 -----------------------------------------------------------------------------------
     21.80637     10.97229     11.00599         1.483820     -0.714395      0.728433
     21.70006     13.68990     13.64521         1.528641     -0.825110      0.417076
     10.95672      5.56875     16.39927         0.270231     -1.016961      0.185078
     10.91987     19.16290      8.31502        -1.779033     -0.051032     -0.189877
      2.80737     10.91551     13.64999        -1.693785     -0.505887      0.482959
     13.54173     13.61311      5.36701         1.760623      0.991508      0.062520
     13.64260     16.41408      8.22166         0.441561      2.219937     -0.956611
      2.81155      8.25655     10.94342        -1.627682      0.590520     -0.276373
     16.36283     10.93285      5.61669         0.060742     -0.075624     -3.057967
     16.37694     13.57077      8.22288        -0.270427      1.603682     -0.205770
      5.45709      5.49121     10.91965        -0.365087      0.107823      0.006021
     16.36617     19.15024     13.75907        -0.112160      0.066903     -1.547957
      8.19486      0.12377      8.24242        -0.288075     -0.812428      0.582735
     19.13066     13.62751     11.00235         0.046793      0.578693     -2.048467
     19.08190     16.36582     13.78966         1.801211      0.473648     -1.062383
     19.11523     19.01718     16.46685         0.999422      1.812266     -0.631557
     13.58182      2.78735     11.01318         1.983938     -0.568944     -1.305106
     13.56087      5.58971     13.61978         2.410656     -1.361282      0.959964
     13.58686      8.30311     16.47246        -0.282724     -1.157698     -0.915719
     13.55392     10.91264     19.08326         1.098052      1.029563      0.416014
      5.49124      2.66691      2.97102         0.441152      1.091430     -2.895959
      5.43623      5.55024      5.60364        -0.633006     -0.457950     -0.999021
      5.43448      8.18407      8.12042         0.081311      0.248237      0.104325
      5.45463     11.13844     11.07658         0.507912     -0.986453     -1.631784
      8.13709     13.61002     16.38986         0.315376     -0.215342      0.443137
      8.13413      5.40227      8.25728         1.630250      1.282727     -1.805542
      8.14185      8.26539     10.94225         0.461893      0.470453      1.043098
      8.18859     10.91906     13.59455         0.796303      0.012907      1.377656
     10.98495     13.66298     19.07517         0.564596     -0.397102      1.986000
     11.01361      5.29682     10.84003        -1.849871      2.640254      1.032029
     10.93269      8.19290     13.65599         0.601307      0.615570     -0.463464
     10.86819     10.83537     16.37345         0.162785      1.966236      0.611914
      5.51442     16.35805     10.93240        -0.247233      0.782573     -0.798675
      5.58640      8.26309      2.68409        -0.350218      0.237609      1.832632
      5.59684     10.94090      5.50941        -2.424521     -0.064217     -0.274839
     16.43571     13.73219     19.09900        -0.222780     -0.505221     -1.098656
      8.04948      5.38806      2.69269         0.541758     -0.053355      0.796153
      8.22165      8.17236      5.42314         0.574507      1.492203      0.487468
      8.18377     10.92035      8.25572         0.062481     -0.338826     -0.718057
      8.31224     13.67936     10.96725        -2.173574     -1.359673     -1.227900
     10.98886     16.31658     16.43259        -1.140279      1.783328      0.182999
     10.87648      8.20402      8.27001        -0.917829     -1.134581     -0.538193
     10.93286     10.85227     10.89782         0.351504      1.724041     -0.895975
     10.95230     13.74928     13.76715         0.114391     -0.313715     -0.755893
     13.68129     16.37415     19.06426        -0.891885      1.082280      0.581517
     13.70766      8.15057     11.15910        -0.492221     -0.183152     -3.003513
     13.62601     10.97670     13.56053         0.788734     -1.338812      1.077337
     13.60096     13.74420     16.35938         1.900825     -1.319201      0.203652
      8.20328     19.05013     10.92446        -0.783336      0.555242     -0.680818
      8.31905     10.95424      2.66553        -1.092889      0.277336      0.592235
     19.21225     13.82812     16.36364        -1.048476     -2.190996      1.474067
      8.13547     16.29368      8.22098        -0.819636      0.599882      0.359616
     10.87441     19.14432     13.59326         1.375848     -0.627280      1.155168
     11.04708     10.92292      5.49688        -1.624556      1.726660      1.418086
     10.83308     13.64946      8.24584         0.346392      1.107789     -0.713316
     10.94636     16.47210     11.00987        -0.907929     -1.546927     -1.326403
     13.63356      8.10984      5.52421         1.631155      1.729617     -1.253733
     13.72140     10.87971      8.11974        -1.821809      1.572688      2.389645
     13.70431     13.60324     10.95689        -1.305522      1.228151     -0.256844
     13.66944     16.23717     13.67484         0.157900      1.995215     -0.102498
     16.44485     19.18669     19.08105        -0.951665     -0.207988     -0.102140
     16.42840     10.93013     11.07487        -1.002636      0.858725     -1.666619
     16.59580     13.82072     13.72141        -2.790000     -2.291974     -1.360780
     16.49088     16.46039     16.38907        -0.975841     -1.439173     -0.284185
      1.50972      1.44393      1.41214        -2.451117     -1.168921      0.861255
      1.41021      4.02880      3.93404        -1.347269      1.076120      0.794028
      1.24714      6.97527      6.96390         1.283630     -1.246782     -1.233762
      1.23457      9.60872      9.54350         1.182235      0.360399      1.439504
      4.07514      1.32852      3.98034        -0.101391     -0.573396      2.689483
      4.02601      4.15444      6.94031         0.543762     -1.168976     -1.366526
      4.00313      6.92255      9.57303         1.493008     -1.023399     -0.393138
      4.06896      9.69824     12.22740         1.046440     -1.214982      0.824884
      6.70354      1.30834      6.86301         1.704732      0.896635      0.106078
      6.80644      4.12702      9.46067        -0.830862     -1.408761      1.856018
      6.89484      6.79643     12.35226        -0.951778      0.429259      0.025643
      6.82669      9.54382     15.01326         0.195473      0.260819      1.279717
      9.66517      1.34141      9.65785        -1.084246      1.237115     -1.147205
      9.59476      4.03191     12.19269        -0.835590      1.212277      1.014254
      9.65928      6.92611     15.03326        -1.370955     -1.035411      0.253248
      9.58199      9.65885     17.87317        -0.929502     -1.200745     -0.164127
      4.08434      4.10352      1.24251         0.319757      0.346301      2.264938
      4.10548      6.96248      4.12282        -0.338350     -0.448130     -0.125646
      3.99453      9.55643      6.78920         1.540004      0.976917      0.731547
      4.23097     12.43262      9.56179        -2.076524     -0.755773      0.222354
      6.75462      4.09452      4.22662         0.141581      0.747898      0.158690
      6.92200      6.88569      6.70319        -0.697978     -0.748083      2.056266
      6.80574      9.59615      9.53290        -1.168684      0.053120      0.805036
      6.95114     12.31113     12.33664        -0.883298      1.184376      0.517687
      9.62478      3.92730      6.84261        -1.351611      1.591612     -0.298025
      9.43969      6.89103      9.64307         0.997260     -1.455922     -0.437406
      9.69034      9.70595     12.34005        -1.409451     -1.898716     -0.074090
      9.61247     12.33076     15.01488        -0.964177     -0.792189      0.199641
     12.39168      4.11232      9.66008         0.113986     -0.746544     -2.909481
     12.29038      6.77672     12.28210        -1.681851      0.382376     -0.359476
     12.23440      9.60602     15.08199         0.907970     -0.432492     -1.318805
     12.34656     12.43716     17.68978        -0.915869     -1.988085      0.307962
      6.83955      6.85010      1.41666        -0.206971     -0.665195     -1.071183
      6.96144      9.69297      4.19940        -0.143057     -0.760231     -1.691277
      6.89609     12.21856      6.83509         0.190026      1.927101      0.165408
      6.85086     14.90015      9.58461         0.040751      1.031070      0.621175
      9.42142      6.90193      4.00413         1.473653     -1.924603     -0.225696
      9.58812      9.54901      6.91794        -0.026141      0.435540     -0.968723
      9.43130     12.33234      9.53459         1.689095     -0.943729      0.776586
      9.43091     14.91485     12.30118         2.608995      2.501589      1.675985
     12.27950      7.02995      6.82386        -1.225258     -2.966059      1.301863
     12.20367      9.44045      9.51778         2.273756      1.206791      1.404105
     12.27375     12.28998     12.31625        -0.717692      0.645830     -0.755148
     12.38969     15.07636     15.13084        -1.569320      0.262516     -1.291631
     14.99129      6.85386      9.47044         0.708520     -0.161969      0.973749
     15.14139      9.48334     12.24986        -0.733352      1.158632      1.429559
     14.96316     12.26993     15.03519         1.388485      0.650286     -0.142350
     14.95073     15.08431     17.68271         1.555091     -0.166517      0.093899
      9.54650      9.46040      1.35853        -0.043204      1.033162     -0.792077
      9.42650     12.37612      4.18769         2.157806     -1.303905     -0.916808
      9.40185     15.09963      6.83343         2.922443      0.177285     -0.043954
      9.48630     17.64337      9.51010         0.817934      0.864995      0.777974
     12.24997      9.55505      4.24568         0.994977     -0.877117     -2.308333
     12.39847     12.46499      6.93385        -1.252598     -1.697368     -0.249220
     12.32035     15.17490      9.38724        -1.748115     -2.108847      3.034614
     12.34972     17.73112     12.23893         0.478961      0.856508      1.357792
     14.97964      9.70006      6.82742         0.751980     -3.111880     -0.660941
     14.99084     12.37941      9.57276         0.526916     -2.154515      0.354148
     15.00096     15.00470     12.31844         1.511633     -0.229334     -0.477745
     15.06741     17.71209     15.06018        -0.782781      0.084307     -0.378608
     17.61285      9.63152      9.59744         2.062101     -0.379261     -0.085814
     17.76999     12.33535     12.25906         0.342832     -0.273843      1.616155
     17.83838     14.94705     15.08733        -0.477293      2.315629      0.530794
     17.79128     17.68856     17.73956        -0.056894      0.630814      1.428213
 -----------------------------------------------------------------------------------
    total drift:                               -0.000002     -0.000017      0.000016


--------------------------------------------------------------------------------------------------------



  FREE ENERGIE OF THE ION-ELECTRON SYSTEM (eV)
  ---------------------------------------------------
  free  energy   TOTEN  =      -679.89240756 eV

  energy  without entropy=     -679.89240756  energy(sigma->0) =     -679.89240756
 


--------------------------------------------------------------------------------------------------------


    POTLOK:  cpu time    0.9944: real time    0.9947


--------------------------------------------------------------------------------------------------------


     LOOP+:  cpu time 1689.6220: real time 1690.4060
    4ORBIT:  cpu time    0.0000: real time    0.0000

 total amount of memory used by VASP MPI-rank0   221701. kBytes
=======================================================================

   base      :      30000. kBytes
   nonl-proj :      10690. kBytes
   fftplans  :      66746. kBytes
   grid      :      26864. kBytes
   one-center:         24. kBytes
   wavefun   :      87377. kBytes
 
  
  
 General timing and accounting informations for this job:
 ========================================================
  
                  Total CPU time used (sec):     1713.609
                            User time (sec):     1712.382
                          System time (sec):        1.228
                         Elapsed time (sec):     1715.416
  
                   Maximum memory used (kb):      337948.
                   Average memory used (kb):           0.
  
                          Minor page faults:       166495
                          Major page faults:            0
                 Voluntary context switches:         1372
