<?xml version="1.0" encoding="ISO-8859-1"?>
<modeling>
 <generator>
  <i name="program" type="string">vasp </i>
  <i name="version" type="string">5.4.4.18Apr17-6-g9f103f2a35  </i>
  <i name="subversion" type="string">(build Nov 08 2017 09:05:29) complex            parallel </i>
  <i name="platform" type="string">Intel_17.33 </i>
  <i name="date" type="string">2020 07 18 </i>
  <i name="time" type="string">19:34:55 </i>
 </generator>
 <incar>
  <i type="string" name="SYSTEM">potpaw_PBE@./ARUN.APL1ZEROSTATE</i>
  <i type="string" name="PREC">accurate</i>
  <i type="string" name="ALGO">Normal</i>
  <i type="int" name="NSIM">     4</i>
  <i type="logical" name="ADDGRID"> T  </i>
  <i type="int" name="NELM">   120</i>
  <i type="int" name="NELMIN">     4</i>
  <i name="EDIFF">      0.00000001</i>
  <i type="int" name="NSW">     0</i>
  <i type="int" name="ISYM">     2</i>
  <i name="ENMAX">    500.00000000</i>
  <i type="logical" name="LREAL"> F  </i>
  <i type="logical" name="LPLANE"> T  </i>
  <i type="int" name="ISMEAR">     0</i>
  <i name="SIGMA">      0.01000000</i>
  <i type="logical" name="LWAVE"> F  </i>
  <i type="logical" name="LCHARG"> F  </i>
  <i type="logical" name="LELF"> F  </i>
  <i type="logical" name="LAECHG"> F  </i>
  <v type="int" name="KPOINT_BSE">    -1     0     0     0</v>
  <i type="int" name="NELM">   120</i>
 </incar>
 <structure name="primitive_cell" >
  <crystal>
   <varray name="basis" >
    <v>       0.00000000      10.93733369      10.93733369 </v>
    <v>      10.93733369       0.00000000      10.93733369 </v>
    <v>      10.93733369      10.93733369       0.00000000 </v>
   </varray>
   <i name="volume">   2616.76295363 </i>
   <varray name="rec_basis" >
    <v>      -0.04571498       0.04571498       0.04571498 </v>
    <v>       0.04571498      -0.04571498       0.04571498 </v>
    <v>       0.04571498       0.04571498      -0.04571498 </v>
   </varray>
  </crystal>
  <varray name="positions" >
   <v>       0.00785913      -0.00158172      -0.00466279 </v>
   <v>       0.06098781      -0.17797092       0.06165737 </v>
   <v>      -0.18089486       0.05345650       0.05941993 </v>
   <v>       0.05816891       0.06604099      -0.19320487 </v>
   <v>       0.06154818       0.06756399       0.07046985 </v>
   <v>       0.24232249       0.00138658      -0.24077630 </v>
   <v>       0.25139555      -0.24545128      -0.00543324 </v>
   <v>      -0.00052575       0.24335664      -0.24910949 </v>
   <v>       0.25760595      -0.01002512      -0.00593936 </v>
   <v>      -0.24304877       0.00329080      -0.00488770 </v>
   <v>       0.00783269      -0.25422825       0.00348390 </v>
   <v>       0.00999857      -0.00306356       0.24484854 </v>
   <v>      -0.00532732       0.25334533       0.00333227 </v>
   <v>      -0.00472522       0.00354821      -0.25352242 </v>
   <v>      -0.24835518      -0.00686336       0.24609779 </v>
   <v>      -0.00555281      -0.25040489       0.25475814 </v>
   <v>      -0.25080342       0.25135995       0.00569988 </v>
   <v>       0.30308306      -0.18830550       0.06555412 </v>
   <v>       0.31197849      -0.19113272      -0.18415785 </v>
   <v>      -0.17941502      -0.18644183       0.06252292 </v>
   <v>      -0.18368224       0.30163258       0.07039233 </v>
   <v>       0.06311938      -0.17989893       0.31286959 </v>
   <v>       0.32628183       0.05659881      -0.19473391 </v>
   <v>      -0.19448701       0.31349182      -0.18435705 </v>
   <v>       0.07089315       0.31728909      -0.19727515 </v>
   <v>       0.07388031      -0.19638711      -0.19327074 </v>
   <v>      -0.19234553       0.06185352      -0.19452192 </v>
   <v>      -0.18717004      -0.19545418       0.32429950 </v>
   <v>      -0.18794437       0.06217847       0.32465871 </v>
   <v>       0.23420898      -0.24310529       0.25007901 </v>
   <v>       0.25493404      -0.24235903      -0.25559264 </v>
   <v>       0.24561393       0.25696553      -0.24693164 </v>
   <v>      -0.24407498       0.25070652      -0.24988127 </v>
   <v>      -0.23379890       0.24653063       0.25218631 </v>
   <v>      -0.25298845      -0.24998792       0.24366610 </v>
   <v>       0.29955299       0.06013574       0.06879966 </v>
   <v>       0.31684710       0.06710357      -0.43061904 </v>
   <v>       0.05234931      -0.42672996       0.30672337 </v>
   <v>      -0.41978416       0.05649287       0.05753281 </v>
   <v>       0.05639968       0.30752287       0.06506691 </v>
   <v>       0.06787004       0.29822709      -0.43682694 </v>
   <v>      -0.42890812       0.30416958       0.06183663 </v>
   <v>       0.06524516       0.06428001      -0.43894062 </v>
   <v>       0.05767831       0.05592427       0.31750655 </v>
   <v>       0.31000432      -0.44501598       0.06732885 </v>
   <v>       0.06710095      -0.43961603       0.05252073 </v>
   <v>      -0.43537000       0.05610641       0.30911366 </v>
   <v>       0.24506799       0.00033866      -0.48957403 </v>
   <v>       0.24861600       0.24208973      -0.00396944 </v>
   <v>      -0.49958886      -0.24586343      -0.23678345 </v>
   <v>       0.24566540       0.25017233      -0.49846711 </v>
   <v>      -0.49807162      -0.00580123      -0.23762361 </v>
   <v>       0.25259432      -0.49763176       0.24133479 </v>
   <v>       0.24762469      -0.49580714      -0.00684994 </v>
   <v>      -0.49377187      -0.24544028      -0.00990191 </v>
   <v>      -0.00236703      -0.25305350      -0.24339488 </v>
   <v>      -0.48850863      -0.00541516       0.24766121 </v>
   <v>       0.25822641      -0.01297031       0.25284021 </v>
   <v>      -0.00054306       0.49906718       0.24490662 </v>
   <v>      -0.00537376      -0.25158186      -0.49753870 </v>
   <v>      -0.24373092      -0.49827794      -0.00536378 </v>
   <v>       0.00002185      -0.49494381      -0.25853990 </v>
   <v>      -0.25170062      -0.24273608      -0.00955922 </v>
   <v>      -0.49744848       0.24915477      -0.00181259 </v>
   <v>       0.00142951       0.24476335       0.49120024 </v>
   <v>       0.00670599       0.26493463       0.23712919 </v>
   <v>      -0.24558307      -0.25867958      -0.49778531 </v>
   <v>       0.49692185       0.24552751       0.25134721 </v>
   <v>      -0.25048090      -0.00329856      -0.49398551 </v>
   <v>      -0.25122599       0.00286981      -0.25904374 </v>
   <v>      -0.25747090      -0.49223892      -0.25796484 </v>
   <v>       0.30134485      -0.18134021      -0.43428311 </v>
   <v>      -0.44246056      -0.17810554      -0.19093167 </v>
   <v>       0.30941922      -0.18646749       0.31017607 </v>
   <v>      -0.44036705       0.29864166      -0.17219251 </v>
   <v>       0.31823749      -0.44300005      -0.18638812 </v>
   <v>       0.31446527       0.31804146      -0.44139975 </v>
   <v>      -0.43068306      -0.19037073       0.30896136 </v>
   <v>       0.32432088      -0.44265580       0.30572588 </v>
   <v>      -0.43664031       0.30823299       0.31401601 </v>
   <v>      -0.18932801      -0.43786184       0.31672938 </v>
   <v>      -0.19373215      -0.18434037      -0.18900361 </v>
   <v>      -0.19062235      -0.43242561      -0.18996168 </v>
   <v>       0.32002185       0.31393982      -0.18034845 </v>
   <v>      -0.18552864      -0.19774158      -0.43531363 </v>
   <v>      -0.18695371       0.31164999      -0.44938219 </v>
   <v>      -0.19099860       0.31893746       0.31660491 </v>
   <v>       0.49616640       0.00755905      -0.49584052 </v>
   <v>       0.00853533      -0.49500171      -0.00894560 </v>
   <v>      -0.00522747      -0.49234134       0.49705210 </v>
   <v>      -0.49924863       0.49763189       0.00130981 </v>
   <v>      -0.00450863       0.00405781      -0.49987503 </v>
   <v>      -0.49661894      -0.00399634       0.00576920 </v>
   <v>      -0.44421750       0.06914936      -0.43863974 </v>
   <v>       0.07196928      -0.44806435      -0.42922108 </v>
   <v>      -0.43981544      -0.43081768       0.06121258 </v>
   <v>       0.07075960      -0.44652883      -0.18388327 </v>
   <v>      -0.43669143      -0.43703396      -0.19142900 </v>
   <v>      -0.43578727      -0.18954554      -0.44237349 </v>
   <v>      -0.42713556       0.05191624      -0.19230551 </v>
   <v>      -0.43770110      -0.18780822       0.07095545 </v>
   <v>      -0.19386652       0.07018676      -0.44381324 </v>
   <v>      -0.18547286      -0.43111486      -0.43609594 </v>
   <v>      -0.18945573      -0.43788270       0.06204688 </v>
   <v>       0.06093869      -0.19505656      -0.43429036 </v>
   <v>       0.49627385      -0.49448574      -0.25252973 </v>
   <v>       0.24128609      -0.49889827      -0.24655437 </v>
   <v>       0.49880613      -0.25896733      -0.49520694 </v>
   <v>       0.25609564      -0.23581968       0.48911072 </v>
   <v>       0.49903400      -0.25046767       0.25004290 </v>
   <v>      -0.49429086       0.24820805      -0.25773961 </v>
   <v>       0.25589162      -0.49976522       0.49420148 </v>
   <v>      -0.24277123      -0.49849892       0.49986745 </v>
   <v>      -0.49748731       0.25230721       0.49593421 </v>
   <v>      -0.25327447       0.25600954      -0.49602200 </v>
   <v>      -0.49412769       0.49457711       0.24983161 </v>
   <v>      -0.25370212       0.49665092       0.25203145 </v>
   <v>       0.30477665       0.30809576       0.32478204 </v>
   <v>       0.31908247       0.05786717       0.31749713 </v>
   <v>       0.07161315       0.31482618       0.30274886 </v>
   <v>       0.32314746       0.31140507       0.05669268 </v>
   <v>      -0.25216809      -0.24938027      -0.24285925 </v>
   <v>       0.26138218       0.25095861       0.24607578 </v>
   <v>       0.30878444      -0.43857461      -0.44564409 </v>
   <v>      -0.43150575       0.30325295      -0.44094931 </v>
   <v>      -0.43622108      -0.43770439      -0.44010669 </v>
   <v>      -0.43516114      -0.43658867       0.32257564 </v>
   <v>       0.49450998      -0.49812234       0.49771310 </v>
  </varray>
 </structure>
 <varray name="primitive_index" >
  <v type="int" >        1 </v>
  <v type="int" >       77 </v>
  <v type="int" >       68 </v>
  <v type="int" >      113 </v>
  <v type="int" >       65 </v>
  <v type="int" >       50 </v>
  <v type="int" >       14 </v>
  <v type="int" >       53 </v>
  <v type="int" >        2 </v>
  <v type="int" >        4 </v>
  <v type="int" >       13 </v>
  <v type="int" >       17 </v>
  <v type="int" >        5 </v>
  <v type="int" >       49 </v>
  <v type="int" >       20 </v>
  <v type="int" >       29 </v>
  <v type="int" >        8 </v>
  <v type="int" >       78 </v>
  <v type="int" >      126 </v>
  <v type="int" >       80 </v>
  <v type="int" >       72 </v>
  <v type="int" >       93 </v>
  <v type="int" >      114 </v>
  <v type="int" >      120 </v>
  <v type="int" >      117 </v>
  <v type="int" >      125 </v>
  <v type="int" >      116 </v>
  <v type="int" >       96 </v>
  <v type="int" >       84 </v>
  <v type="int" >       30 </v>
  <v type="int" >       62 </v>
  <v type="int" >       54 </v>
  <v type="int" >       56 </v>
  <v type="int" >       24 </v>
  <v type="int" >       32 </v>
  <v type="int" >       66 </v>
  <v type="int" >       98 </v>
  <v type="int" >       89 </v>
  <v type="int" >       67 </v>
  <v type="int" >       69 </v>
  <v type="int" >      101 </v>
  <v type="int" >       71 </v>
  <v type="int" >       97 </v>
  <v type="int" >       81 </v>
  <v type="int" >       74 </v>
  <v type="int" >       73 </v>
  <v type="int" >       83 </v>
  <v type="int" >       34 </v>
  <v type="int" >        6 </v>
  <v type="int" >       63 </v>
  <v type="int" >       38 </v>
  <v type="int" >       51 </v>
  <v type="int" >       26 </v>
  <v type="int" >       10 </v>
  <v type="int" >       15 </v>
  <v type="int" >       61 </v>
  <v type="int" >       19 </v>
  <v type="int" >       18 </v>
  <v type="int" >       25 </v>
  <v type="int" >       45 </v>
  <v type="int" >       12 </v>
  <v type="int" >       57 </v>
  <v type="int" >       16 </v>
  <v type="int" >        7 </v>
  <v type="int" >       37 </v>
  <v type="int" >       21 </v>
  <v type="int" >       48 </v>
  <v type="int" >       23 </v>
  <v type="int" >       36 </v>
  <v type="int" >       52 </v>
  <v type="int" >       60 </v>
  <v type="int" >      110 </v>
  <v type="int" >      127 </v>
  <v type="int" >       94 </v>
  <v type="int" >      119 </v>
  <v type="int" >      122 </v>
  <v type="int" >      102 </v>
  <v type="int" >       95 </v>
  <v type="int" >       90 </v>
  <v type="int" >       87 </v>
  <v type="int" >       92 </v>
  <v type="int" >      128 </v>
  <v type="int" >      124 </v>
  <v type="int" >      118 </v>
  <v type="int" >      112 </v>
  <v type="int" >      104 </v>
  <v type="int" >       88 </v>
  <v type="int" >       35 </v>
  <v type="int" >        9 </v>
  <v type="int" >       41 </v>
  <v type="int" >       11 </v>
  <v type="int" >       33 </v>
  <v type="int" >        3 </v>
  <v type="int" >       99 </v>
  <v type="int" >      105 </v>
  <v type="int" >       75 </v>
  <v type="int" >      121 </v>
  <v type="int" >      123 </v>
  <v type="int" >      111 </v>
  <v type="int" >      115 </v>
  <v type="int" >       79 </v>
  <v type="int" >      100 </v>
  <v type="int" >      108 </v>
  <v type="int" >       76 </v>
  <v type="int" >      109 </v>
  <v type="int" >       59 </v>
  <v type="int" >       58 </v>
  <v type="int" >       47 </v>
  <v type="int" >       46 </v>
  <v type="int" >       31 </v>
  <v type="int" >       55 </v>
  <v type="int" >       42 </v>
  <v type="int" >       44 </v>
  <v type="int" >       39 </v>
  <v type="int" >       40 </v>
  <v type="int" >       27 </v>
  <v type="int" >       28 </v>
  <v type="int" >       86 </v>
  <v type="int" >       82 </v>
  <v type="int" >       85 </v>
  <v type="int" >       70 </v>
  <v type="int" >       64 </v>
  <v type="int" >       22 </v>
  <v type="int" >      106 </v>
  <v type="int" >      103 </v>
  <v type="int" >      107 </v>
  <v type="int" >       91 </v>
  <v type="int" >       43 </v>
 </varray>
 <kpoints>
  <generation param="Gamma">
   <v type="int" name="divisions">       2        2        2 </v>
   <v name="usershift">      0.00000000       0.00000000       0.00000000 </v>
   <v name="genvec1">      0.50000000       0.00000000       0.00000000 </v>
   <v name="genvec2">      0.00000000       0.50000000       0.00000000 </v>
   <v name="genvec3">      0.00000000       0.00000000       0.50000000 </v>
   <v name="shift">      0.00000000       0.00000000       0.00000000 </v>
  </generation>
  <varray name="kpointlist" >
   <v>       0.00000000       0.00000000       0.00000000 </v>
   <v>       0.50000000       0.00000000       0.00000000 </v>
   <v>       0.00000000       0.50000000       0.00000000 </v>
   <v>       0.50000000       0.50000000       0.00000000 </v>
   <v>       0.00000000       0.00000000       0.50000000 </v>
   <v>       0.50000000       0.00000000       0.50000000 </v>
   <v>       0.00000000       0.50000000       0.50000000 </v>
   <v>       0.50000000       0.50000000       0.50000000 </v>
  </varray>
  <varray name="weights" >
   <v>       0.12500000 </v>
   <v>       0.12500000 </v>
   <v>       0.12500000 </v>
   <v>       0.12500000 </v>
   <v>       0.12500000 </v>
   <v>       0.12500000 </v>
   <v>       0.12500000 </v>
   <v>       0.12500000 </v>
  </varray>
 </kpoints>
 <parameters>
  <separator name="general" >
   <i type="string" name="SYSTEM">potpaw_PBE@./ARUN.APL1ZEROSTATE</i>
   <i type="logical" name="LCOMPAT"> F  </i>
  </separator>
  <separator name="electronic" >
   <i type="string" name="PREC">accura</i>
   <i name="ENMAX">    500.00000000</i>
   <i name="ENAUG">    322.06900000</i>
   <i name="EDIFF">      0.00000001</i>
   <i type="int" name="IALGO">    38</i>
   <i type="int" name="IWAVPR">    10</i>
   <i type="int" name="NBANDS">   322</i>
   <i name="NELECT">    512.00000000</i>
   <i type="int" name="TURBO">     0</i>
   <i type="int" name="IRESTART">     0</i>
   <i type="int" name="NREBOOT">     0</i>
   <i type="int" name="NMIN">     0</i>
   <i name="EREF">      0.00000000</i>
   <separator name="electronic smearing" >
    <i type="int" name="ISMEAR">     0</i>
    <i name="SIGMA">      0.01000000</i>
    <i name="KSPACING">      0.50000000</i>
    <i type="logical" name="KGAMMA"> T  </i>
   </separator>
   <separator name="electronic projectors" >
    <i type="logical" name="LREAL"> F  </i>
    <v name="ROPT">      0.00000000</v>
    <i type="int" name="LMAXPAW">  -100</i>
    <i type="int" name="LMAXMIX">     2</i>
    <i type="logical" name="NLSPLINE"> F  </i>
   </separator>
   <separator name="electronic startup" >
    <i type="int" name="ISTART">     0</i>
    <i type="int" name="ICHARG">     2</i>
    <i type="int" name="INIWAV">     1</i>
   </separator>
   <separator name="electronic spin" >
    <i type="int" name="ISPIN">     1</i>
    <i type="logical" name="LNONCOLLINEAR"> F  </i>
    <v name="MAGMOM">      1.00000000      1.00000000      1.00000000      1.00000000      1.00000000      1.00000000      1.00000000      1.00000000      1.00000000      1.00000000      1.00000000      1.00000000      1.00000000      1.00000000      1.00000000      1.00000000      1.00000000      1.00000000      1.00000000      1.00000000
      1.00000000      1.00000000      1.00000000      1.00000000      1.00000000      1.00000000      1.00000000      1.00000000      1.00000000      1.00000000      1.00000000      1.00000000      1.00000000      1.00000000      1.00000000      1.00000000      1.00000000      1.00000000      1.00000000      1.00000000
      1.00000000      1.00000000      1.00000000      1.00000000      1.00000000      1.00000000      1.00000000      1.00000000      1.00000000      1.00000000      1.00000000      1.00000000      1.00000000      1.00000000      1.00000000      1.00000000      1.00000000      1.00000000      1.00000000      1.00000000
      1.00000000      1.00000000      1.00000000      1.00000000      1.00000000      1.00000000      1.00000000      1.00000000      1.00000000      1.00000000      1.00000000      1.00000000      1.00000000      1.00000000      1.00000000      1.00000000      1.00000000      1.00000000      1.00000000      1.00000000
      1.00000000      1.00000000      1.00000000      1.00000000      1.00000000      1.00000000      1.00000000      1.00000000      1.00000000      1.00000000      1.00000000      1.00000000      1.00000000      1.00000000      1.00000000      1.00000000      1.00000000      1.00000000      1.00000000      1.00000000
      1.00000000      1.00000000      1.00000000      1.00000000      1.00000000      1.00000000      1.00000000      1.00000000      1.00000000      1.00000000      1.00000000      1.00000000      1.00000000      1.00000000      1.00000000      1.00000000      1.00000000      1.00000000      1.00000000      1.00000000
      1.00000000      1.00000000      1.00000000      1.00000000      1.00000000      1.00000000      1.00000000      1.00000000</v>
    <i name="NUPDOWN">     -1.00000000</i>
    <i type="logical" name="LSORBIT"> F  </i>
    <v name="SAXIS">      0.00000000      0.00000000      1.00000000</v>
    <i type="logical" name="LSPIRAL"> F  </i>
    <v name="QSPIRAL">      0.00000000      0.00000000      0.00000000</v>
    <i type="logical" name="LZEROZ"> F  </i>
   </separator>
   <separator name="electronic exchange-correlation" >
    <i type="logical" name="LASPH"> F  </i>
    <i type="logical" name="LMETAGGA"> F  </i>
   </separator>
   <separator name="electronic convergence" >
    <i type="int" name="NELM">   120</i>
    <i type="int" name="NELMDL">    -5</i>
    <i type="int" name="NELMIN">     4</i>
    <i name="ENINI">    500.00000000</i>
    <separator name="electronic convergence detail" >
     <i type="logical" name="LDIAG"> T  </i>
     <i type="logical" name="LSUBROT"> F  </i>
     <i name="WEIMIN">      0.00000000</i>
     <i name="EBREAK">      0.00000000</i>
     <i name="DEPER">      0.30000000</i>
     <i type="int" name="NRMM">     4</i>
     <i name="TIME">      0.40000000</i>
    </separator>
   </separator>
   <separator name="electronic mixer" >
    <i name="AMIX">      0.40000000</i>
    <i name="BMIX">      1.00000000</i>
    <i name="AMIN">      0.10000000</i>
    <i name="AMIX_MAG">      1.60000000</i>
    <i name="BMIX_MAG">      1.00000000</i>
    <separator name="electronic mixer details" >
     <i type="int" name="IMIX">     4</i>
     <i type="logical" name="MIXFIRST"> F  </i>
     <i type="int" name="MAXMIX">   -45</i>
     <i name="WC">    100.00000000</i>
     <i type="int" name="INIMIX">     1</i>
     <i type="int" name="MIXPRE">     1</i>
     <i type="int" name="MREMOVE">     5</i>
    </separator>
   </separator>
   <separator name="electronic dipolcorrection" >
    <i type="logical" name="LDIPOL"> F  </i>
    <i type="logical" name="LMONO"> F  </i>
    <i type="int" name="IDIPOL">     0</i>
    <i name="EPSILON">      1.00000000</i>
    <v name="DIPOL">   -100.00000000   -100.00000000   -100.00000000</v>
    <i name="EFIELD">      0.00000000</i>
   </separator>
  </separator>
  <separator name="grids" >
   <i type="int" name="NGX">   120</i>
   <i type="int" name="NGY">   120</i>
   <i type="int" name="NGZ">   120</i>
   <i type="int" name="NGXF">   240</i>
   <i type="int" name="NGYF">   240</i>
   <i type="int" name="NGZF">   240</i>
   <i type="logical" name="ADDGRID"> T  </i>
  </separator>
  <separator name="ionic" >
   <i type="int" name="NSW">     0</i>
   <i type="int" name="IBRION">    -1</i>
   <i type="int" name="MDALGO">     0</i>
   <i type="int" name="ISIF">     2</i>
   <i name="PSTRESS">      0.00000000</i>
   <i name="EDIFFG">      0.00000010</i>
   <i type="int" name="NFREE">     0</i>
   <i name="POTIM">      0.50000000</i>
   <i name="SMASS">     -3.00000000</i>
   <i name="SCALEE">      1.00000000</i>
  </separator>
  <separator name="ionic md" >
   <i name="TEBEG">      0.00010000</i>
   <i name="TEEND">      0.00010000</i>
   <i type="int" name="NBLOCK">     1</i>
   <i type="int" name="KBLOCK">     1</i>
   <i type="int" name="NPACO">   256</i>
   <i name="APACO">     16.00000000</i>
  </separator>
  <separator name="symmetry" >
   <i type="int" name="ISYM">     2</i>
   <i name="SYMPREC">      0.00001000</i>
  </separator>
  <separator name="dos" >
   <i type="int" name="LORBIT">     0</i>
   <v name="RWIGS">     -1.00000000</v>
   <i type="int" name="NEDOS">   301</i>
   <i name="EMIN">     10.00000000</i>
   <i name="EMAX">    -10.00000000</i>
   <i name="EFERMI">      0.00000000</i>
  </separator>
  <separator name="writing" >
   <i type="int" name="NWRITE">     2</i>
   <i type="logical" name="LWAVE"> F  </i>
   <i type="logical" name="LDOWNSAMPLE"> F  </i>
   <i type="logical" name="LCHARG"> F  </i>
   <i type="logical" name="LPARD"> F  </i>
   <i type="logical" name="LVTOT"> F  </i>
   <i type="logical" name="LVHAR"> F  </i>
   <i type="logical" name="LELF"> F  </i>
   <i type="logical" name="LOPTICS"> F  </i>
   <v name="STM">      0.00000000      0.00000000      0.00000000      0.00000000      0.00000000      0.00000000      0.00000000</v>
  </separator>
  <separator name="performance" >
   <i type="int" name="NPAR">     2</i>
   <i type="int" name="NSIM">     4</i>
   <i type="int" name="NBLK">    -1</i>
   <i type="logical" name="LPLANE"> T  </i>
   <i type="logical" name="LSCALAPACK"> T  </i>
   <i type="logical" name="LSCAAWARE"> F  </i>
   <i type="logical" name="LSCALU"> F  </i>
   <i type="logical" name="LASYNC"> F  </i>
   <i type="logical" name="LORBITALREAL"> F  </i>
  </separator>
  <separator name="miscellaneous" >
   <i type="int" name="IDIOT">     3</i>
   <i type="int" name="ISPECIAL">     0</i>
   <i type="logical" name="LMUSIC"> F  </i>
   <v name="POMASS">     28.08500000</v>
   <v name="DARWINR">      0.00000000</v>
   <v name="DARWINV">      1.00000000</v>
   <i type="logical" name="LCORR"> T  </i>
  </separator>
  <i type="logical" name="GGA_COMPAT"> T  </i>
  <i type="logical" name="LBERRY"> F  </i>
  <i type="int" name="ICORELEVEL">     0</i>
  <i type="logical" name="LDAU"> F  </i>
  <i type="int" name="I_CONSTRAINED_M">     0</i>
  <separator name="electronic exchange-correlation" >
   <i type="string" name="GGA">--</i>
   <i type="int" name="VOSKOWN">     0</i>
   <i type="logical" name="LHFCALC"> F  </i>
   <i type="string" name="PRECFOCK"></i>
   <i type="logical" name="LSYMGRAD"> F  </i>
   <i type="logical" name="LHFONE"> F  </i>
   <i type="logical" name="LRHFCALC"> F  </i>
   <i type="logical" name="LTHOMAS"> F  </i>
   <i type="logical" name="LMODELHF"> F  </i>
   <i name="ENCUT4O">     -1.00000000</i>
   <i type="int" name="EXXOEP">     0</i>
   <i type="int" name="FOURORBIT">     0</i>
   <i name="AEXX">      0.00000000</i>
   <i name="HFALPHA">      0.00000000</i>
   <i name="MCALPHA">      0.00000000</i>
   <i name="ALDAX">      1.00000000</i>
   <i name="AGGAX">      1.00000000</i>
   <i name="ALDAC">      1.00000000</i>
   <i name="AGGAC">      1.00000000</i>
   <i type="int" name="NKREDX">     1</i>
   <i type="int" name="NKREDY">     1</i>
   <i type="int" name="NKREDZ">     1</i>
   <i type="logical" name="SHIFTRED"> F  </i>
   <i type="logical" name="ODDONLY"> F  </i>
   <i type="logical" name="EVENONLY"> F  </i>
   <i type="int" name="LMAXFOCK">     0</i>
   <i type="int" name="NMAXFOCKAE">     0</i>
   <i type="logical" name="LFOCKAEDFT"> F  </i>
   <i name="HFSCREEN">      0.00000000</i>
   <i name="HFSCREENC">      0.00000000</i>
   <i type="int" name="NBANDSGWLOW">     0</i>
  </separator>
  <separator name="vdW DFT" >
   <i type="logical" name="LUSE_VDW"> F  </i>
   <i name="Zab_VDW">     -0.84910000</i>
   <i name="PARAM1">      0.12340000</i>
   <i name="PARAM2">      1.00000000</i>
   <i name="PARAM3">      0.00000000</i>
  </separator>
  <separator name="model GW" >
   <i type="int" name="MODEL_GW">     0</i>
   <i name="MODEL_EPS0">     12.26607635</i>
   <i name="MODEL_ALPHA">      1.00000000</i>
  </separator>
  <separator name="linear response parameters" >
   <i type="logical" name="LEPSILON"> F  </i>
   <i type="logical" name="LRPA"> F  </i>
   <i type="logical" name="LNABLA"> F  </i>
   <i type="logical" name="LVEL"> F  </i>
   <i type="int" name="KINTER">     0</i>
   <i name="CSHIFT">      0.10000000</i>
   <i name="OMEGAMAX">     -1.00000000</i>
   <i name="DEG_THRESHOLD">      0.00200000</i>
   <i name="RTIME">     -0.10000000</i>
   <i name="WPLASMAI">      0.00000000</i>
   <v name="DFIELD">      0.00000000      0.00000000      0.00000000</v>
   <v name="WPLASMA">      0.00000000      0.00000000      0.00000000      0.00000000      0.00000000      0.00000000      0.00000000      0.00000000      0.00000000</v>
  </separator>
  <separator name="orbital magnetization" >
   <i type="logical" name="NUCIND"> F  </i>
   <v name="MAGPOS">      0.00000000      0.00000000      0.00000000</v>
   <i type="logical" name="LNICSALL"> T  </i>
   <i type="logical" name="ORBITALMAG"> F  </i>
   <i type="logical" name="LMAGBLOCH"> F  </i>
   <i type="logical" name="LCHIMAG"> F  </i>
   <i type="logical" name="LGAUGE"> T  </i>
   <i type="int" name="MAGATOM">     0</i>
   <v name="MAGDIPOL">      0.00000000      0.00000000      0.00000000</v>
   <v name="AVECCONST">      0.00000000      0.00000000      0.00000000</v>
  </separator>
  <separator name="response functions" >
   <i type="logical" name="LADDER"> F  </i>
   <i type="logical" name="LRPAFORCE"> F  </i>
   <i type="logical" name="LFXC"> F  </i>
   <i type="logical" name="LHARTREE"> T  </i>
   <i type="int" name="IBSE">     0</i>
   <v type="int" name="KPOINT">    -1     0     0     0</v>
   <i type="logical" name="LTCTE"> F  </i>
   <i type="logical" name="LTETE"> F  </i>
   <i type="logical" name="LTRIPLET"> F  </i>
   <i type="logical" name="LFXCEPS"> F  </i>
   <i type="logical" name="LFXHEG"> F  </i>
   <i type="int" name="NATURALO">     2</i>
   <i type="logical" name="L2ORDER"> F  </i>
   <i type="logical" name="LMP2LT"> F  </i>
   <i type="logical" name="LUSEW"> F  </i>
   <i name="ENCUTGW">     -2.00000000</i>
   <i name="ENCUTGWSOFT">     -2.00000000</i>
   <i name="ENCUTLF">     -1.00000000</i>
   <i type="int" name="LMAXMP2">    -1</i>
   <i name="SCISSOR">      0.00000000</i>
   <i type="int" name="NOMEGA">     0</i>
   <i type="int" name="NOMEGAR">     0</i>
   <i type="int" name="NBANDSGW">    -1</i>
   <i type="int" name="NBANDSO">    -1</i>
   <i type="int" name="NBANDSV">    -1</i>
   <i type="int" name="NELM">   120</i>
   <i type="int" name="NELMHF">     1</i>
   <i type="int" name="DIM">     3</i>
   <i type="int" name="ANTIRES">     0</i>
   <i name="OMEGAMAX">    -30.00000000</i>
   <i name="OMEGAMIN">    -30.00000000</i>
   <i name="OMEGATL">   -200.00000000</i>
   <i type="int" name="OMEGAGRID">   140</i>
   <i name="CSHIFT">     -0.10000000</i>
   <i type="logical" name="SELFENERGY"> F  </i>
   <i type="logical" name="LSPECTRAL"> F  </i>
   <i type="logical" name="LSPECTRALGW"> F  </i>
   <i type="logical" name="LSINGLES"> F  </i>
   <i type="logical" name="LFERMIGW"> F  </i>
   <i type="logical" name="ODDONLYGW"> F  </i>
   <i type="logical" name="EVENONLYGW"> F  </i>
   <i type="int" name="NKREDLFX">     1</i>
   <i type="int" name="NKREDLFY">     1</i>
   <i type="int" name="NKREDLFZ">     1</i>
   <i type="int" name="MAXMEM">  2800</i>
   <i type="int" name="TELESCOPE">     0</i>
   <i type="int" name="TAUPAR">     1</i>
   <i type="int" name="OMEGAPAR">    -1</i>
   <i name="LAMBDA">      1.00000000</i>
  </separator>
  <separator name="External order field" >
   <i name="OFIELD_KAPPA">      0.00000000</i>
   <v name="OFIELD_K">      0.00000000      0.00000000      0.00000000</v>
   <i name="OFIELD_Q6_NEAR">      0.00000000</i>
   <i name="OFIELD_Q6_FAR">      0.00000000</i>
   <i name="OFIELD_A">      0.00000000</i>
  </separator>
 </parameters>
 <atominfo>
  <atoms>     128 </atoms>
  <types>       1 </types>
  <array name="atoms" >
   <dimension dim="1">ion</dimension>
   <field type="string">element</field>
   <field type="int">atomtype</field>
   <set>
    <rc><c>Si</c><c>   1</c></rc>
    <rc><c>Si</c><c>   1</c></rc>
    <rc><c>Si</c><c>   1</c></rc>
    <rc><c>Si</c><c>   1</c></rc>
    <rc><c>Si</c><c>   1</c></rc>
    <rc><c>Si</c><c>   1</c></rc>
    <rc><c>Si</c><c>   1</c></rc>
    <rc><c>Si</c><c>   1</c></rc>
    <rc><c>Si</c><c>   1</c></rc>
    <rc><c>Si</c><c>   1</c></rc>
    <rc><c>Si</c><c>   1</c></rc>
    <rc><c>Si</c><c>   1</c></rc>
    <rc><c>Si</c><c>   1</c></rc>
    <rc><c>Si</c><c>   1</c></rc>
    <rc><c>Si</c><c>   1</c></rc>
    <rc><c>Si</c><c>   1</c></rc>
    <rc><c>Si</c><c>   1</c></rc>
    <rc><c>Si</c><c>   1</c></rc>
    <rc><c>Si</c><c>   1</c></rc>
    <rc><c>Si</c><c>   1</c></rc>
    <rc><c>Si</c><c>   1</c></rc>
    <rc><c>Si</c><c>   1</c></rc>
    <rc><c>Si</c><c>   1</c></rc>
    <rc><c>Si</c><c>   1</c></rc>
    <rc><c>Si</c><c>   1</c></rc>
    <rc><c>Si</c><c>   1</c></rc>
    <rc><c>Si</c><c>   1</c></rc>
    <rc><c>Si</c><c>   1</c></rc>
    <rc><c>Si</c><c>   1</c></rc>
    <rc><c>Si</c><c>   1</c></rc>
    <rc><c>Si</c><c>   1</c></rc>
    <rc><c>Si</c><c>   1</c></rc>
    <rc><c>Si</c><c>   1</c></rc>
    <rc><c>Si</c><c>   1</c></rc>
    <rc><c>Si</c><c>   1</c></rc>
    <rc><c>Si</c><c>   1</c></rc>
    <rc><c>Si</c><c>   1</c></rc>
    <rc><c>Si</c><c>   1</c></rc>
    <rc><c>Si</c><c>   1</c></rc>
    <rc><c>Si</c><c>   1</c></rc>
    <rc><c>Si</c><c>   1</c></rc>
    <rc><c>Si</c><c>   1</c></rc>
    <rc><c>Si</c><c>   1</c></rc>
    <rc><c>Si</c><c>   1</c></rc>
    <rc><c>Si</c><c>   1</c></rc>
    <rc><c>Si</c><c>   1</c></rc>
    <rc><c>Si</c><c>   1</c></rc>
    <rc><c>Si</c><c>   1</c></rc>
    <rc><c>Si</c><c>   1</c></rc>
    <rc><c>Si</c><c>   1</c></rc>
    <rc><c>Si</c><c>   1</c></rc>
    <rc><c>Si</c><c>   1</c></rc>
    <rc><c>Si</c><c>   1</c></rc>
    <rc><c>Si</c><c>   1</c></rc>
    <rc><c>Si</c><c>   1</c></rc>
    <rc><c>Si</c><c>   1</c></rc>
    <rc><c>Si</c><c>   1</c></rc>
    <rc><c>Si</c><c>   1</c></rc>
    <rc><c>Si</c><c>   1</c></rc>
    <rc><c>Si</c><c>   1</c></rc>
    <rc><c>Si</c><c>   1</c></rc>
    <rc><c>Si</c><c>   1</c></rc>
    <rc><c>Si</c><c>   1</c></rc>
    <rc><c>Si</c><c>   1</c></rc>
    <rc><c>Si</c><c>   1</c></rc>
    <rc><c>Si</c><c>   1</c></rc>
    <rc><c>Si</c><c>   1</c></rc>
    <rc><c>Si</c><c>   1</c></rc>
    <rc><c>Si</c><c>   1</c></rc>
    <rc><c>Si</c><c>   1</c></rc>
    <rc><c>Si</c><c>   1</c></rc>
    <rc><c>Si</c><c>   1</c></rc>
    <rc><c>Si</c><c>   1</c></rc>
    <rc><c>Si</c><c>   1</c></rc>
    <rc><c>Si</c><c>   1</c></rc>
    <rc><c>Si</c><c>   1</c></rc>
    <rc><c>Si</c><c>   1</c></rc>
    <rc><c>Si</c><c>   1</c></rc>
    <rc><c>Si</c><c>   1</c></rc>
    <rc><c>Si</c><c>   1</c></rc>
    <rc><c>Si</c><c>   1</c></rc>
    <rc><c>Si</c><c>   1</c></rc>
    <rc><c>Si</c><c>   1</c></rc>
    <rc><c>Si</c><c>   1</c></rc>
    <rc><c>Si</c><c>   1</c></rc>
    <rc><c>Si</c><c>   1</c></rc>
    <rc><c>Si</c><c>   1</c></rc>
    <rc><c>Si</c><c>   1</c></rc>
    <rc><c>Si</c><c>   1</c></rc>
    <rc><c>Si</c><c>   1</c></rc>
    <rc><c>Si</c><c>   1</c></rc>
    <rc><c>Si</c><c>   1</c></rc>
    <rc><c>Si</c><c>   1</c></rc>
    <rc><c>Si</c><c>   1</c></rc>
    <rc><c>Si</c><c>   1</c></rc>
    <rc><c>Si</c><c>   1</c></rc>
    <rc><c>Si</c><c>   1</c></rc>
    <rc><c>Si</c><c>   1</c></rc>
    <rc><c>Si</c><c>   1</c></rc>
    <rc><c>Si</c><c>   1</c></rc>
    <rc><c>Si</c><c>   1</c></rc>
    <rc><c>Si</c><c>   1</c></rc>
    <rc><c>Si</c><c>   1</c></rc>
    <rc><c>Si</c><c>   1</c></rc>
    <rc><c>Si</c><c>   1</c></rc>
    <rc><c>Si</c><c>   1</c></rc>
    <rc><c>Si</c><c>   1</c></rc>
    <rc><c>Si</c><c>   1</c></rc>
    <rc><c>Si</c><c>   1</c></rc>
    <rc><c>Si</c><c>   1</c></rc>
    <rc><c>Si</c><c>   1</c></rc>
    <rc><c>Si</c><c>   1</c></rc>
    <rc><c>Si</c><c>   1</c></rc>
    <rc><c>Si</c><c>   1</c></rc>
    <rc><c>Si</c><c>   1</c></rc>
    <rc><c>Si</c><c>   1</c></rc>
    <rc><c>Si</c><c>   1</c></rc>
    <rc><c>Si</c><c>   1</c></rc>
    <rc><c>Si</c><c>   1</c></rc>
    <rc><c>Si</c><c>   1</c></rc>
    <rc><c>Si</c><c>   1</c></rc>
    <rc><c>Si</c><c>   1</c></rc>
    <rc><c>Si</c><c>   1</c></rc>
    <rc><c>Si</c><c>   1</c></rc>
    <rc><c>Si</c><c>   1</c></rc>
    <rc><c>Si</c><c>   1</c></rc>
    <rc><c>Si</c><c>   1</c></rc>
    <rc><c>Si</c><c>   1</c></rc>
   </set>
  </array>
  <array name="atomtypes" >
   <dimension dim="1">type</dimension>
   <field type="int">atomspertype</field>
   <field type="string">element</field>
   <field>mass</field>
   <field>valence</field>
   <field type="string">pseudopotential</field>
   <set>
    <rc><c> 128</c><c>Si</c><c>     28.08500000</c><c>      4.00000000</c><c> PAW_PBE Si 05Jan2001                   </c></rc>
   </set>
  </array>
 </atominfo>
 <structure name="initialpos" >
  <crystal>
   <varray name="basis" >
    <v>       0.00000000      10.93733369      10.93733369 </v>
    <v>      10.93733369       0.00000000      10.93733369 </v>
    <v>      10.93733369      10.93733369       0.00000000 </v>
   </varray>
   <i name="volume">   2616.76295363 </i>
   <varray name="rec_basis" >
    <v>      -0.04571498       0.04571498       0.04571498 </v>
    <v>       0.04571498      -0.04571498       0.04571498 </v>
    <v>       0.04571498       0.04571498      -0.04571498 </v>
   </varray>
  </crystal>
  <varray name="positions" >
   <v>       0.00785913       0.99841828       0.99533721 </v>
   <v>       0.25760595       0.98997488       0.99406064 </v>
   <v>       0.50338106       0.99600366       0.00576920 </v>
   <v>       0.75695123       0.00329080       0.99511230 </v>
   <v>       0.99467268       0.25334533       0.00333227 </v>
   <v>       0.24861600       0.24208973       0.99603056 </v>
   <v>       0.50255152       0.24915477       0.99818741 </v>
   <v>       0.74919658       0.25135995       0.00569988 </v>
   <v>       0.00853533       0.50499829       0.99105440 </v>
   <v>       0.24762469       0.50419286       0.99315006 </v>
   <v>       0.50075137       0.49763189       0.00130981 </v>
   <v>       0.75626908       0.50172206       0.99463622 </v>
   <v>       0.00783269       0.74577175       0.00348390 </v>
   <v>       0.25139555       0.75454872       0.99456676 </v>
   <v>       0.50622813       0.75455972       0.99009809 </v>
   <v>       0.74829938       0.75726392       0.99044078 </v>
   <v>       0.00999857       0.99693644       0.24484854 </v>
   <v>       0.25822641       0.98702969       0.25284021 </v>
   <v>       0.51149137       0.99458484       0.24766121 </v>
   <v>       0.75164482       0.99313664       0.24609779 </v>
   <v>       0.00670599       0.26493463       0.23712919 </v>
   <v>       0.26138218       0.25095861       0.24607578 </v>
   <v>       0.49692185       0.24552751       0.25134721 </v>
   <v>       0.76620110       0.24653063       0.25218631 </v>
   <v>       0.99945694       0.49906718       0.24490662 </v>
   <v>       0.25259432       0.50236824       0.24133479 </v>
   <v>       0.50587231       0.49457711       0.24983161 </v>
   <v>       0.74629788       0.49665092       0.25203145 </v>
   <v>       0.99444719       0.74959511       0.25475814 </v>
   <v>       0.23420898       0.75689471       0.25007901 </v>
   <v>       0.49903400       0.74953233       0.25004290 </v>
   <v>       0.74701155       0.75001208       0.24366610 </v>
   <v>       0.99549137       0.00405781       0.50012497 </v>
   <v>       0.24506799       0.00033866       0.51042597 </v>
   <v>       0.49616640       0.00755905       0.50415948 </v>
   <v>       0.74951910       0.99670144       0.50601449 </v>
   <v>       0.00142951       0.24476335       0.49120024 </v>
   <v>       0.24566540       0.25017233       0.50153289 </v>
   <v>       0.50251269       0.25230721       0.49593421 </v>
   <v>       0.74672553       0.25600954       0.50397800 </v>
   <v>       0.99477253       0.50765866       0.49705210 </v>
   <v>       0.25589162       0.50023478       0.49420148 </v>
   <v>       0.49450998       0.50187766       0.49771310 </v>
   <v>       0.75722877       0.50150108       0.49986745 </v>
   <v>       0.99462624       0.74841814       0.50246130 </v>
   <v>       0.25609564       0.76418032       0.48911072 </v>
   <v>       0.49880613       0.74103267       0.50479306 </v>
   <v>       0.75441693       0.74132042       0.50221469 </v>
   <v>       0.99527478       0.00354821       0.74647758 </v>
   <v>       0.24232249       0.00138658       0.75922370 </v>
   <v>       0.50192838       0.99419877       0.76237639 </v>
   <v>       0.74877401       0.00286981       0.74095626 </v>
   <v>       0.99947425       0.24335664       0.75089051 </v>
   <v>       0.24561393       0.25696553       0.75306836 </v>
   <v>       0.50570914       0.24820805       0.74226039 </v>
   <v>       0.75592502       0.25070652       0.75011873 </v>
   <v>       0.00002185       0.50505619       0.74146010 </v>
   <v>       0.24128609       0.50110173       0.75344563 </v>
   <v>       0.49627385       0.50551426       0.74747027 </v>
   <v>       0.74252910       0.50776108       0.74203516 </v>
   <v>       0.99763297       0.74694650       0.75660512 </v>
   <v>       0.25493404       0.75764097       0.74440736 </v>
   <v>       0.50041114       0.75413657       0.76321655 </v>
   <v>       0.74783191       0.75061973       0.75714075 </v>
   <v>       0.06154818       0.06756399       0.07046985 </v>
   <v>       0.29955299       0.06013574       0.06879966 </v>
   <v>       0.58021584       0.05649287       0.05753281 </v>
   <v>       0.81910514       0.05345650       0.05941993 </v>
   <v>       0.05639968       0.30752287       0.06506691 </v>
   <v>       0.32314746       0.31140507       0.05669268 </v>
   <v>       0.57109188       0.30416958       0.06183663 </v>
   <v>       0.81631776       0.30163258       0.07039233 </v>
   <v>       0.06710095       0.56038397       0.05252073 </v>
   <v>       0.31000432       0.55498402       0.06732885 </v>
   <v>       0.56018456       0.56918232       0.06121258 </v>
   <v>       0.81054427       0.56211730       0.06204688 </v>
   <v>       0.06098781       0.82202908       0.06165737 </v>
   <v>       0.30308306       0.81169450       0.06555412 </v>
   <v>       0.56229890       0.81219178       0.07095545 </v>
   <v>       0.82058498       0.81355817       0.06252292 </v>
   <v>       0.05767831       0.05592427       0.31750655 </v>
   <v>       0.31908247       0.05786717       0.31749713 </v>
   <v>       0.56463000       0.05610641       0.30911366 </v>
   <v>       0.81205563       0.06217847       0.32465871 </v>
   <v>       0.07161315       0.31482618       0.30274886 </v>
   <v>       0.30477665       0.30809576       0.32478204 </v>
   <v>       0.56335969       0.30823299       0.31401601 </v>
   <v>       0.80900140       0.31893746       0.31660491 </v>
   <v>       0.05234931       0.57327004       0.30672337 </v>
   <v>       0.32432088       0.55734420       0.30572588 </v>
   <v>       0.56483886       0.56341133       0.32257564 </v>
   <v>       0.81067199       0.56213816       0.31672938 </v>
   <v>       0.06311938       0.82010107       0.31286959 </v>
   <v>       0.30941922       0.81353251       0.31017607 </v>
   <v>       0.56931694       0.80962927       0.30896136 </v>
   <v>       0.81282996       0.80454582       0.32429950 </v>
   <v>       0.06524516       0.06428001       0.56105938 </v>
   <v>       0.31684710       0.06710357       0.56938096 </v>
   <v>       0.55578250       0.06914936       0.56136026 </v>
   <v>       0.80613348       0.07018676       0.55618676 </v>
   <v>       0.06787004       0.29822709       0.56317306 </v>
   <v>       0.31446527       0.31804146       0.55860025 </v>
   <v>       0.56849425       0.30325295       0.55905069 </v>
   <v>       0.81304629       0.31164999       0.55061781 </v>
   <v>       0.07196928       0.55193565       0.57077892 </v>
   <v>       0.30878444       0.56142539       0.55435591 </v>
   <v>       0.56377892       0.56229561       0.55989331 </v>
   <v>       0.81452714       0.56888514       0.56390406 </v>
   <v>       0.06093869       0.80494344       0.56570964 </v>
   <v>       0.30134485       0.81865979       0.56571689 </v>
   <v>       0.56421273       0.81045446       0.55762651 </v>
   <v>       0.81447136       0.80225842       0.56468637 </v>
   <v>       0.05816891       0.06604099       0.80679513 </v>
   <v>       0.32628183       0.05659881       0.80526609 </v>
   <v>       0.57286444       0.05191624       0.80769449 </v>
   <v>       0.80765447       0.06185352       0.80547808 </v>
   <v>       0.07089315       0.31728909       0.80272485 </v>
   <v>       0.32002185       0.31393982       0.81965155 </v>
   <v>       0.55963295       0.29864166       0.82780749 </v>
   <v>       0.80551299       0.31349182       0.81564295 </v>
   <v>       0.07075960       0.55347117       0.81611673 </v>
   <v>       0.31823749       0.55699995       0.81361188 </v>
   <v>       0.56330857       0.56296604       0.80857100 </v>
   <v>       0.80937765       0.56757439       0.81003832 </v>
   <v>       0.07388031       0.80361289       0.80672926 </v>
   <v>       0.31197849       0.80886728       0.81584215 </v>
   <v>       0.55753944       0.82189446       0.80906833 </v>
   <v>       0.80626785       0.81565963       0.81099639 </v>
  </varray>
 </structure>
 <calculation>
  <scstep>
   <time name="dav">   69.63   69.65</time>
   <time name="total">   70.62   70.66</time>
   <energy>
    <i name="alphaZ">    210.77028614 </i>
    <i name="ewald"> -14472.01481214 </i>
    <i name="hartreedc">   -754.15642826 </i>
    <i name="XCdc">  -1195.25598967 </i>
    <i name="pawpsdc">   4221.13331941 </i>
    <i name="pawaedc">  -1969.18571412 </i>
    <i name="eentropy">     -0.00060474 </i>
    <i name="bandstr">   2150.38034262 </i>
    <i name="atom">  13192.48085998 </i>
    <i name="e_fr_energy">   1384.15125923 </i>
    <i name="e_wo_entrp">   1384.15186397 </i>
    <i name="e_0_energy">   1384.15156160 </i>
   </energy>
  </scstep>
  <scstep>
   <time name="dav">   79.12   79.15</time>
   <time name="total">   79.12   79.15</time>
   <energy>
    <i name="e_fr_energy">   -537.46229419 </i>
    <i name="e_wo_entrp">   -537.46229419 </i>
    <i name="e_0_energy">   -537.46229419 </i>
   </energy>
  </scstep>
  <scstep>
   <time name="dav">   80.70   80.73</time>
   <time name="total">   80.70   80.73</time>
   <energy>
    <i name="e_fr_energy">   -687.34334727 </i>
    <i name="e_wo_entrp">   -687.34334727 </i>
    <i name="e_0_energy">   -687.34334727 </i>
   </energy>
  </scstep>
  <scstep>
   <time name="dav">   80.01   80.04</time>
   <time name="total">   80.01   80.05</time>
   <energy>
    <i name="e_fr_energy">   -691.65091544 </i>
    <i name="e_wo_entrp">   -691.65091544 </i>
    <i name="e_0_energy">   -691.65091544 </i>
   </energy>
  </scstep>
  <scstep>
   <time name="dav">   81.37   81.41</time>
   <time name="total">   84.61   84.65</time>
   <energy>
    <i name="e_fr_energy">   -691.80324673 </i>
    <i name="e_wo_entrp">   -691.80324673 </i>
    <i name="e_0_energy">   -691.80324673 </i>
   </energy>
  </scstep>
  <scstep>
   <time name="dav">   76.73   76.77</time>
   <time name="total">   81.01   81.05</time>
   <energy>
    <i name="e_fr_energy">   -683.34715766 </i>
    <i name="e_wo_entrp">   -683.34715766 </i>
    <i name="e_0_energy">   -683.34715766 </i>
   </energy>
  </scstep>
  <scstep>
   <time name="dav">   76.04   76.07</time>
   <time name="total">   80.26   80.30</time>
   <energy>
    <i name="e_fr_energy">   -679.80940855 </i>
    <i name="e_wo_entrp">   -679.80940855 </i>
    <i name="e_0_energy">   -679.80940855 </i>
   </energy>
  </scstep>
  <scstep>
   <time name="dav">   76.02   76.06</time>
   <time name="total">   80.24   80.29</time>
   <energy>
    <i name="e_fr_energy">   -679.86646856 </i>
    <i name="e_wo_entrp">   -679.86646856 </i>
    <i name="e_0_energy">   -679.86646856 </i>
   </energy>
  </scstep>
  <scstep>
   <time name="dav">   78.60   78.63</time>
   <time name="total">   82.80   82.83</time>
   <energy>
    <i name="e_fr_energy">   -679.88830174 </i>
    <i name="e_wo_entrp">   -679.88830174 </i>
    <i name="e_0_energy">   -679.88830174 </i>
   </energy>
  </scstep>
  <scstep>
   <time name="dav">   77.40   77.43</time>
   <time name="total">   81.61   81.64</time>
   <energy>
    <i name="e_fr_energy">   -679.89086354 </i>
    <i name="e_wo_entrp">   -679.89086354 </i>
    <i name="e_0_energy">   -679.89086354 </i>
   </energy>
  </scstep>
  <scstep>
   <time name="dav">   75.96   76.01</time>
   <time name="total">   80.18   80.24</time>
   <energy>
    <i name="e_fr_energy">   -679.89231847 </i>
    <i name="e_wo_entrp">   -679.89231847 </i>
    <i name="e_0_energy">   -679.89231847 </i>
   </energy>
  </scstep>
  <scstep>
   <time name="dav">   78.72   78.74</time>
   <time name="total">   82.96   82.99</time>
   <energy>
    <i name="e_fr_energy">   -679.89237236 </i>
    <i name="e_wo_entrp">   -679.89237236 </i>
    <i name="e_0_energy">   -679.89237236 </i>
   </energy>
  </scstep>
  <scstep>
   <time name="dav">   75.68   75.71</time>
   <time name="total">   79.88   79.92</time>
   <energy>
    <i name="e_fr_energy">   -679.89240107 </i>
    <i name="e_wo_entrp">   -679.89240107 </i>
    <i name="e_0_energy">   -679.89240107 </i>
   </energy>
  </scstep>
  <scstep>
   <time name="dav">   79.22   79.26</time>
   <time name="total">   83.35   83.39</time>
   <energy>
    <i name="e_fr_energy">   -679.89240412 </i>
    <i name="e_wo_entrp">   -679.89240412 </i>
    <i name="e_0_energy">   -679.89240412 </i>
   </energy>
  </scstep>
  <scstep>
   <time name="dav">   78.04   78.07</time>
   <time name="total">   82.19   82.23</time>
   <energy>
    <i name="e_fr_energy">   -679.89240808 </i>
    <i name="e_wo_entrp">   -679.89240808 </i>
    <i name="e_0_energy">   -679.89240808 </i>
   </energy>
  </scstep>
  <scstep>
   <time name="dav">   78.41   78.45</time>
   <time name="total">   82.56   82.61</time>
   <energy>
    <i name="e_fr_energy">   -679.89240766 </i>
    <i name="e_wo_entrp">   -679.89240766 </i>
    <i name="e_0_energy">   -679.89240766 </i>
   </energy>
  </scstep>
  <scstep>
   <time name="dav">   62.53   62.55</time>
   <time name="total">   66.69   66.72</time>
   <energy>
    <i name="e_fr_energy">   -679.89240743 </i>
    <i name="e_wo_entrp">   -679.89240743 </i>
    <i name="e_0_energy">   -679.89240743 </i>
   </energy>
  </scstep>
  <scstep>
   <time name="dav">   51.13   51.16</time>
   <time name="total">   55.27   55.30</time>
   <energy>
    <i name="e_fr_energy">   -679.89240760 </i>
    <i name="e_wo_entrp">   -679.89240760 </i>
    <i name="e_0_energy">   -679.89240760 </i>
   </energy>
  </scstep>
  <scstep>
   <time name="dav">   49.95   49.98</time>
   <time name="total">   54.11   54.14</time>
   <energy>
    <i name="e_fr_energy">   -679.89240755 </i>
    <i name="e_wo_entrp">   -679.89240755 </i>
    <i name="e_0_energy">   -679.89240755 </i>
   </energy>
  </scstep>
  <scstep>
   <time name="dav">   50.10   50.11</time>
   <time name="total">   54.25   54.27</time>
   <energy>
    <i name="e_fr_energy">   -679.89240756 </i>
    <i name="e_wo_entrp">   -679.89240756 </i>
    <i name="e_0_energy">   -679.89240756 </i>
   </energy>
  </scstep>
  <scstep>
   <time name="dav">   49.84   49.86</time>
   <time name="total">   50.83   50.86</time>
   <energy>
    <i name="alphaZ">    210.77028614 </i>
    <i name="ewald"> -14472.01481214 </i>
    <i name="hartreedc">  -1000.77252084 </i>
    <i name="XCdc">  -1155.57224948 </i>
    <i name="pawpsdc">   4733.54225455 </i>
    <i name="pawaedc">  -2495.34657265 </i>
    <i name="eentropy">     -0.00000000 </i>
    <i name="bandstr">    307.02034686 </i>
    <i name="atom">  13192.48085998 </i>
    <i name="e_fr_energy">   -679.89240756 </i>
    <i name="e_wo_entrp">   -679.89240756 </i>
    <i name="e_0_energy">   -679.89240756 </i>
   </energy>
  </scstep>
  <structure>
   <crystal>
    <varray name="basis" >
     <v>       0.00000000      10.93733369      10.93733369 </v>
     <v>      10.93733369       0.00000000      10.93733369 </v>
     <v>      10.93733369      10.93733369       0.00000000 </v>
    </varray>
    <i name="volume">   2616.76295363 </i>
    <varray name="rec_basis" >
     <v>      -0.04571498       0.04571498       0.04571498 </v>
     <v>       0.04571498      -0.04571498       0.04571498 </v>
     <v>       0.04571498       0.04571498      -0.04571498 </v>
    </varray>
   </crystal>
   <varray name="positions" >
    <v>       0.00785913       0.99841828       0.99533721 </v>
    <v>       0.25760595       0.98997488       0.99406064 </v>
    <v>       0.50338106       0.99600366       0.00576920 </v>
    <v>       0.75695123       0.00329080       0.99511230 </v>
    <v>       0.99467268       0.25334533       0.00333227 </v>
    <v>       0.24861600       0.24208973       0.99603056 </v>
    <v>       0.50255152       0.24915477       0.99818741 </v>
    <v>       0.74919658       0.25135995       0.00569988 </v>
    <v>       0.00853533       0.50499829       0.99105440 </v>
    <v>       0.24762469       0.50419286       0.99315006 </v>
    <v>       0.50075137       0.49763189       0.00130981 </v>
    <v>       0.75626908       0.50172206       0.99463622 </v>
    <v>       0.00783269       0.74577175       0.00348390 </v>
    <v>       0.25139555       0.75454872       0.99456676 </v>
    <v>       0.50622813       0.75455972       0.99009809 </v>
    <v>       0.74829938       0.75726392       0.99044078 </v>
    <v>       0.00999857       0.99693644       0.24484854 </v>
    <v>       0.25822641       0.98702969       0.25284021 </v>
    <v>       0.51149137       0.99458484       0.24766121 </v>
    <v>       0.75164482       0.99313664       0.24609779 </v>
    <v>       0.00670599       0.26493463       0.23712919 </v>
    <v>       0.26138218       0.25095861       0.24607578 </v>
    <v>       0.49692185       0.24552751       0.25134721 </v>
    <v>       0.76620110       0.24653063       0.25218631 </v>
    <v>       0.99945694       0.49906718       0.24490662 </v>
    <v>       0.25259432       0.50236824       0.24133479 </v>
    <v>       0.50587231       0.49457711       0.24983161 </v>
    <v>       0.74629788       0.49665092       0.25203145 </v>
    <v>       0.99444719       0.74959511       0.25475814 </v>
    <v>       0.23420898       0.75689471       0.25007901 </v>
    <v>       0.49903400       0.74953233       0.25004290 </v>
    <v>       0.74701155       0.75001208       0.24366610 </v>
    <v>       0.99549137       0.00405781       0.50012497 </v>
    <v>       0.24506799       0.00033866       0.51042597 </v>
    <v>       0.49616640       0.00755905       0.50415948 </v>
    <v>       0.74951910       0.99670144       0.50601449 </v>
    <v>       0.00142951       0.24476335       0.49120024 </v>
    <v>       0.24566540       0.25017233       0.50153289 </v>
    <v>       0.50251269       0.25230721       0.49593421 </v>
    <v>       0.74672553       0.25600954       0.50397800 </v>
    <v>       0.99477253       0.50765866       0.49705210 </v>
    <v>       0.25589162       0.50023478       0.49420148 </v>
    <v>       0.49450998       0.50187766       0.49771310 </v>
    <v>       0.75722877       0.50150108       0.49986745 </v>
    <v>       0.99462624       0.74841814       0.50246130 </v>
    <v>       0.25609564       0.76418032       0.48911072 </v>
    <v>       0.49880613       0.74103267       0.50479306 </v>
    <v>       0.75441693       0.74132042       0.50221469 </v>
    <v>       0.99527478       0.00354821       0.74647758 </v>
    <v>       0.24232249       0.00138658       0.75922370 </v>
    <v>       0.50192838       0.99419877       0.76237639 </v>
    <v>       0.74877401       0.00286981       0.74095626 </v>
    <v>       0.99947425       0.24335664       0.75089051 </v>
    <v>       0.24561393       0.25696553       0.75306836 </v>
    <v>       0.50570914       0.24820805       0.74226039 </v>
    <v>       0.75592502       0.25070652       0.75011873 </v>
    <v>       0.00002185       0.50505619       0.74146010 </v>
    <v>       0.24128609       0.50110173       0.75344563 </v>
    <v>       0.49627385       0.50551426       0.74747027 </v>
    <v>       0.74252910       0.50776108       0.74203516 </v>
    <v>       0.99763297       0.74694650       0.75660512 </v>
    <v>       0.25493404       0.75764097       0.74440736 </v>
    <v>       0.50041114       0.75413657       0.76321655 </v>
    <v>       0.74783191       0.75061973       0.75714075 </v>
    <v>       0.06154818       0.06756399       0.07046985 </v>
    <v>       0.29955299       0.06013574       0.06879966 </v>
    <v>       0.58021584       0.05649287       0.05753281 </v>
    <v>       0.81910514       0.05345650       0.05941993 </v>
    <v>       0.05639968       0.30752287       0.06506691 </v>
    <v>       0.32314746       0.31140507       0.05669268 </v>
    <v>       0.57109188       0.30416958       0.06183663 </v>
    <v>       0.81631776       0.30163258       0.07039233 </v>
    <v>       0.06710095       0.56038397       0.05252073 </v>
    <v>       0.31000432       0.55498402       0.06732885 </v>
    <v>       0.56018456       0.56918232       0.06121258 </v>
    <v>       0.81054427       0.56211730       0.06204688 </v>
    <v>       0.06098781       0.82202908       0.06165737 </v>
    <v>       0.30308306       0.81169450       0.06555412 </v>
    <v>       0.56229890       0.81219178       0.07095545 </v>
    <v>       0.82058498       0.81355817       0.06252292 </v>
    <v>       0.05767831       0.05592427       0.31750655 </v>
    <v>       0.31908247       0.05786717       0.31749713 </v>
    <v>       0.56463000       0.05610641       0.30911366 </v>
    <v>       0.81205563       0.06217847       0.32465871 </v>
    <v>       0.07161315       0.31482618       0.30274886 </v>
    <v>       0.30477665       0.30809576       0.32478204 </v>
    <v>       0.56335969       0.30823299       0.31401601 </v>
    <v>       0.80900140       0.31893746       0.31660491 </v>
    <v>       0.05234931       0.57327004       0.30672337 </v>
    <v>       0.32432088       0.55734420       0.30572588 </v>
    <v>       0.56483886       0.56341133       0.32257564 </v>
    <v>       0.81067199       0.56213816       0.31672938 </v>
    <v>       0.06311938       0.82010107       0.31286959 </v>
    <v>       0.30941922       0.81353251       0.31017607 </v>
    <v>       0.56931694       0.80962927       0.30896136 </v>
    <v>       0.81282996       0.80454582       0.32429950 </v>
    <v>       0.06524516       0.06428001       0.56105938 </v>
    <v>       0.31684710       0.06710357       0.56938096 </v>
    <v>       0.55578250       0.06914936       0.56136026 </v>
    <v>       0.80613348       0.07018676       0.55618676 </v>
    <v>       0.06787004       0.29822709       0.56317306 </v>
    <v>       0.31446527       0.31804146       0.55860025 </v>
    <v>       0.56849425       0.30325295       0.55905069 </v>
    <v>       0.81304629       0.31164999       0.55061781 </v>
    <v>       0.07196928       0.55193565       0.57077892 </v>
    <v>       0.30878444       0.56142539       0.55435591 </v>
    <v>       0.56377892       0.56229561       0.55989331 </v>
    <v>       0.81452714       0.56888514       0.56390406 </v>
    <v>       0.06093869       0.80494344       0.56570964 </v>
    <v>       0.30134485       0.81865979       0.56571689 </v>
    <v>       0.56421273       0.81045446       0.55762651 </v>
    <v>       0.81447136       0.80225842       0.56468637 </v>
    <v>       0.05816891       0.06604099       0.80679513 </v>
    <v>       0.32628183       0.05659881       0.80526609 </v>
    <v>       0.57286444       0.05191624       0.80769449 </v>
    <v>       0.80765447       0.06185352       0.80547808 </v>
    <v>       0.07089315       0.31728909       0.80272485 </v>
    <v>       0.32002185       0.31393982       0.81965155 </v>
    <v>       0.55963295       0.29864166       0.82780749 </v>
    <v>       0.80551299       0.31349182       0.81564295 </v>
    <v>       0.07075960       0.55347117       0.81611673 </v>
    <v>       0.31823749       0.55699995       0.81361188 </v>
    <v>       0.56330857       0.56296604       0.80857100 </v>
    <v>       0.80937765       0.56757439       0.81003832 </v>
    <v>       0.07388031       0.80361289       0.80672926 </v>
    <v>       0.31197849       0.80886728       0.81584215 </v>
    <v>       0.55753944       0.82189446       0.80906833 </v>
    <v>       0.80626785       0.81565963       0.81099639 </v>
   </varray>
  </structure>
  <varray name="forces" >
   <v>       1.48381953      -0.71439483       0.72843302 </v>
   <v>       1.52864078      -0.82511034       0.41707556 </v>
   <v>       0.27023064      -1.01696093       0.18507752 </v>
   <v>      -1.77903295      -0.05103201      -0.18987663 </v>
   <v>      -1.69378478      -0.50588663       0.48295934 </v>
   <v>       1.76062331       0.99150819       0.06252022 </v>
   <v>       0.44156128       2.21993709      -0.95661115 </v>
   <v>      -1.62768214       0.59051988      -0.27637337 </v>
   <v>       0.06074155      -0.07562374      -3.05796750 </v>
   <v>      -0.27042681       1.60368211      -0.20576974 </v>
   <v>      -0.36508737       0.10782298       0.00602065 </v>
   <v>      -0.11216017       0.06690323      -1.54795727 </v>
   <v>      -0.28807481      -0.81242809       0.58273501 </v>
   <v>       0.04679338       0.57869345      -2.04846663 </v>
   <v>       1.80121147       0.47364839      -1.06238259 </v>
   <v>       0.99942222       1.81226618      -0.63155720 </v>
   <v>       1.98393837      -0.56894371      -1.30510630 </v>
   <v>       2.41065621      -1.36128174       0.95996402 </v>
   <v>      -0.28272357      -1.15769817      -0.91571894 </v>
   <v>       1.09805216       1.02956280       0.41601402 </v>
   <v>       0.44115162       1.09143047      -2.89595864 </v>
   <v>      -0.63300604      -0.45794992      -0.99902093 </v>
   <v>       0.08131112       0.24823715       0.10432535 </v>
   <v>       0.50791231      -0.98645343      -1.63178355 </v>
   <v>       0.31537630      -0.21534180       0.44313746 </v>
   <v>       1.63025014       1.28272683      -1.80554244 </v>
   <v>       0.46189266       0.47045342       1.04309776 </v>
   <v>       0.79630264       0.01290731       1.37765553 </v>
   <v>       0.56459618      -0.39710166       1.98599967 </v>
   <v>      -1.84987134       2.64025446       1.03202947 </v>
   <v>       0.60130679       0.61556965      -0.46346440 </v>
   <v>       0.16278479       1.96623648       0.61191405 </v>
   <v>      -0.24723342       0.78257288      -0.79867503 </v>
   <v>      -0.35021833       0.23760899       1.83263158 </v>
   <v>      -2.42452072      -0.06421697      -0.27483946 </v>
   <v>      -0.22278024      -0.50522111      -1.09865649 </v>
   <v>       0.54175784      -0.05335504       0.79615284 </v>
   <v>       0.57450686       1.49220319       0.48746771 </v>
   <v>       0.06248116      -0.33882646      -0.71805681 </v>
   <v>      -2.17357391      -1.35967274      -1.22790004 </v>
   <v>      -1.14027923       1.78332790       0.18299851 </v>
   <v>      -0.91782950      -1.13458092      -0.53819264 </v>
   <v>       0.35150371       1.72404139      -0.89597456 </v>
   <v>       0.11439133      -0.31371524      -0.75589309 </v>
   <v>      -0.89188467       1.08227965       0.58151721 </v>
   <v>      -0.49222062      -0.18315160      -3.00351304 </v>
   <v>       0.78873434      -1.33881155       1.07733741 </v>
   <v>       1.90082494      -1.31920082       0.20365214 </v>
   <v>      -0.78333644       0.55524165      -0.68081826 </v>
   <v>      -1.09288851       0.27733593       0.59223501 </v>
   <v>      -1.04847578      -2.19099611       1.47406703 </v>
   <v>      -0.81963613       0.59988207       0.35961638 </v>
   <v>       1.37584759      -0.62727966       1.15516762 </v>
   <v>      -1.62455593       1.72666035       1.41808556 </v>
   <v>       0.34639176       1.10778930      -0.71331646 </v>
   <v>      -0.90792851      -1.54692697      -1.32640283 </v>
   <v>       1.63115456       1.72961711      -1.25373309 </v>
   <v>      -1.82180926       1.57268848       2.38964515 </v>
   <v>      -1.30552218       1.22815132      -0.25684403 </v>
   <v>       0.15789983       1.99521513      -0.10249793 </v>
   <v>      -0.95166489      -0.20798775      -0.10214036 </v>
   <v>      -1.00263558       0.85872507      -1.66661851 </v>
   <v>      -2.79000007      -2.29197355      -1.36078047 </v>
   <v>      -0.97584083      -1.43917337      -0.28418506 </v>
   <v>      -2.45111675      -1.16892088       0.86125545 </v>
   <v>      -1.34726926       1.07612012       0.79402835 </v>
   <v>       1.28363012      -1.24678159      -1.23376174 </v>
   <v>       1.18223515       0.36039856       1.43950398 </v>
   <v>      -0.10139073      -0.57339585       2.68948262 </v>
   <v>       0.54376198      -1.16897598      -1.36652649 </v>
   <v>       1.49300754      -1.02339908      -0.39313844 </v>
   <v>       1.04644005      -1.21498198       0.82488441 </v>
   <v>       1.70473237       0.89663465       0.10607760 </v>
   <v>      -0.83086239      -1.40876051       1.85601832 </v>
   <v>      -0.95177781       0.42925912       0.02564317 </v>
   <v>       0.19547328       0.26081910       1.27971743 </v>
   <v>      -1.08424608       1.23711480      -1.14720482 </v>
   <v>      -0.83559043       1.21227709       1.01425410 </v>
   <v>      -1.37095522      -1.03541130       0.25324817 </v>
   <v>      -0.92950178      -1.20074462      -0.16412685 </v>
   <v>       0.31975685       0.34630095       2.26493766 </v>
   <v>      -0.33834960      -0.44813014      -0.12564632 </v>
   <v>       1.54000428       0.97691702       0.73154730 </v>
   <v>      -2.07652399      -0.75577318       0.22235398 </v>
   <v>       0.14158101       0.74789804       0.15869043 </v>
   <v>      -0.69797790      -0.74808326       2.05626627 </v>
   <v>      -1.16868356       0.05312011       0.80503647 </v>
   <v>      -0.88329799       1.18437574       0.51768703 </v>
   <v>      -1.35161123       1.59161164      -0.29802480 </v>
   <v>       0.99725997      -1.45592186      -0.43740636 </v>
   <v>      -1.40945139      -1.89871611      -0.07408956 </v>
   <v>      -0.96417661      -0.79218863       0.19964095 </v>
   <v>       0.11398554      -0.74654443      -2.90948065 </v>
   <v>      -1.68185084       0.38237613      -0.35947561 </v>
   <v>       0.90796962      -0.43249233      -1.31880480 </v>
   <v>      -0.91586905      -1.98808543       0.30796234 </v>
   <v>      -0.20697085      -0.66519527      -1.07118312 </v>
   <v>      -0.14305660      -0.76023080      -1.69127716 </v>
   <v>       0.19002622       1.92710149       0.16540847 </v>
   <v>       0.04075132       1.03106981       0.62117472 </v>
   <v>       1.47365307      -1.92460311      -0.22569563 </v>
   <v>      -0.02614140       0.43553957      -0.96872275 </v>
   <v>       1.68909540      -0.94372879       0.77658646 </v>
   <v>       2.60899532       2.50158909       1.67598495 </v>
   <v>      -1.22525778      -2.96605911       1.30186271 </v>
   <v>       2.27375557       1.20679053       1.40410534 </v>
   <v>      -0.71769236       0.64583004      -0.75514824 </v>
   <v>      -1.56931998       0.26251567      -1.29163123 </v>
   <v>       0.70852035      -0.16196874       0.97374914 </v>
   <v>      -0.73335175       1.15863184       1.42955892 </v>
   <v>       1.38848499       0.65028638      -0.14234963 </v>
   <v>       1.55509054      -0.16651679       0.09389913 </v>
   <v>      -0.04320384       1.03316217      -0.79207674 </v>
   <v>       2.15780633      -1.30390528      -0.91680765 </v>
   <v>       2.92244276       0.17728539      -0.04395429 </v>
   <v>       0.81793448       0.86499482       0.77797412 </v>
   <v>       0.99497672      -0.87711738      -2.30833251 </v>
   <v>      -1.25259773      -1.69736849      -0.24921988 </v>
   <v>      -1.74811481      -2.10884667       3.03461427 </v>
   <v>       0.47896079       0.85650754       1.35779209 </v>
   <v>       0.75198000      -3.11188026      -0.66094063 </v>
   <v>       0.52691622      -2.15451490       0.35414753 </v>
   <v>       1.51163261      -0.22933402      -0.47774498 </v>
   <v>      -0.78278122       0.08430704      -0.37860809 </v>
   <v>       2.06210076      -0.37926071      -0.08581351 </v>
   <v>       0.34283224      -0.27384335       1.61615478 </v>
   <v>      -0.47729273       2.31562885       0.53079355 </v>
   <v>      -0.05689446       0.63081393       1.42821289 </v>
  </varray>
  <varray name="stress" >
   <v>      13.11573897       5.77279452      -4.86891759 </v>
   <v>       5.77279453      12.47101288       2.33630247 </v>
   <v>      -4.86891758       2.33630247      14.19924010 </v>
  </varray>
  <energy>
   <i name="e_fr_energy">   -679.89240756 </i>
   <i name="e_wo_entrp">   -679.89240756 </i>
   <i name="e_0_energy">     -0.00000000 </i>
  </energy>
  <time name="totalsc"> 1689.62 1690.41</time>
  <eigenvalues>
   <array>
    <dimension dim="1">band</dimension>
    <dimension dim="2">kpoint</dimension>
    <dimension dim="3">spin</dimension>
    <field>eigene</field>
    <field>occ</field>
    <set>
     <set comment="spin 1">
      <set comment="kpoint 1">
       <r>   -6.2968    1.0000 </r>
       <r>   -5.6820    1.0000 </r>
       <r>   -5.6531    1.0000 </r>
       <r>   -5.5990    1.0000 </r>
       <r>   -5.5373    1.0000 </r>
       <r>   -5.5204    1.0000 </r>
       <r>   -5.4974    1.0000 </r>
       <r>   -5.4514    1.0000 </r>
       <r>   -5.4136    1.0000 </r>
       <r>   -5.3169    1.0000 </r>
       <r>   -5.2263    1.0000 </r>
       <r>   -5.2133    1.0000 </r>
       <r>   -5.1512    1.0000 </r>
       <r>   -5.1274    1.0000 </r>
       <r>   -5.1050    1.0000 </r>
       <r>   -4.5176    1.0000 </r>
       <r>   -4.4862    1.0000 </r>
       <r>   -4.4192    1.0000 </r>
       <r>   -4.4128    1.0000 </r>
       <r>   -4.3622    1.0000 </r>
       <r>   -4.3223    1.0000 </r>
       <r>   -4.3046    1.0000 </r>
       <r>   -4.2691    1.0000 </r>
       <r>   -4.2457    1.0000 </r>
       <r>   -4.2018    1.0000 </r>
       <r>   -4.1244    1.0000 </r>
       <r>   -4.1022    1.0000 </r>
       <r>   -4.0377    1.0000 </r>
       <r>   -4.0008    1.0000 </r>
       <r>   -3.9871    1.0000 </r>
       <r>   -3.8988    1.0000 </r>
       <r>   -3.8839    1.0000 </r>
       <r>   -3.8152    1.0000 </r>
       <r>   -3.7913    1.0000 </r>
       <r>   -3.7513    1.0000 </r>
       <r>   -3.7168    1.0000 </r>
       <r>   -3.7002    1.0000 </r>
       <r>   -3.6821    1.0000 </r>
       <r>   -3.6614    1.0000 </r>
       <r>   -3.6353    1.0000 </r>
       <r>   -3.6320    1.0000 </r>
       <r>   -3.6091    1.0000 </r>
       <r>   -3.5719    1.0000 </r>
       <r>   -3.5384    1.0000 </r>
       <r>   -3.5184    1.0000 </r>
       <r>   -3.5023    1.0000 </r>
       <r>   -3.4871    1.0000 </r>
       <r>   -3.4742    1.0000 </r>
       <r>   -3.4120    1.0000 </r>
       <r>   -3.4050    1.0000 </r>
       <r>   -3.3854    1.0000 </r>
       <r>   -3.3584    1.0000 </r>
       <r>   -3.3314    1.0000 </r>
       <r>   -3.3020    1.0000 </r>
       <r>   -3.2505    1.0000 </r>
       <r>   -2.3672    1.0000 </r>
       <r>   -2.3405    1.0000 </r>
       <r>   -2.2687    1.0000 </r>
       <r>   -2.2575    1.0000 </r>
       <r>   -2.2411    1.0000 </r>
       <r>   -2.2030    1.0000 </r>
       <r>   -2.1527    1.0000 </r>
       <r>   -2.1436    1.0000 </r>
       <r>   -2.0781    1.0000 </r>
       <r>   -2.0032    1.0000 </r>
       <r>   -1.9957    1.0000 </r>
       <r>   -1.9594    1.0000 </r>
       <r>   -1.9477    1.0000 </r>
       <r>   -1.9198    1.0000 </r>
       <r>   -1.9006    1.0000 </r>
       <r>   -1.8818    1.0000 </r>
       <r>   -1.8023    1.0000 </r>
       <r>   -1.7783    1.0000 </r>
       <r>   -1.3854    1.0000 </r>
       <r>   -1.3279    1.0000 </r>
       <r>   -1.2415    1.0000 </r>
       <r>   -1.1967    1.0000 </r>
       <r>   -1.0529    1.0000 </r>
       <r>   -0.9805    1.0000 </r>
       <r>   -0.9431    1.0000 </r>
       <r>   -0.9287    1.0000 </r>
       <r>   -0.8775    1.0000 </r>
       <r>   -0.8555    1.0000 </r>
       <r>   -0.8305    1.0000 </r>
       <r>   -0.8197    1.0000 </r>
       <r>   -0.8027    1.0000 </r>
       <r>   -0.7695    1.0000 </r>
       <r>   -0.7576    1.0000 </r>
       <r>   -0.7112    1.0000 </r>
       <r>   -0.6970    1.0000 </r>
       <r>   -0.6817    1.0000 </r>
       <r>   -0.6594    1.0000 </r>
       <r>   -0.6381    1.0000 </r>
       <r>   -0.6237    1.0000 </r>
       <r>   -0.6208    1.0000 </r>
       <r>   -0.5737    1.0000 </r>
       <r>   -0.5317    1.0000 </r>
       <r>   -0.4936    1.0000 </r>
       <r>   -0.4648    1.0000 </r>
       <r>   -0.4351    1.0000 </r>
       <r>   -0.4169    1.0000 </r>
       <r>   -0.0061    1.0000 </r>
       <r>    0.0475    1.0000 </r>
       <r>    0.0863    1.0000 </r>
       <r>    0.1368    1.0000 </r>
       <r>    0.1441    1.0000 </r>
       <r>    0.1608    1.0000 </r>
       <r>    0.1887    1.0000 </r>
       <r>    0.2098    1.0000 </r>
       <r>    0.2312    1.0000 </r>
       <r>    0.3117    1.0000 </r>
       <r>    0.3349    1.0000 </r>
       <r>    0.3933    1.0000 </r>
       <r>    1.4338    1.0000 </r>
       <r>    1.4449    1.0000 </r>
       <r>    1.5000    1.0000 </r>
       <r>    1.5091    1.0000 </r>
       <r>    1.5398    1.0000 </r>
       <r>    1.5668    1.0000 </r>
       <r>    1.5968    1.0000 </r>
       <r>    1.6232    1.0000 </r>
       <r>    1.6449    1.0000 </r>
       <r>    1.6476    1.0000 </r>
       <r>    1.6786    1.0000 </r>
       <r>    1.7042    1.0000 </r>
       <r>    1.7144    1.0000 </r>
       <r>    1.7410    1.0000 </r>
       <r>    1.7463    1.0000 </r>
       <r>    1.7588    1.0000 </r>
       <r>    1.7739    1.0000 </r>
       <r>    1.7836    1.0000 </r>
       <r>    1.8047    1.0000 </r>
       <r>    1.8185    1.0000 </r>
       <r>    1.8397    1.0000 </r>
       <r>    1.8562    1.0000 </r>
       <r>    1.8644    1.0000 </r>
       <r>    1.8880    1.0000 </r>
       <r>    1.8916    1.0000 </r>
       <r>    1.9104    1.0000 </r>
       <r>    1.9147    1.0000 </r>
       <r>    1.9153    1.0000 </r>
       <r>    1.9461    1.0000 </r>
       <r>    1.9652    1.0000 </r>
       <r>    1.9896    1.0000 </r>
       <r>    1.9974    1.0000 </r>
       <r>    2.0084    1.0000 </r>
       <r>    2.0239    1.0000 </r>
       <r>    2.0302    1.0000 </r>
       <r>    2.0557    1.0000 </r>
       <r>    2.0595    1.0000 </r>
       <r>    2.0652    1.0000 </r>
       <r>    2.0965    1.0000 </r>
       <r>    2.1081    1.0000 </r>
       <r>    2.1146    1.0000 </r>
       <r>    2.1256    1.0000 </r>
       <r>    2.1377    1.0000 </r>
       <r>    2.1438    1.0000 </r>
       <r>    2.1611    1.0000 </r>
       <r>    2.1647    1.0000 </r>
       <r>    2.1758    1.0000 </r>
       <r>    2.2064    1.0000 </r>
       <r>    2.2284    1.0000 </r>
       <r>    2.2420    1.0000 </r>
       <r>    2.2713    1.0000 </r>
       <r>    2.2795    1.0000 </r>
       <r>    2.2959    1.0000 </r>
       <r>    2.3070    1.0000 </r>
       <r>    2.3218    1.0000 </r>
       <r>    2.3354    1.0000 </r>
       <r>    2.3527    1.0000 </r>
       <r>    2.3757    1.0000 </r>
       <r>    2.3870    1.0000 </r>
       <r>    2.4107    1.0000 </r>
       <r>    2.4186    1.0000 </r>
       <r>    2.4720    1.0000 </r>
       <r>    2.7598    1.0000 </r>
       <r>    2.7914    1.0000 </r>
       <r>    2.8025    1.0000 </r>
       <r>    2.8253    1.0000 </r>
       <r>    2.8369    1.0000 </r>
       <r>    2.8993    1.0000 </r>
       <r>    3.2013    1.0000 </r>
       <r>    3.2288    1.0000 </r>
       <r>    3.2745    1.0000 </r>
       <r>    3.2806    1.0000 </r>
       <r>    3.2941    1.0000 </r>
       <r>    3.3035    1.0000 </r>
       <r>    3.3306    1.0000 </r>
       <r>    3.3552    1.0000 </r>
       <r>    3.3656    1.0000 </r>
       <r>    3.3788    1.0000 </r>
       <r>    3.3858    1.0000 </r>
       <r>    3.4190    1.0000 </r>
       <r>    3.4394    1.0000 </r>
       <r>    3.4639    1.0000 </r>
       <r>    3.4832    1.0000 </r>
       <r>    3.4965    1.0000 </r>
       <r>    3.4978    1.0000 </r>
       <r>    3.5158    1.0000 </r>
       <r>    3.5235    1.0000 </r>
       <r>    3.5371    1.0000 </r>
       <r>    3.5614    1.0000 </r>
       <r>    3.5759    1.0000 </r>
       <r>    3.5950    1.0000 </r>
       <r>    3.6226    1.0000 </r>
       <r>    3.6702    1.0000 </r>
       <r>    3.6889    1.0000 </r>
       <r>    3.7154    1.0000 </r>
       <r>    3.7321    1.0000 </r>
       <r>    3.7602    1.0000 </r>
       <r>    3.7938    1.0000 </r>
       <r>    3.8150    1.0000 </r>
       <r>    3.8418    1.0000 </r>
       <r>    3.8845    1.0000 </r>
       <r>    3.9164    1.0000 </r>
       <r>    3.9423    1.0000 </r>
       <r>    3.9700    1.0000 </r>
       <r>    4.0949    1.0000 </r>
       <r>    4.1311    1.0000 </r>
       <r>    4.1991    1.0000 </r>
       <r>    4.2108    1.0000 </r>
       <r>    4.2315    1.0000 </r>
       <r>    4.2490    1.0000 </r>
       <r>    4.2858    1.0000 </r>
       <r>    4.3064    1.0000 </r>
       <r>    4.3146    1.0000 </r>
       <r>    4.3691    1.0000 </r>
       <r>    4.4119    1.0000 </r>
       <r>    4.4355    1.0000 </r>
       <r>    4.4444    1.0000 </r>
       <r>    4.4581    1.0000 </r>
       <r>    4.4751    1.0000 </r>
       <r>    4.5087    1.0000 </r>
       <r>    4.5517    1.0000 </r>
       <r>    4.5871    1.0000 </r>
       <r>    4.6154    1.0000 </r>
       <r>    4.6746    1.0000 </r>
       <r>    4.7371    1.0000 </r>
       <r>    4.7738    1.0000 </r>
       <r>    4.8165    1.0000 </r>
       <r>    4.8363    1.0000 </r>
       <r>    4.8521    1.0000 </r>
       <r>    4.8969    1.0000 </r>
       <r>    4.9365    1.0000 </r>
       <r>    4.9523    1.0000 </r>
       <r>    4.9831    1.0000 </r>
       <r>    5.0153    1.0000 </r>
       <r>    5.0532    1.0000 </r>
       <r>    5.0699    1.0000 </r>
       <r>    5.1143    1.0000 </r>
       <r>    5.1607    1.0000 </r>
       <r>    5.2120    1.0000 </r>
       <r>    5.2426    1.0000 </r>
       <r>    5.6264    1.0000 </r>
       <r>    5.7501    1.0000 </r>
       <r>    5.8379    1.0000 </r>
       <r>    6.1308    0.0000 </r>
       <r>    6.1631    0.0000 </r>
       <r>    6.2438    0.0000 </r>
       <r>    6.2702    0.0000 </r>
       <r>    6.3346    0.0000 </r>
       <r>    6.3930    0.0000 </r>
       <r>    6.5261    0.0000 </r>
       <r>    6.5994    0.0000 </r>
       <r>    6.6117    0.0000 </r>
       <r>    6.6370    0.0000 </r>
       <r>    6.6927    0.0000 </r>
       <r>    6.7500    0.0000 </r>
       <r>    6.8047    0.0000 </r>
       <r>    6.8254    0.0000 </r>
       <r>    6.8580    0.0000 </r>
       <r>    6.8739    0.0000 </r>
       <r>    6.8905    0.0000 </r>
       <r>    6.9339    0.0000 </r>
       <r>    6.9396    0.0000 </r>
       <r>    6.9579    0.0000 </r>
       <r>    6.9766    0.0000 </r>
       <r>    6.9868    0.0000 </r>
       <r>    6.9992    0.0000 </r>
       <r>    7.0212    0.0000 </r>
       <r>    7.0388    0.0000 </r>
       <r>    7.0645    0.0000 </r>
       <r>    7.0874    0.0000 </r>
       <r>    7.1016    0.0000 </r>
       <r>    7.1267    0.0000 </r>
       <r>    7.1421    0.0000 </r>
       <r>    7.1633    0.0000 </r>
       <r>    7.1914    0.0000 </r>
       <r>    7.2051    0.0000 </r>
       <r>    7.2309    0.0000 </r>
       <r>    7.2455    0.0000 </r>
       <r>    7.2573    0.0000 </r>
       <r>    7.2702    0.0000 </r>
       <r>    7.2944    0.0000 </r>
       <r>    7.3111    0.0000 </r>
       <r>    7.3518    0.0000 </r>
       <r>    7.4848    0.0000 </r>
       <r>    7.4991    0.0000 </r>
       <r>    7.5112    0.0000 </r>
       <r>    7.5162    0.0000 </r>
       <r>    7.5321    0.0000 </r>
       <r>    7.5649    0.0000 </r>
       <r>    7.5851    0.0000 </r>
       <r>    7.5960    0.0000 </r>
       <r>    7.7979    0.0000 </r>
       <r>    7.8592    0.0000 </r>
       <r>    7.8984    0.0000 </r>
       <r>    7.9258    0.0000 </r>
       <r>    7.9485    0.0000 </r>
       <r>    7.9797    0.0000 </r>
       <r>    7.9992    0.0000 </r>
       <r>    8.0141    0.0000 </r>
       <r>    8.0359    0.0000 </r>
       <r>    8.0639    0.0000 </r>
       <r>    8.0963    0.0000 </r>
       <r>    8.1257    0.0000 </r>
       <r>    8.2021    0.0000 </r>
       <r>    8.2176    0.0000 </r>
       <r>    8.2665    0.0000 </r>
       <r>    8.5146    0.0000 </r>
       <r>    8.5679    0.0000 </r>
       <r>    8.6229    0.0000 </r>
      </set>
      <set comment="kpoint 2">
       <r>   -6.1401    1.0000 </r>
       <r>   -6.0667    1.0000 </r>
       <r>   -5.7152    1.0000 </r>
       <r>   -5.6500    1.0000 </r>
       <r>   -5.5755    1.0000 </r>
       <r>   -5.5569    1.0000 </r>
       <r>   -5.5353    1.0000 </r>
[...]
       <r>    -3.1039    42.5385   100.9432 </r>
       <r>    -3.0492    49.2359   103.6367 </r>
       <r>    -2.9945    53.1047   106.5418 </r>
       <r>    -2.9398    34.9846   108.4557 </r>
       <r>    -2.8851    39.1521   110.5975 </r>
       <r>    -2.8304    23.0922   111.8608 </r>
       <r>    -2.7757    39.3286   114.0123 </r>
       <r>    -2.7210    29.3631   115.6186 </r>
       <r>    -2.6663    38.5153   117.7256 </r>
       <r>    -2.6116    46.2108   120.2536 </r>
       <r>    -2.5569    26.7131   121.7150 </r>
       <r>    -2.5022     9.7965   122.2509 </r>
       <r>    -2.4475     9.1197   122.7498 </r>
       <r>    -2.3928     0.0038   122.7500 </r>
       <r>    -2.3381     7.4685   123.1586 </r>
       <r>    -2.2834     1.7866   123.2563 </r>
       <r>    -2.2287    24.0053   124.5696 </r>
       <r>    -2.1740    22.3362   125.7915 </r>
       <r>    -2.1193    35.0733   127.7102 </r>
       <r>    -2.0645    14.2543   128.4900 </r>
       <r>    -2.0098    20.6482   129.6195 </r>
       <r>    -1.9551    29.1112   131.2121 </r>
       <r>    -1.9004    16.7444   132.1281 </r>
       <r>    -1.8457     8.9113   132.6156 </r>
       <r>    -1.7910     6.9439   132.9955 </r>
       <r>    -1.7363     4.6527   133.2500 </r>
       <r>    -1.6816    12.4558   133.9314 </r>
       <r>    -1.6269     6.4408   134.2838 </r>
       <r>    -1.5722    29.5125   135.8983 </r>
       <r>    -1.5175    42.4008   138.2179 </r>
       <r>    -1.4628    31.3258   139.9315 </r>
       <r>    -1.4081    34.0401   141.7937 </r>
       <r>    -1.3534    46.5902   144.3425 </r>
       <r>    -1.2987    47.1448   146.9215 </r>
       <r>    -1.2440    60.8438   150.2500 </r>
       <r>    -1.1893    63.9144   153.7465 </r>
       <r>    -1.1346    59.8903   157.0228 </r>
       <r>    -1.0798    61.5733   160.3912 </r>
       <r>    -1.0251    75.5147   164.5223 </r>
       <r>    -0.9704    61.3269   167.8772 </r>
       <r>    -0.9157    73.6411   171.9058 </r>
       <r>    -0.8610    60.1953   175.1989 </r>
       <r>    -0.8063    71.7788   179.1256 </r>
       <r>    -0.7516    51.8898   181.9643 </r>
       <r>    -0.6969    40.4962   184.1796 </r>
       <r>    -0.6422    35.6741   186.1312 </r>
       <r>    -0.5875    33.6680   187.9730 </r>
       <r>    -0.5328    28.5732   189.5361 </r>
       <r>    -0.4781    13.3475   190.2663 </r>
       <r>    -0.4234    34.0665   192.1299 </r>
       <r>    -0.3687    35.3196   194.0621 </r>
       <r>    -0.3140    47.3526   196.6526 </r>
       <r>    -0.2593    51.9808   199.4962 </r>
       <r>    -0.2046    42.5350   201.8231 </r>
       <r>    -0.1499    48.8291   204.4944 </r>
       <r>    -0.0951    45.9046   207.0056 </r>
       <r>    -0.0404    43.8003   209.4017 </r>
       <r>     0.0143    39.1301   211.5423 </r>
       <r>     0.0690    23.3403   212.8192 </r>
       <r>     0.1237    12.5986   213.5084 </r>
       <r>     0.1784    13.8553   214.2664 </r>
       <r>     0.2331    18.3831   215.2720 </r>
       <r>     0.2878    13.3880   216.0044 </r>
       <r>     0.3425    25.6383   217.4070 </r>
       <r>     0.3972    25.7488   218.8156 </r>
       <r>     0.4519    19.6550   219.8908 </r>
       <r>     0.5066    29.9328   221.5283 </r>
       <r>     0.5613    28.7467   223.1009 </r>
       <r>     0.6160    11.3625   223.7225 </r>
       <r>     0.6707    22.7240   224.9657 </r>
       <r>     0.7254    22.6019   226.2021 </r>
       <r>     0.7801    14.0690   226.9718 </r>
       <r>     0.8348    10.7317   227.5588 </r>
       <r>     0.8895     4.2857   227.7933 </r>
       <r>     0.9443    24.1502   229.1144 </r>
       <r>     0.9990    25.7645   230.5239 </r>
       <r>     1.0537    26.3501   231.9654 </r>
       <r>     1.1084    24.1685   233.2876 </r>
       <r>     1.1631    39.5214   235.4496 </r>
       <r>     1.2178    13.8808   236.2090 </r>
       <r>     1.2725    24.2304   237.5345 </r>
       <r>     1.3272    30.7127   239.2146 </r>
       <r>     1.3819    26.3382   240.6555 </r>
       <r>     1.4366    36.1059   242.6307 </r>
       <r>     1.4913    74.7306   246.7189 </r>
       <r>     1.5460    93.5779   251.8381 </r>
       <r>     1.6007    89.5190   256.7353 </r>
       <r>     1.6554    85.0378   261.3874 </r>
       <r>     1.7101    55.6871   264.4338 </r>
       <r>     1.7648    68.2890   268.1696 </r>
       <r>     1.8195    52.1340   271.0216 </r>
       <r>     1.8742    26.7797   272.4866 </r>
       <r>     1.9290    22.8854   273.7386 </r>
       <r>     1.9837    10.3617   274.3054 </r>
       <r>     2.0384    33.3742   276.1311 </r>
       <r>     2.0931    71.6295   280.0497 </r>
       <r>     2.1478   107.9071   285.9528 </r>
       <r>     2.2025   112.2237   292.0922 </r>
       <r>     2.2572   116.6613   298.4742 </r>
       <r>     2.3119   125.0097   305.3130 </r>
       <r>     2.3666   128.0857   312.3200 </r>
       <r>     2.4213    92.8875   317.4015 </r>
       <r>     2.4760    67.0692   321.0706 </r>
       <r>     2.5307    44.4878   323.5043 </r>
       <r>     2.5854    15.4180   324.3477 </r>
       <r>     2.6401    51.6496   327.1732 </r>
       <r>     2.6948    70.3675   331.0227 </r>
       <r>     2.7495    81.6650   335.4903 </r>
       <r>     2.8042   111.0875   341.5674 </r>
       <r>     2.8589    81.2781   346.0138 </r>
       <r>     2.9136    79.6733   350.3724 </r>
       <r>     2.9684   101.3028   355.9142 </r>
       <r>     3.0231    99.3761   361.3507 </r>
       <r>     3.0778    95.9857   366.6016 </r>
       <r>     3.1325    83.2165   371.1541 </r>
       <r>     3.1872    71.2251   375.0505 </r>
       <r>     3.2419    86.8854   379.8037 </r>
       <r>     3.2966   103.5393   385.4678 </r>
       <r>     3.3513   107.2651   391.3358 </r>
       <r>     3.4060    83.1531   395.8848 </r>
       <r>     3.4607    78.7530   400.1930 </r>
       <r>     3.5154    98.1954   405.5648 </r>
       <r>     3.5701    87.4638   410.3496 </r>
       <r>     3.6248    76.1652   414.5163 </r>
       <r>     3.6795    59.9966   417.7984 </r>
       <r>     3.7342    85.1273   422.4554 </r>
       <r>     3.7889    84.2502   427.0644 </r>
       <r>     3.8436    89.2924   431.9491 </r>
       <r>     3.8983    69.6580   435.7598 </r>
       <r>     3.9531    76.4878   439.9442 </r>
       <r>     4.0078    61.3381   443.2997 </r>
       <r>     4.0625    75.8840   447.4510 </r>
       <r>     4.1172    68.7367   451.2112 </r>
       <r>     4.1719    59.6244   454.4730 </r>
       <r>     4.2266    71.4307   458.3807 </r>
       <r>     4.2813    72.0907   462.3245 </r>
       <r>     4.3360    77.8690   466.5844 </r>
       <r>     4.3907    78.3121   470.8685 </r>
       <r>     4.4454    73.6204   474.8959 </r>
       <r>     4.5001    71.8814   478.8283 </r>
       <r>     4.5548    55.7741   481.8794 </r>
       <r>     4.6095    65.3931   485.4568 </r>
       <r>     4.6642    48.6502   488.1183 </r>
       <r>     4.7189    28.5841   489.6820 </r>
       <r>     4.7736    40.5849   491.9022 </r>
       <r>     4.8283    19.3941   492.9632 </r>
       <r>     4.8830    30.1057   494.6101 </r>
       <r>     4.9377    45.3614   497.0916 </r>
       <r>     4.9925    38.1201   499.1770 </r>
       <r>     5.0472    30.8848   500.8666 </r>
       <r>     5.1019    32.0483   502.6199 </r>
       <r>     5.1566    16.1689   503.5044 </r>
       <r>     5.2113     6.5888   503.8648 </r>
       <r>     5.2660    11.4119   504.4891 </r>
       <r>     5.3207    10.8012   505.0800 </r>
       <r>     5.3754    18.6914   506.1025 </r>
       <r>     5.4301    25.6304   507.5047 </r>
       <r>     5.4848    13.5908   508.2482 </r>
       <r>     5.5395    19.4347   509.3113 </r>
       <r>     5.5942    25.9129   510.7289 </r>
       <r>     5.6489    14.0917   511.4998 </r>
       <r>     5.7036     0.0033   511.5000 </r>
       <r>     5.7583     4.0149   511.7196 </r>
       <r>     5.8130     0.5560   511.7501 </r>
       <r>     5.8677     4.5689   512.0000 </r>
       <r>     5.9224     0.0000   512.0000 </r>
       <r>     5.9772     0.0000   512.0000 </r>
       <r>     6.0319     0.0000   512.0000 </r>
       <r>     6.0866     0.0000   512.0000 </r>
       <r>     6.1413     7.7806   512.4256 </r>
       <r>     6.1960    15.8410   513.2922 </r>
       <r>     6.2507    17.3662   514.2423 </r>
       <r>     6.3054    13.3545   514.9728 </r>
       <r>     6.3601    20.8491   516.1134 </r>
       <r>     6.4148    26.3666   517.5558 </r>
       <r>     6.4695    20.9329   518.7010 </r>
       <r>     6.5242    22.3392   519.9230 </r>
       <r>     6.5789    17.7523   520.8942 </r>
       <r>     6.6336    18.7318   521.9189 </r>
       <r>     6.6883    18.5202   522.9321 </r>
       <r>     6.7430    28.9121   524.5138 </r>
       <r>     6.7977    35.6636   526.4648 </r>
       <r>     6.8524    30.2070   528.1173 </r>
       <r>     6.9071    34.5347   530.0065 </r>
       <r>     6.9619    45.7354   532.5085 </r>
       <r>     7.0166    30.9172   534.1999 </r>
       <r>     7.0713    53.2867   537.1149 </r>
       <r>     7.1260    24.0034   538.4281 </r>
       <r>     7.1807    27.7217   539.9446 </r>
       <r>     7.2354    36.8605   541.9611 </r>
       <r>     7.2901    61.2212   545.3102 </r>
       <r>     7.3448    90.9729   550.2869 </r>
       <r>     7.3995    70.3979   554.1381 </r>
       <r>     7.4542    63.0172   557.5855 </r>
       <r>     7.5089    79.1935   561.9178 </r>
       <r>     7.5636    87.1532   566.6855 </r>
       <r>     7.6183    91.5147   571.6919 </r>
       <r>     7.6730    92.4166   576.7477 </r>
       <r>     7.7277    88.3835   581.5827 </r>
       <r>     7.7824    93.9763   586.7238 </r>
       <r>     7.8371    90.0695   591.6511 </r>
       <r>     7.8918    94.9811   596.8471 </r>
       <r>     7.9465    92.8992   601.9292 </r>
       <r>     8.0013    90.3164   606.8700 </r>
       <r>     8.0560    93.3096   611.9746 </r>
       <r>     8.1107    76.9886   616.1863 </r>
       <r>     8.1654    82.6379   620.7071 </r>
       <r>     8.2201    87.1128   625.4726 </r>
       <r>     8.2748    78.6194   629.7735 </r>
       <r>     8.3295    82.3801   634.2802 </r>
       <r>     8.3842    87.7092   639.0785 </r>
       <r>     8.4389    53.5371   642.0073 </r>
       <r>     8.4936    22.6746   643.2477 </r>
       <r>     8.5483     4.6248   643.5007 </r>
       <r>     8.6030     4.5683   643.7506 </r>
       <r>     8.6577     4.5587   644.0000 </r>
       <r>     8.7124     0.0000   644.0000 </r>
       <r>     8.7671     0.0000   644.0000 </r>
       <r>     8.8218     0.0000   644.0000 </r>
       <r>     8.8765     0.0000   644.0000 </r>
       <r>     8.9312     0.0000   644.0000 </r>
       <r>     8.9860     0.0000   644.0000 </r>
       <r>     9.0407     0.0000   644.0000 </r>
       <r>     9.0954     0.0000   644.0000 </r>
       <r>     9.1501     0.0000   644.0000 </r>
       <r>     9.2048     0.0000   644.0000 </r>
       <r>     9.2595     0.0000   644.0000 </r>
       <r>     9.3142     0.0000   644.0000 </r>
       <r>     9.3689     0.0000   644.0000 </r>
      </set>
     </set>
    </array>
   </total>
  </dos>
 </calculation>
 <structure name="finalpos" >
  <crystal>
   <varray name="basis" >
    <v>       0.00000000      10.93733369      10.93733369 </v>
    <v>      10.93733369       0.00000000      10.93733369 </v>
    <v>      10.93733369      10.93733369       0.00000000 </v>
   </varray>
   <i name="volume">   2616.76295363 </i>
   <varray name="rec_basis" >
    <v>      -0.04571498       0.04571498       0.04571498 </v>
    <v>       0.04571498      -0.04571498       0.04571498 </v>
    <v>       0.04571498       0.04571498      -0.04571498 </v>
   </varray>
  </crystal>
  <varray name="positions" >
   <v>       0.00785913       0.99841828       0.99533721 </v>
   <v>       0.25760595       0.98997488       0.99406064 </v>
   <v>       0.50338106       0.99600366       0.00576920 </v>
   <v>       0.75695123       0.00329080       0.99511230 </v>
   <v>       0.99467268       0.25334533       0.00333227 </v>
   <v>       0.24861600       0.24208973       0.99603056 </v>
   <v>       0.50255152       0.24915477       0.99818741 </v>
   <v>       0.74919658       0.25135995       0.00569988 </v>
   <v>       0.00853533       0.50499829       0.99105440 </v>
   <v>       0.24762469       0.50419286       0.99315006 </v>
   <v>       0.50075137       0.49763189       0.00130981 </v>
   <v>       0.75626908       0.50172206       0.99463622 </v>
   <v>       0.00783269       0.74577175       0.00348390 </v>
   <v>       0.25139555       0.75454872       0.99456676 </v>
   <v>       0.50622813       0.75455972       0.99009809 </v>
   <v>       0.74829938       0.75726392       0.99044078 </v>
   <v>       0.00999857       0.99693644       0.24484854 </v>
   <v>       0.25822641       0.98702969       0.25284021 </v>
   <v>       0.51149137       0.99458484       0.24766121 </v>
   <v>       0.75164482       0.99313664       0.24609779 </v>
   <v>       0.00670599       0.26493463       0.23712919 </v>
   <v>       0.26138218       0.25095861       0.24607578 </v>
   <v>       0.49692185       0.24552751       0.25134721 </v>
   <v>       0.76620110       0.24653063       0.25218631 </v>
   <v>       0.99945694       0.49906718       0.24490662 </v>
   <v>       0.25259432       0.50236824       0.24133479 </v>
   <v>       0.50587231       0.49457711       0.24983161 </v>
   <v>       0.74629788       0.49665092       0.25203145 </v>
   <v>       0.99444719       0.74959511       0.25475814 </v>
   <v>       0.23420898       0.75689471       0.25007901 </v>
   <v>       0.49903400       0.74953233       0.25004290 </v>
   <v>       0.74701155       0.75001208       0.24366610 </v>
   <v>       0.99549137       0.00405781       0.50012497 </v>
   <v>       0.24506799       0.00033866       0.51042597 </v>
   <v>       0.49616640       0.00755905       0.50415948 </v>
   <v>       0.74951910       0.99670144       0.50601449 </v>
   <v>       0.00142951       0.24476335       0.49120024 </v>
   <v>       0.24566540       0.25017233       0.50153289 </v>
   <v>       0.50251269       0.25230721       0.49593421 </v>
   <v>       0.74672553       0.25600954       0.50397800 </v>
   <v>       0.99477253       0.50765866       0.49705210 </v>
   <v>       0.25589162       0.50023478       0.49420148 </v>
   <v>       0.49450998       0.50187766       0.49771310 </v>
   <v>       0.75722877       0.50150108       0.49986745 </v>
   <v>       0.99462624       0.74841814       0.50246130 </v>
   <v>       0.25609564       0.76418032       0.48911072 </v>
   <v>       0.49880613       0.74103267       0.50479306 </v>
   <v>       0.75441693       0.74132042       0.50221469 </v>
   <v>       0.99527478       0.00354821       0.74647758 </v>
   <v>       0.24232249       0.00138658       0.75922370 </v>
   <v>       0.50192838       0.99419877       0.76237639 </v>
   <v>       0.74877401       0.00286981       0.74095626 </v>
   <v>       0.99947425       0.24335664       0.75089051 </v>
   <v>       0.24561393       0.25696553       0.75306836 </v>
   <v>       0.50570914       0.24820805       0.74226039 </v>
   <v>       0.75592502       0.25070652       0.75011873 </v>
   <v>       0.00002185       0.50505619       0.74146010 </v>
   <v>       0.24128609       0.50110173       0.75344563 </v>
   <v>       0.49627385       0.50551426       0.74747027 </v>
   <v>       0.74252910       0.50776108       0.74203516 </v>
   <v>       0.99763297       0.74694650       0.75660512 </v>
   <v>       0.25493404       0.75764097       0.74440736 </v>
   <v>       0.50041114       0.75413657       0.76321655 </v>
   <v>       0.74783191       0.75061973       0.75714075 </v>
   <v>       0.06154818       0.06756399       0.07046985 </v>
   <v>       0.29955299       0.06013574       0.06879966 </v>
   <v>       0.58021584       0.05649287       0.05753281 </v>
   <v>       0.81910514       0.05345650       0.05941993 </v>
   <v>       0.05639968       0.30752287       0.06506691 </v>
   <v>       0.32314746       0.31140507       0.05669268 </v>
   <v>       0.57109188       0.30416958       0.06183663 </v>
   <v>       0.81631776       0.30163258       0.07039233 </v>
   <v>       0.06710095       0.56038397       0.05252073 </v>
   <v>       0.31000432       0.55498402       0.06732885 </v>
   <v>       0.56018456       0.56918232       0.06121258 </v>
   <v>       0.81054427       0.56211730       0.06204688 </v>
   <v>       0.06098781       0.82202908       0.06165737 </v>
   <v>       0.30308306       0.81169450       0.06555412 </v>
   <v>       0.56229890       0.81219178       0.07095545 </v>
   <v>       0.82058498       0.81355817       0.06252292 </v>
   <v>       0.05767831       0.05592427       0.31750655 </v>
   <v>       0.31908247       0.05786717       0.31749713 </v>
   <v>       0.56463000       0.05610641       0.30911366 </v>
   <v>       0.81205563       0.06217847       0.32465871 </v>
   <v>       0.07161315       0.31482618       0.30274886 </v>
   <v>       0.30477665       0.30809576       0.32478204 </v>
   <v>       0.56335969       0.30823299       0.31401601 </v>
   <v>       0.80900140       0.31893746       0.31660491 </v>
   <v>       0.05234931       0.57327004       0.30672337 </v>
   <v>       0.32432088       0.55734420       0.30572588 </v>
   <v>       0.56483886       0.56341133       0.32257564 </v>
   <v>       0.81067199       0.56213816       0.31672938 </v>
   <v>       0.06311938       0.82010107       0.31286959 </v>
   <v>       0.30941922       0.81353251       0.31017607 </v>
   <v>       0.56931694       0.80962927       0.30896136 </v>
   <v>       0.81282996       0.80454582       0.32429950 </v>
   <v>       0.06524516       0.06428001       0.56105938 </v>
   <v>       0.31684710       0.06710357       0.56938096 </v>
   <v>       0.55578250       0.06914936       0.56136026 </v>
   <v>       0.80613348       0.07018676       0.55618676 </v>
   <v>       0.06787004       0.29822709       0.56317306 </v>
   <v>       0.31446527       0.31804146       0.55860025 </v>
   <v>       0.56849425       0.30325295       0.55905069 </v>
   <v>       0.81304629       0.31164999       0.55061781 </v>
   <v>       0.07196928       0.55193565       0.57077892 </v>
   <v>       0.30878444       0.56142539       0.55435591 </v>
   <v>       0.56377892       0.56229561       0.55989331 </v>
   <v>       0.81452714       0.56888514       0.56390406 </v>
   <v>       0.06093869       0.80494344       0.56570964 </v>
   <v>       0.30134485       0.81865979       0.56571689 </v>
   <v>       0.56421273       0.81045446       0.55762651 </v>
   <v>       0.81447136       0.80225842       0.56468637 </v>
   <v>       0.05816891       0.06604099       0.80679513 </v>
   <v>       0.32628183       0.05659881       0.80526609 </v>
   <v>       0.57286444       0.05191624       0.80769449 </v>
   <v>       0.80765447       0.06185352       0.80547808 </v>
   <v>       0.07089315       0.31728909       0.80272485 </v>
   <v>       0.32002185       0.31393982       0.81965155 </v>
   <v>       0.55963295       0.29864166       0.82780749 </v>
   <v>       0.80551299       0.31349182       0.81564295 </v>
   <v>       0.07075960       0.55347117       0.81611673 </v>
   <v>       0.31823749       0.55699995       0.81361188 </v>
   <v>       0.56330857       0.56296604       0.80857100 </v>
   <v>       0.80937765       0.56757439       0.81003832 </v>
   <v>       0.07388031       0.80361289       0.80672926 </v>
   <v>       0.31197849       0.80886728       0.81584215 </v>
   <v>       0.55753944       0.82189446       0.80906833 </v>
   <v>       0.80626785       0.81565963       0.81099639 </v>
  </varray>
 </structure>
</modeling>
