potpaw_PBE@./ARUN.APL1ZEROSTATE         
           1
     0.000000   10.937334   10.937334
    10.937334    0.000000   10.937334
    10.937334   10.937334    0.000000
   Si
 128
Direct configuration=     1
   0.00785913  0.99841828  0.99533721
   0.25760595  0.98997488  0.99406064
   0.50338106  0.99600366  0.00576920
   0.75695123  0.00329080  0.99511230
   0.99467268  0.25334533  0.00333227
   0.24861600  0.24208973  0.99603056
   0.50255152  0.24915477  0.99818741
   0.74919658  0.25135995  0.00569988
   0.00853533  0.50499829  0.99105440
   0.24762469  0.50419286  0.99315006
   0.50075137  0.49763189  0.00130981
   0.75626908  0.50172206  0.99463622
   0.00783269  0.74577175  0.00348390
   0.25139555  0.75454872  0.99456676
   0.50622813  0.75455972  0.99009809
   0.74829938  0.75726392  0.99044078
   0.00999857  0.99693644  0.24484854
   0.25822641  0.98702969  0.25284021
   0.51149137  0.99458484  0.24766121
   0.75164482  0.99313664  0.24609779
   0.00670599  0.26493463  0.23712919
   0.26138218  0.25095861  0.24607578
   0.49692185  0.24552751  0.25134721
   0.76620110  0.24653063  0.25218631
   0.99945694  0.49906718  0.24490662
   0.25259432  0.50236824  0.24133479
   0.50587231  0.49457711  0.24983161
   0.74629788  0.49665092  0.25203145
   0.99444719  0.74959511  0.25475814
   0.23420898  0.75689471  0.25007901
   0.49903400  0.74953233  0.25004290
   0.74701155  0.75001208  0.24366610
   0.99549137  0.00405781  0.50012497
   0.24506799  0.00033866  0.51042597
   0.49616640  0.00755905  0.50415948
   0.74951910  0.99670144  0.50601449
   0.00142951  0.24476335  0.49120024
   0.24566540  0.25017233  0.50153289
   0.50251269  0.25230721  0.49593421
   0.74672553  0.25600954  0.50397800
   0.99477253  0.50765866  0.49705210
   0.25589162  0.50023478  0.49420148
   0.49450998  0.50187766  0.49771310
   0.75722877  0.50150108  0.49986745
   0.99462624  0.74841814  0.50246130
   0.25609564  0.76418032  0.48911072
   0.49880613  0.74103267  0.50479306
   0.75441693  0.74132042  0.50221469
   0.99527478  0.00354821  0.74647758
   0.24232249  0.00138658  0.75922370
   0.50192838  0.99419877  0.76237639
   0.74877401  0.00286981  0.74095626
   0.99947425  0.24335664  0.75089051
   0.24561393  0.25696553  0.75306836
   0.50570914  0.24820805  0.74226039
   0.75592502  0.25070652  0.75011873
   0.00002185  0.50505619  0.74146010
   0.24128609  0.50110173  0.75344563
   0.49627385  0.50551426  0.74747027
   0.74252910  0.50776108  0.74203516
   0.99763297  0.74694650  0.75660512
   0.25493404  0.75764097  0.74440736
   0.50041114  0.75413657  0.76321655
   0.74783191  0.75061973  0.75714075
   0.06154818  0.06756399  0.07046985
   0.29955299  0.06013574  0.06879966
   0.58021584  0.05649287  0.05753281
   0.81910514  0.05345650  0.05941993
   0.05639968  0.30752287  0.06506691
   0.32314746  0.31140507  0.05669268
   0.57109188  0.30416958  0.06183663
   0.81631776  0.30163258  0.07039233
   0.06710095  0.56038397  0.05252073
   0.31000432  0.55498402  0.06732885
   0.56018456  0.56918232  0.06121258
   0.81054427  0.56211730  0.06204688
   0.06098781  0.82202908  0.06165737
   0.30308306  0.81169450  0.06555412
   0.56229890  0.81219178  0.07095545
   0.82058498  0.81355817  0.06252292
   0.05767831  0.05592427  0.31750655
   0.31908247  0.05786717  0.31749713
   0.56463000  0.05610641  0.30911366
   0.81205563  0.06217847  0.32465871
   0.07161315  0.31482618  0.30274886
   0.30477665  0.30809576  0.32478204
   0.56335969  0.30823299  0.31401601
   0.80900140  0.31893746  0.31660491
   0.05234931  0.57327004  0.30672337
   0.32432088  0.55734420  0.30572588
   0.56483886  0.56341133  0.32257564
   0.81067199  0.56213816  0.31672938
   0.06311938  0.82010107  0.31286959
   0.30941922  0.81353251  0.31017607
   0.56931694  0.80962927  0.30896136
   0.81282996  0.80454582  0.32429950
   0.06524516  0.06428001  0.56105938
   0.31684710  0.06710357  0.56938096
   0.55578250  0.06914936  0.56136026
   0.80613348  0.07018676  0.55618676
   0.06787004  0.29822709  0.56317306
   0.31446527  0.31804146  0.55860025
   0.56849425  0.30325295  0.55905069
   0.81304629  0.31164999  0.55061781
   0.07196928  0.55193565  0.57077892
   0.30878444  0.56142539  0.55435591
   0.56377892  0.56229561  0.55989331
   0.81452714  0.56888514  0.56390406
   0.06093869  0.80494344  0.56570964
   0.30134485  0.81865979  0.56571689
   0.56421273  0.81045446  0.55762651
   0.81447136  0.80225842  0.56468637
   0.05816891  0.06604099  0.80679513
   0.32628183  0.05659881  0.80526609
   0.57286444  0.05191624  0.80769449
   0.80765447  0.06185352  0.80547808
   0.07089315  0.31728909  0.80272485
   0.32002185  0.31393982  0.81965155
   0.55963295  0.29864166  0.82780749
   0.80551299  0.31349182  0.81564295
   0.07075960  0.55347117  0.81611673
   0.31823749  0.55699995  0.81361188
   0.56330857  0.56296604  0.80857100
   0.80937765  0.56757439  0.81003832
   0.07388031  0.80361289  0.80672926
   0.31197849  0.80886728  0.81584215
   0.55753944  0.82189446  0.80906833
   0.80626785  0.81565963  0.81099639
