 128 128   0   0
  0.2044346E+02  0.1546773E-08  0.1546773E-08  0.1546773E-08  0.5000000E-15
  1.000000000000000E-004
  CAR 
 potpaw_PBE@./ARUN.APL1ZEROSTATE         
      9.29436178     -7.05509387  301      5.92909882      1.00000000
     -7.055  0.0000E+00  0.0000E+00
     -7.001  0.0000E+00  0.0000E+00
     -6.946  0.0000E+00  0.0000E+00
     -6.892  0.0000E+00  0.0000E+00
     -6.837  0.0000E+00  0.0000E+00
     -6.783  0.0000E+00  0.0000E+00
     -6.728  0.0000E+00  0.0000E+00
     -6.674  0.0000E+00  0.0000E+00
     -6.619  0.0000E+00  0.0000E+00
     -6.565  0.0000E+00  0.0000E+00
     -6.510  0.0000E+00  0.0000E+00
     -6.456  0.0000E+00  0.0000E+00
     -6.401  0.0000E+00  0.0000E+00
     -6.347  0.2147E-05  0.1170E-06
     -6.292  0.4576E+01  0.2494E+00
     -6.238  0.1163E-01  0.2500E+00
     -6.183  0.2707E-01  0.2515E+00
     -6.129  0.1816E+02  0.1241E+01
     -6.074  0.2939E+02  0.2843E+01
     -6.020  0.1583E+02  0.3705E+01
     -5.965  0.8243E+00  0.3750E+01
     -5.911  0.1898E+01  0.3853E+01
     -5.856  0.8047E+01  0.4292E+01
     -5.802  0.1334E+02  0.5019E+01
     -5.747  0.1621E+02  0.5902E+01
     -5.693  0.2835E+02  0.7448E+01
     -5.638  0.4007E+02  0.9631E+01
     -5.584  0.2009E+02  0.1073E+02
     -5.529  0.2520E+02  0.1210E+02
     -5.475  0.2379E+02  0.1340E+02
     -5.420  0.1709E+02  0.1433E+02
     -5.366  0.7690E+01  0.1475E+02
     -5.311  0.4658E+01  0.1500E+02
     -5.257  0.4786E+01  0.1526E+02
     -5.202  0.2828E+02  0.1680E+02
     -5.148  0.3534E+02  0.1873E+02
     -5.093  0.4932E+02  0.2142E+02
     -5.039  0.3710E+02  0.2344E+02
     -4.984  0.3321E+02  0.2525E+02
     -4.930  0.4364E+02  0.2763E+02
     -4.875  0.1171E+02  0.2826E+02
     -4.821  0.2160E+02  0.2944E+02
     -4.766  0.1931E+02  0.3049E+02
     -4.712  0.4645E+02  0.3302E+02
     -4.657  0.4494E+02  0.3547E+02
     -4.603  0.2557E+02  0.3687E+02
     -4.548  0.3530E+02  0.3879E+02
     -4.494  0.3598E+02  0.4075E+02
     -4.439  0.2930E+02  0.4235E+02
     -4.385  0.1634E+02  0.4324E+02
     -4.330  0.3018E+02  0.4488E+02
     -4.276  0.3308E+02  0.4669E+02
     -4.221  0.4727E+02  0.4926E+02
     -4.167  0.6010E+02  0.5254E+02
     -4.112  0.5913E+02  0.5576E+02
     -4.058  0.5038E+02  0.5851E+02
     -4.003  0.5466E+02  0.6149E+02
     -3.949  0.4184E+02  0.6377E+02
     -3.894  0.3766E+02  0.6582E+02
     -3.840  0.5672E+02  0.6891E+02
     -3.785  0.5260E+02  0.7178E+02
     -3.731  0.4948E+02  0.7447E+02
     -3.676  0.4451E+02  0.7690E+02
     -3.622  0.2963E+02  0.7851E+02
     -3.567  0.3714E+02  0.8054E+02
     -3.513  0.3891E+02  0.8266E+02
     -3.458  0.5180E+02  0.8548E+02
     -3.404  0.4667E+02  0.8802E+02
     -3.349  0.5557E+02  0.9105E+02
     -3.295  0.3108E+02  0.9275E+02
     -3.240  0.5065E+02  0.9551E+02
     -3.186  0.3102E+02  0.9720E+02
     -3.131  0.4579E+02  0.9969E+02
     -3.077  0.4331E+02  0.1021E+03
     -3.022  0.5043E+02  0.1048E+03
     -2.968  0.4242E+02  0.1071E+03
     -2.913  0.2216E+02  0.1083E+03
     -2.859  0.4273E+02  0.1106E+03
     -2.804  0.3622E+02  0.1126E+03
     -2.750  0.2989E+02  0.1143E+03
     -2.695  0.2447E+02  0.1156E+03
     -2.641  0.3880E+02  0.1177E+03
     -2.586  0.4163E+02  0.1200E+03
     -2.532  0.2149E+02  0.1211E+03
     -2.477  0.2015E+02  0.1222E+03
     -2.423  0.7899E+01  0.1227E+03
     -2.368  0.4730E+01  0.1229E+03
     -2.314  0.5983E+01  0.1233E+03
     -2.259  0.9783E+01  0.1238E+03
     -2.205  0.1269E+02  0.1245E+03
     -2.150  0.2647E+02  0.1259E+03
     -2.096  0.2154E+02  0.1271E+03
     -2.041  0.3937E+02  0.1292E+03
     -1.987  0.3019E+02  0.1309E+03
     -1.932  0.1685E+02  0.1318E+03
     -1.878  0.8798E+01  0.1323E+03
     -1.823  0.8472E+01  0.1327E+03
     -1.769  0.4987E+01  0.1330E+03
     -1.714  0.9917E+01  0.1336E+03
     -1.660  0.1223E+02  0.1342E+03
     -1.605  0.2174E+02  0.1354E+03
     -1.551  0.3552E+02  0.1373E+03
     -1.496  0.3288E+02  0.1391E+03
     -1.442  0.2413E+02  0.1405E+03
     -1.387  0.4193E+02  0.1427E+03
     -1.333  0.5170E+02  0.1456E+03
     -1.278  0.4651E+02  0.1481E+03
     -1.224  0.6652E+02  0.1517E+03
     -1.169  0.5830E+02  0.1549E+03
     -1.115  0.5635E+02  0.1580E+03
     -1.060  0.6860E+02  0.1617E+03
     -1.006  0.7642E+02  0.1659E+03
     -0.951  0.7113E+02  0.1697E+03
     -0.897  0.5987E+02  0.1730E+03
     -0.842  0.5294E+02  0.1759E+03
     -0.788  0.6342E+02  0.1793E+03
     -0.733  0.3898E+02  0.1815E+03
     -0.679  0.5546E+02  0.1845E+03
     -0.624  0.4540E+02  0.1870E+03
     -0.570  0.2633E+02  0.1884E+03
     -0.515  0.2376E+02  0.1897E+03
     -0.461  0.1806E+02  0.1907E+03
     -0.406  0.3470E+02  0.1926E+03
     -0.352  0.3690E+02  0.1946E+03
     -0.297  0.4844E+02  0.1972E+03
     -0.243  0.4088E+02  0.1995E+03
     -0.188  0.4969E+02  0.2022E+03
     -0.134  0.5032E+02  0.2049E+03
     -0.079  0.5581E+02  0.2079E+03
     -0.025  0.4263E+02  0.2103E+03
      0.030  0.3321E+02  0.2121E+03
      0.084  0.1766E+02  0.2130E+03
      0.139  0.1312E+02  0.2138E+03
      0.193  0.9363E+01  0.2143E+03
      0.248  0.2461E+02  0.2156E+03
      0.302  0.1863E+02  0.2166E+03
      0.357  0.2366E+02  0.2179E+03
      0.411  0.2368E+02  0.2192E+03
      0.466  0.1616E+02  0.2201E+03
      0.520  0.3618E+02  0.2221E+03
      0.575  0.2299E+02  0.2233E+03
      0.629  0.1561E+02  0.2242E+03
      0.684  0.2003E+02  0.2252E+03
      0.738  0.1377E+02  0.2260E+03
      0.793  0.1703E+02  0.2269E+03
      0.847  0.1510E+02  0.2277E+03
      0.902  0.3570E+01  0.2279E+03
      0.956  0.3204E+02  0.2297E+03
      1.011  0.2003E+02  0.2308E+03
      1.065  0.3283E+02  0.2326E+03
      1.120  0.3081E+02  0.2342E+03
      1.174  0.1993E+02  0.2353E+03
      1.229  0.1972E+02  0.2364E+03
      1.283  0.2443E+02  0.2377E+03
      1.338  0.3213E+02  0.2395E+03
      1.392  0.4086E+02  0.2417E+03
      1.447  0.6392E+02  0.2452E+03
      1.501  0.7154E+02  0.2491E+03
      1.556  0.8398E+02  0.2537E+03
      1.610  0.9150E+02  0.2587E+03
      1.665  0.7884E+02  0.2630E+03
      1.719  0.5591E+02  0.2660E+03
      1.774  0.6046E+02  0.2693E+03
      1.828  0.3526E+02  0.2712E+03
      1.883  0.3046E+02  0.2729E+03
      1.937  0.2175E+02  0.2741E+03
      1.992  0.1910E+02  0.2751E+03
      2.046  0.5399E+02  0.2781E+03
      2.101  0.7537E+02  0.2822E+03
      2.155  0.1012E+03  0.2877E+03
      2.210  0.1141E+03  0.2939E+03
      2.264  0.1220E+03  0.3005E+03
      2.319  0.1123E+03  0.3067E+03
      2.373  0.1078E+03  0.3125E+03
      2.428  0.8362E+02  0.3171E+03
      2.482  0.6924E+02  0.3209E+03
      2.537  0.3307E+02  0.3227E+03
      2.591  0.3787E+02  0.3247E+03
      2.646  0.5834E+02  0.3279E+03
      2.700  0.7132E+02  0.3318E+03
      2.755  0.8628E+02  0.3365E+03
      2.809  0.8854E+02  0.3413E+03
      2.864  0.8169E+02  0.3458E+03
      2.918  0.1057E+03  0.3515E+03
      2.973  0.1061E+03  0.3573E+03
      3.027  0.8582E+02  0.3620E+03
      3.082  0.8126E+02  0.3664E+03
      3.136  0.8143E+02  0.3709E+03
      3.191  0.6848E+02  0.3746E+03
      3.245  0.9211E+02  0.3796E+03
      3.300  0.7066E+02  0.3835E+03
      3.354  0.1227E+03  0.3902E+03
      3.409  0.9075E+02  0.3951E+03
      3.463  0.8492E+02  0.3997E+03
      3.518  0.7367E+02  0.4037E+03
      3.572  0.9002E+02  0.4087E+03
      3.627  0.7771E+02  0.4129E+03
      3.681  0.7803E+02  0.4171E+03
      3.736  0.7910E+02  0.4215E+03
      3.790  0.8864E+02  0.4263E+03
      3.845  0.8428E+02  0.4309E+03
      3.899  0.7766E+02  0.4351E+03
      3.954  0.5510E+02  0.4381E+03
      4.008  0.6635E+02  0.4417E+03
      4.063  0.6553E+02  0.4453E+03
      4.117  0.7518E+02  0.4494E+03
      4.172  0.7019E+02  0.4532E+03
      4.226  0.7797E+02  0.4575E+03
      4.281  0.7882E+02  0.4618E+03
      4.335  0.5426E+02  0.4647E+03
      4.390  0.7432E+02  0.4688E+03
      4.444  0.6828E+02  0.4725E+03
      4.499  0.6472E+02  0.4760E+03
      4.553  0.5688E+02  0.4791E+03
      4.608  0.7044E+02  0.4830E+03
      4.662  0.4312E+02  0.4853E+03
      4.717  0.5489E+02  0.4883E+03
      4.771  0.4068E+02  0.4905E+03
      4.826  0.2406E+02  0.4918E+03
      4.880  0.3717E+02  0.4939E+03
      4.935  0.4139E+02  0.4961E+03
      4.989  0.3193E+02  0.4979E+03
      5.044  0.3190E+02  0.4996E+03
      5.098  0.2184E+02  0.5008E+03
      5.152  0.2303E+02  0.5020E+03
      5.207  0.1767E+02  0.5030E+03
      5.261  0.9175E+01  0.5035E+03
      5.316  0.1392E+02  0.5043E+03
      5.370  0.1407E+02  0.5050E+03
      5.425  0.2154E+02  0.5062E+03
      5.479  0.2366E+02  0.5075E+03
      5.534  0.1400E+02  0.5083E+03
      5.588  0.2730E+02  0.5097E+03
      5.643  0.2539E+02  0.5111E+03
      5.697  0.2457E+01  0.5113E+03
      5.752  0.4442E+01  0.5115E+03
      5.806  0.4581E+01  0.5117E+03
      5.861  0.4058E+01  0.5120E+03
      5.915  0.5294E+00  0.5120E+03
      5.970  0.0000E+00  0.5120E+03
      6.024  0.0000E+00  0.5120E+03
      6.079  0.2271E+00  0.5120E+03
      6.133  0.1442E+02  0.5128E+03
      6.188  0.1556E+02  0.5136E+03
      6.242  0.2108E+02  0.5148E+03
      6.297  0.8335E+01  0.5152E+03
      6.351  0.3159E+02  0.5170E+03
      6.406  0.1554E+02  0.5178E+03
      6.460  0.2792E+02  0.5193E+03
      6.515  0.2350E+02  0.5206E+03
      6.569  0.1390E+02  0.5214E+03
      6.624  0.2441E+02  0.5227E+03
      6.678  0.1151E+02  0.5233E+03
      6.733  0.2926E+02  0.5249E+03
      6.787  0.3825E+02  0.5270E+03
      6.842  0.2622E+02  0.5284E+03
      6.896  0.4291E+02  0.5308E+03
      6.951  0.3898E+02  0.5329E+03
      7.005  0.3544E+02  0.5348E+03
      7.060  0.4972E+02  0.5375E+03
      7.114  0.3061E+02  0.5392E+03
      7.169  0.3039E+02  0.5409E+03
      7.223  0.3530E+02  0.5428E+03
      7.278  0.7072E+02  0.5466E+03
      7.332  0.5744E+02  0.5498E+03
      7.387  0.8316E+02  0.5543E+03
      7.441  0.8490E+02  0.5589E+03
      7.496  0.8239E+02  0.5634E+03
      7.550  0.8907E+02  0.5683E+03
      7.605  0.8251E+02  0.5728E+03
      7.659  0.8826E+02  0.5776E+03
      7.714  0.7884E+02  0.5819E+03
      7.768  0.9213E+02  0.5869E+03
      7.823  0.9709E+02  0.5922E+03
      7.877  0.9635E+02  0.5974E+03
      7.932  0.9539E+02  0.6026E+03
      7.986  0.9210E+02  0.6077E+03
      8.041  0.6036E+02  0.6110E+03
      8.095  0.8897E+02  0.6158E+03
      8.150  0.9456E+02  0.6210E+03
      8.204  0.8038E+02  0.6253E+03
      8.259  0.8969E+02  0.6302E+03
      8.313  0.8214E+02  0.6347E+03
      8.368  0.6392E+02  0.6382E+03
      8.422  0.7559E+02  0.6423E+03
      8.477  0.2626E+02  0.6437E+03
      8.531  0.2428E+00  0.6438E+03
      8.586  0.4576E+01  0.6440E+03
      8.640  0.0000E+00  0.6440E+03
      8.695  0.0000E+00  0.6440E+03
      8.749  0.0000E+00  0.6440E+03
      8.804  0.0000E+00  0.6440E+03
      8.858  0.0000E+00  0.6440E+03
      8.913  0.0000E+00  0.6440E+03
      8.967  0.0000E+00  0.6440E+03
      9.022  0.0000E+00  0.6440E+03
      9.076  0.0000E+00  0.6440E+03
      9.131  0.0000E+00  0.6440E+03
      9.185  0.0000E+00  0.6440E+03
      9.240  0.0000E+00  0.6440E+03
      9.294  0.0000E+00  0.6440E+03
