 vasp.5.4.4.18Apr17-6-g9f103f2a35 (build Nov 08 2017 09:05:29) complex          
  
 executed on          Intel_17.33 date 2020.07.18  23:44:55
 running on   32 total cores
 distrk:  each k-point on   32 cores,    1 groups
 distr:  one band on NCORES_PER_BAND=  16 cores,    2 groups


--------------------------------------------------------------------------------------------------------


 INCAR:
 POTCAR:   PAW_PBE Si 05Jan2001                   

 ----------------------------------------------------------------------------- 
|                                                                             |
|           W    W    AA    RRRRR   N    N  II  N    N   GGGG   !!!           |
|           W    W   A  A   R    R  NN   N  II  NN   N  G    G  !!!           |
|           W    W  A    A  R    R  N N  N  II  N N  N  G       !!!           |
|           W WW W  AAAAAA  RRRRR   N  N N  II  N  N N  G  GGG   !            |
|           WW  WW  A    A  R   R   N   NN  II  N   NN  G    G                |
|           W    W  A    A  R    R  N    N  II  N    N   GGGG   !!!           |
|                                                                             |
|      For optimal performance we recommend to set                            |
|        NCORE= 4 - approx SQRT( number of cores)                             |
|      NCORE specifies how many cores store one orbital (NPAR=cpu/NCORE).     |
|      This setting can  greatly improve the performance of VASP for DFT.     |
|      The default,   NCORE=1            might be grossly inefficient         |
|      on modern multi-core architectures or massively parallel machines.     |
|      Do your own testing !!!!                                               |
|      Unfortunately you need to use the default for GW and RPA calculations. |
|      (for HF NCORE is supported but not extensively tested yet)             |
|                                                                             |
 ----------------------------------------------------------------------------- 

 POTCAR:   PAW_PBE Si 05Jan2001                   
   VRHFIN =Si: s2p2                                                             
   LEXCH  = PE                                                                  
   EATOM  =   103.0669 eV,    7.5752 Ry                                         
                                                                                
   TITEL  = PAW_PBE Si 05Jan2001                                                
   LULTRA =        F    use ultrasoft PP ?                                      
   IUNSCR =        1    unscreen: 0-lin 1-nonlin 2-no                           
   RPACOR =    1.500    partial core radius                                     
   POMASS =   28.085; ZVAL   =    4.000    mass and valenz                      
   RCORE  =    1.900    outmost cutoff radius                                   
   RWIGS  =    2.480; RWIGS  =    1.312    wigner-seitz radius (au A)           
   ENMAX  =  245.345; ENMIN  =  184.009 eV                                      
   ICORE  =        2    local potential                                         
   LCOR   =        T    correct aug charges                                     
   LPAW   =        T    paw PP                                                  
   EAUG   =  322.069                                                            
   DEXC   =    -.007                                                            
   RMAX   =    2.944    core radius for proj-oper                               
   RAUG   =    1.300    factor for augmentation sphere                          
   RDEP   =    1.993    radius for radial grids                                 
   QCUT   =   -4.246; QGAM   =    8.493    optimization parameters              
                                                                                
   Description                                                                  
     l     E      TYP  RCUT    TYP  RCUT                                        
     0   .000     23  1.900                                                     
     0   .000     23  1.900                                                     
     1   .000     23  1.900                                                     
     1   .000     23  1.900                                                     
     2   .000      7  1.900                                                     
  local pseudopotential read in
  partial core-charges read in
  atomic valenz-charges read in
  non local Contribution for L=           0  read in
    real space projection operators read in
  non local Contribution for L=           0  read in
    real space projection operators read in
  non local Contribution for L=           1  read in
    real space projection operators read in
  non local Contribution for L=           1  read in
    real space projection operators read in
    PAW grid and wavefunctions read in
 
   number of l-projection  operators is LMAX  =           4
   number of lm-projection operators is LMMAX =           8
 

 ----------------------------------------------------------------------------- 
|                                                                             |
|  ADVICE TO THIS USER RUNNING 'VASP/VAMP'   (HEAR YOUR MASTER'S VOICE ...):  |
|                                                                             |
|      You have a (more or less) 'large supercell' and for larger cells       |
|      it might be more efficient to use real space projection operators      |
|      So try LREAL= Auto  in the INCAR   file.                               |
|      Mind: If you want to do a very accurate calculations keep the          |
|      reciprocal projection scheme          (i.e. LREAL=.FALSE.)             |
|                                                                             |
 ----------------------------------------------------------------------------- 

 PAW_PBE Si 05Jan2001                   :
 energy of atom  1       EATOM= -103.0669
 kinetic energy error for atom=    0.0006 (will be added to EATOM!!)
 
 
 POSCAR: kk                                      
  positions in direct lattice
  No initial velocities read in
 exchange correlation table for  LEXCH =        8
   RHO(1)=    0.500       N(1)  =     2000
   RHO(2)=  100.500       N(2)  =     4000
 


--------------------------------------------------------------------------------------------------------


 ion  position               nearest neighbor table
   1  0.994  0.001  0.003- 113 2.26  68 2.30  77 2.32  65 2.46
   2  0.244  0.011  0.996-  65 2.22  66 2.33  78 2.39 114 2.40
   3  0.495  0.003  0.010-  67 2.40  66 2.41  79 2.42 115 2.68
   4  0.750  0.005  0.993- 116 2.27  80 2.30  67 2.35  68 2.41
   5  0.994  0.252  0.004-  72 2.39  65 2.42  69 2.45 117 2.46
   6  0.260  0.261  0.983- 118 2.20  69 2.36  70 2.38  66 2.65
   7  0.501  0.245  0.000-  67 2.31 119 2.33  70 2.46  71 2.69
   8  0.759  0.246  0.997-  68 2.20 120 2.28  72 2.31  71 2.41
   9  0.013  0.493  0.991-  69 2.19 121 2.33  73 2.43  76 2.47
  10  0.249  0.500  0.004-  74 2.26 122 2.27  70 2.28  73 2.30
  11  0.502  0.493  0.994-  71 2.22 123 2.22  75 2.42  74 2.46
  12  0.751  0.515  0.998-  76 2.20 124 2.41  75 2.50  72 2.55
  13  0.002  0.751  1.000- 125 2.29  80 2.30  77 2.34  73 2.41
  14  0.247  0.759  0.998-  77 2.34  78 2.41 126 2.48  74 2.52
  15  0.502  0.756  0.995-  78 2.29  79 2.35 127 2.38  75 2.49
  16  0.753  0.737  0.011-  76 2.27  79 2.37  80 2.41 128 2.49
  17  0.007  0.004  0.242-  65 2.26  81 2.38  93 2.48  84 2.50
  18  0.258  0.995  0.256-  82 2.28  66 2.29  94 2.40  81 2.56
  19  0.510  1.000  0.248-  67 2.25  83 2.37  95 2.44  82 2.66
  20  0.749  0.993  0.239-  96 2.23  83 2.30  68 2.33  84 2.53
  21  0.005  0.255  0.243-  81 2.26  69 2.43  88 2.44  85 2.46
  22  0.244  0.250  0.250-  82 2.22  85 2.32  70 2.34  86 2.50
  23  0.507  0.246  0.238-  71 2.14  83 2.26  86 2.34  87 2.47
  24  0.749  0.255  0.250-  88 2.26  72 2.32  87 2.37  84 2.51
  25  0.995  0.500  0.255-  89 2.23  85 2.25  92 2.28  73 2.45
  26  0.254  0.486  0.261-  86 2.10  90 2.36  74 2.47  89 2.53
  27  0.510  0.485  0.243-  75 2.26  87 2.26  90 2.31  91 2.51
  28  0.743  0.511  0.244-  91 2.24  76 2.31  92 2.35  88 2.52
  29  0.007  0.736  0.261-  93 2.20  89 2.21  96 2.40  77 2.54
  30  0.253  0.758  0.245-  94 2.21  78 2.45  93 2.52  90 2.54
  31  0.511  0.745  0.260-  91 2.33  95 2.33  79 2.51  94 2.55
  32  0.754  0.749  0.238-  92 2.27  95 2.38  96 2.43  80 2.45
  33  0.016  0.997  0.493-  97 2.26  81 2.34 109 2.40 100 2.54
  34  0.252  0.001  0.503-  98 2.24 110 2.37  82 2.39  97 2.41
  35  0.492  0.009  0.492-  83 2.32  98 2.33  99 2.47 111 2.56
  36  0.761  0.992  0.507- 100 2.31 112 2.36  84 2.43  99 2.45
  37  0.998  0.253  0.493- 101 2.21 104 2.23  85 2.28  97 2.31
  38  0.250  0.261  0.497- 102 2.30  86 2.51  98 2.56 101 2.63
  39  0.497  0.256  0.500- 102 2.19 103 2.25  87 2.31  99 2.41
  40  0.747  0.253  0.488- 100 2.26  88 2.26 103 2.57 104 2.62
  41  0.003  0.500  0.503-  89 2.46 101 2.49 105 2.50 108 2.61
  42  0.266  0.477  0.492- 102 2.28  90 2.41 106 2.58 105 2.62
  43  0.492  0.496  0.503- 103 2.26 106 2.30 107 2.34  91 2.46
  44  0.761  0.492  0.493- 104 2.21 108 2.32  92 2.46 107 2.47
  45  0.999  0.745  0.497- 105 2.20  93 2.31 112 2.34 109 2.43
  46  0.243  0.753  0.501- 110 2.29 109 2.30 106 2.32  94 2.34
  47  0.496  0.739  0.517- 107 2.36 110 2.40  95 2.42 111 2.46
  48  0.768  0.740  0.496- 111 2.27 112 2.32 108 2.33  96 2.51
  49  0.991  0.002  0.739- 116 2.24  97 2.37 125 2.43 113 2.64
  50  0.254  0.010  0.743-  98 2.25 114 2.27 113 2.43 126 2.45
  51  0.502  0.000  0.734-  99 2.26 127 2.37 115 2.50 114 2.55
  52  0.749  0.994  0.756- 116 2.30 128 2.31 115 2.35 100 2.59
  53  0.002  0.240  0.751- 101 2.31 113 2.37 120 2.48 117 2.53
  54  0.246  0.248  0.754- 114 2.13 117 2.33 102 2.38 118 2.43
  55  0.493  0.254  0.748- 103 2.26 115 2.31 118 2.32 119 2.52
  56  0.760  0.249  0.744- 120 2.27 104 2.37 119 2.48 116 2.49
  57  0.002  0.501  0.755- 117 2.26 124 2.29 121 2.30 105 2.33
  58  0.253  0.495  0.754- 118 2.20 122 2.44 121 2.49 106 2.49
  59  0.490  0.514  0.753- 123 2.30 122 2.31 107 2.48 119 2.52
  60  0.749  0.498  0.756- 124 2.30 123 2.31 108 2.34 120 2.39
  61  0.993  0.765  0.749- 128 2.19 109 2.34 125 2.38 121 2.42
  62  0.252  0.751  0.743- 110 2.36 125 2.36 122 2.39 126 2.44
  63  0.505  0.747  0.745- 126 2.34 127 2.39 123 2.46 111 2.54
  64  0.753  0.764  0.748- 112 2.29 128 2.30 127 2.37 124 2.66
  65  0.068  0.060  0.063-   2 2.22  17 2.26   5 2.42   1 2.46
  66  0.305  0.054  0.076-  18 2.29   2 2.33   3 2.41   6 2.65
  67  0.565  0.063  0.070-  19 2.25   7 2.31   4 2.35   3 2.40
  68  0.812  0.072  0.056-   8 2.20   1 2.30  20 2.33   4 2.41
  69  0.073  0.320  0.050-   9 2.19   6 2.36  21 2.43   5 2.45
  70  0.307  0.320  0.065-  10 2.28  22 2.34   6 2.38   7 2.46
  71  0.570  0.320  0.070-  23 2.14  11 2.22   8 2.41   7 2.69
  72  0.805  0.313  0.066-   8 2.31  24 2.32   5 2.39  12 2.55
  73  0.068  0.561  0.061-  10 2.30  13 2.41   9 2.43  25 2.45
  74  0.307  0.560  0.065-  10 2.26  11 2.46  26 2.47  14 2.52
  75  0.555  0.559  0.066-  27 2.26  11 2.42  15 2.49  12 2.50
  76  0.818  0.558  0.062-  12 2.20  16 2.27  28 2.31   9 2.47
  77  0.062  0.817  0.060-   1 2.32  13 2.34  14 2.34  29 2.54
  78  0.321  0.822  0.051-  15 2.29   2 2.39  14 2.41  30 2.45
  79  0.565  0.812  0.062-  15 2.35  16 2.37   3 2.42  31 2.51
  80  0.821  0.823  0.045-  13 2.30   4 2.30  16 2.41  32 2.45
  81  0.056  0.076  0.309-  21 2.26  33 2.34  17 2.38  18 2.56
  82  0.300  0.074  0.314-  22 2.22  18 2.28  34 2.39  19 2.66
  83  0.569  0.068  0.309-  23 2.26  20 2.30  35 2.32  19 2.37
  84  0.810  0.056  0.316-  36 2.43  17 2.50  24 2.51  20 2.53
  85  0.061  0.322  0.313-  25 2.25  37 2.28  22 2.32  21 2.46
  86  0.322  0.321  0.298-  26 2.10  23 2.34  22 2.50  38 2.51
  87  0.562  0.307  0.317-  27 2.26  39 2.31  24 2.37  23 2.47
  88  0.812  0.312  0.309-  40 2.26  24 2.26  21 2.44  28 2.52
  89  0.055  0.562  0.309-  29 2.21  25 2.23  41 2.46  26 2.53
  90  0.327  0.558  0.302-  27 2.31  26 2.36  42 2.41  30 2.54
  91  0.566  0.562  0.309-  28 2.24  31 2.33  43 2.46  27 2.51
  92  0.815  0.570  0.299-  32 2.27  25 2.28  28 2.35  44 2.46
  93  0.055  0.808  0.314-  29 2.20  45 2.31  17 2.48  30 2.52
  94  0.310  0.806  0.315-  30 2.21  46 2.34  18 2.40  31 2.55
  95  0.568  0.807  0.326-  31 2.33  32 2.38  47 2.42  19 2.44
  96  0.819  0.817  0.298-  20 2.23  29 2.40  32 2.43  48 2.51
  97  0.061  0.070  0.552-  33 2.26  37 2.31  49 2.37  34 2.41
  98  0.308  0.059  0.566-  34 2.24  50 2.25  35 2.33  38 2.56
  99  0.567  0.065  0.555-  51 2.26  39 2.41  36 2.45  35 2.47
 100  0.815  0.075  0.552-  40 2.26  36 2.31  33 2.54  52 2.59
 101  0.044  0.305  0.569-  37 2.21  53 2.31  41 2.49  38 2.63
 102  0.325  0.298  0.566-  39 2.19  42 2.28  38 2.30  54 2.38
 103  0.544  0.318  0.570-  39 2.25  55 2.26  43 2.26  40 2.57
 104  0.822  0.317  0.556-  44 2.21  37 2.23  56 2.37  40 2.62
 105  0.063  0.572  0.570-  45 2.20  57 2.33  41 2.50  42 2.62
 106  0.310  0.570  0.557-  43 2.30  46 2.32  58 2.49  42 2.58
 107  0.565  0.554  0.558-  43 2.34  47 2.36  44 2.47  59 2.48
 108  0.797  0.559  0.571-  44 2.32  48 2.33  60 2.34  41 2.61
 109  0.061  0.808  0.564-  46 2.30  61 2.34  33 2.40  45 2.43
 110  0.308  0.814  0.556-  46 2.29  62 2.36  34 2.37  47 2.40
 111  0.589  0.809  0.545-  48 2.27  47 2.46  63 2.54  35 2.56
 112  0.814  0.806  0.568-  64 2.29  48 2.32  45 2.34  36 2.36
 113  0.064  0.052  0.824-   1 2.26  53 2.37  50 2.43  49 2.64
 114  0.301  0.080  0.807-  54 2.13  50 2.27   2 2.40  51 2.55
 115  0.564  0.072  0.797-  55 2.31  52 2.35  51 2.50   3 2.68
 116  0.815  0.052  0.814-  49 2.24   4 2.27  52 2.30  56 2.49
 117  0.062  0.323  0.809-  57 2.26  54 2.33   5 2.46  53 2.53
 118  0.310  0.320  0.810-   6 2.20  58 2.20  55 2.32  54 2.43
 119  0.564  0.315  0.816-   7 2.33  56 2.48  59 2.52  55 2.52
 120  0.806  0.308  0.817-  56 2.27   8 2.28  60 2.39  53 2.48
 121  0.056  0.574  0.809-  57 2.30   9 2.33  61 2.42  58 2.49
 122  0.307  0.563  0.824-  10 2.27  59 2.31  62 2.39  58 2.44
 123  0.566  0.553  0.818-  11 2.22  59 2.30  60 2.31  63 2.46
 124  0.821  0.554  0.809-  57 2.29  60 2.30  12 2.41  64 2.66
 125  0.065  0.812  0.818-  13 2.29  62 2.36  61 2.38  49 2.43
 126  0.320  0.817  0.802-  63 2.34  62 2.44  50 2.45  14 2.48
 127  0.567  0.813  0.807-  64 2.37  51 2.37  15 2.38  63 2.39
 128  0.820  0.812  0.815-  61 2.19  64 2.30  52 2.31  16 2.49
 
  LATTYP: Found a face centered cubic cell.
 ALAT       =    21.8746673814
  
  Lattice vectors:
  
 A1 = (   0.0000000000,  10.9373336907,  10.9373336907)
 A2 = (  10.9373336907,   0.0000000000,  10.9373336907)
 A3 = (  10.9373336907,  10.9373336907,   0.0000000000)


Analysis of symmetry for initial positions (statically):
=====================================================================
 Subroutine PRICEL returns:
 Original cell was already a primitive cell.
 

 Routine SETGRP: Setting up the symmetry group for a 
 face centered cubic supercell.


 Subroutine GETGRP returns: Found  1 space group operations
 (whereof  1 operations were pure point group operations)
 out of a pool of 48 trial point group operations.


The static configuration has the point symmetry C_1 .


Analysis of symmetry for dynamics (positions and initial velocities):
=====================================================================
 Subroutine PRICEL returns:
 Original cell was already a primitive cell.
 

 Routine SETGRP: Setting up the symmetry group for a 
 face centered cubic supercell.


 Subroutine GETGRP returns: Found  1 space group operations
 (whereof  1 operations were pure point group operations)
 out of a pool of 48 trial point group operations.


The dynamic configuration has the point symmetry C_1 .


 Subroutine INISYM returns: Found  1 space group operations
 (whereof  1 operations are pure point group operations),
 and found     1 'primitive' translations

 
 
 KPOINTS: KPOINTS File, automatically generated by

Automatic generation of k-mesh.
Space group operators:
 irot       det(A)        alpha          n_x          n_y          n_z        tau_x        tau_y        tau_z
    1     1.000000     0.000001     1.000000     0.000000     0.000000     0.000000     0.000000     0.000000
 
 Subroutine IBZKPT returns following result:
 ===========================================
 
 Found      8 irreducible k-points:
 
 Following reciprocal coordinates:
            Coordinates               Weight
  0.000000  0.000000  0.000000      1.000000
  0.500000  0.000000  0.000000      1.000000
  0.000000  0.500000  0.000000      1.000000
  0.500000  0.500000  0.000000      1.000000
  0.000000  0.000000  0.500000      1.000000
  0.500000  0.000000  0.500000      1.000000
  0.000000  0.500000  0.500000      1.000000
  0.500000  0.500000  0.500000      1.000000
 
 Following cartesian coordinates:
            Coordinates               Weight
  0.000000  0.000000  0.000000      1.000000
 -0.022857  0.022857  0.022857      1.000000
  0.022857 -0.022857  0.022857      1.000000
  0.000000  0.000000  0.045715      1.000000
  0.022857  0.022857 -0.022857      1.000000
  0.000000  0.045715  0.000000      1.000000
  0.045715  0.000000  0.000000      1.000000
  0.022857  0.022857  0.022857      1.000000
 


--------------------------------------------------------------------------------------------------------




 Dimension of arrays:
   k-points           NKPTS =      8   k-points in BZ     NKDIM =      8   number of bands    NBANDS=    322
   number of dos      NEDOS =    301   number of ions     NIONS =    128
   non local maximal  LDIM  =      4   non local SUM 2l+1 LMDIM =      8
   total plane-waves  NPLWV = ******
   max r-space proj   IRMAX =      1   max aug-charges    IRDMAX= 176811
   dimension x,y,z NGX =   120 NGY =  120 NGZ =  120
   dimension x,y,z NGXF=   240 NGYF=  240 NGZF=  240
   support grid    NGXF=   480 NGYF=  480 NGZF=  480
   ions per type =             128
   NGX,Y,Z   is equivalent  to a cutoff of  12.90, 12.90, 12.90 a.u.
   NGXF,Y,Z  is equivalent  to a cutoff of  25.80, 25.80, 25.80 a.u.

 SYSTEM =  potpaw_PBE@./ARUN.APL1ZEROSTATE         
 POSCAR =  kk                                      

 Startparameter for this run:
   NWRITE =      2    write-flag & timer
   PREC   = accura    normal or accurate (medium, high low for compatibility)
   ISTART =      0    job   : 0-new  1-cont  2-samecut
   ICHARG =      2    charge: 1-file 2-atom 10-const
   ISPIN  =      1    spin polarized calculation?
   LNONCOLLINEAR =      F non collinear calculations
   LSORBIT =      F    spin-orbit coupling
   INIWAV =      1    electr: 0-lowe 1-rand  2-diag
   LASPH  =      F    aspherical Exc in radial PAW
   METAGGA=      F    non-selfconsistent MetaGGA calc.

 Electronic Relaxation 1
   ENCUT  =  500.0 eV  36.75 Ry    6.06 a.u.  28.20 28.20 28.20*2*pi/ulx,y,z
   ENINI  =  500.0     initial cutoff
   ENAUG  =  322.1 eV  augmentation charge cutoff
   NELM   =    120;   NELMIN=  4; NELMDL= -5     # of ELM steps 
   EDIFF  = 0.1E-07   stopping-criterion for ELM
   LREAL  =      F    real-space projection
   NLSPLINE    = F    spline interpolate recip. space projectors
   LCOMPAT=      F    compatible to vasp.4.4
   GGA_COMPAT  = T    GGA compatible to vasp.4.4-vasp.4.6
   LMAXPAW     = -100 max onsite density
   LMAXMIX     =    2 max onsite mixed and CHGCAR
   VOSKOWN=      0    Vosko Wilk Nusair interpolation
   ROPT   =    0.00000
 Ionic relaxation
   EDIFFG = 0.1E-06   stopping-criterion for IOM
   NSW    =      0    number of steps for IOM
   NBLOCK =      1;   KBLOCK =      1    inner block; outer block 
   IBRION =     -1    ionic relax: 0-MD 1-quasi-New 2-CG
   NFREE  =      0    steps in history (QN), initial steepest desc. (CG)
   ISIF   =      2    stress and relaxation
   IWAVPR =     10    prediction:  0-non 1-charg 2-wave 3-comb
   ISYM   =      2    0-nonsym 1-usesym 2-fastsym
   LCORR  =      T    Harris-Foulkes like correction to forces

   POTIM  = 0.5000    time-step for ionic-motion
   TEIN   =    0.0    initial temperature
   TEBEG  =    0.0;   TEEND  =   0.0 temperature during run
   SMASS  =  -3.00    Nose mass-parameter (am)
   estimated Nose-frequenzy (Omega)   =  0.10E-29 period in steps =****** mass=  -0.547E-26a.u.
   SCALEE = 1.0000    scale energy and forces
   NPACO  =    256;   APACO  = 16.0  distance and # of slots for P.C.
   PSTRESS=    0.0 pullay stress

  Mass of Ions in am
   POMASS =  28.09
  Ionic Valenz
   ZVAL   =   4.00
  Atomic Wigner-Seitz radii
   RWIGS  =  -1.00
  virtual crystal weights 
   VCA    =   1.00
   NELECT =     512.0000    total number of electrons
   NUPDOWN=      -1.0000    fix difference up-down

 DOS related values:
   EMIN   =  10.00;   EMAX   =-10.00  energy-range for DOS
   EFERMI =   0.00
   ISMEAR =     0;   SIGMA  =   0.01  broadening in eV -4-tet -1-fermi 0-gaus

 Electronic relaxation 2 (details)
   IALGO  =     38    algorithm
   LDIAG  =      T    sub-space diagonalisation (order eigenvalues)
   LSUBROT=      F    optimize rotation matrix (better conditioning)
   TURBO    =      0    0=normal 1=particle mesh
   IRESTART =      0    0=no restart 2=restart with 2 vectors
   NREBOOT  =      0    no. of reboots
   NMIN     =      0    reboot dimension
   EREF     =   0.00    reference energy to select bands
   IMIX   =      4    mixing-type and parameters
     AMIX     =   0.40;   BMIX     =  1.00
     AMIX_MAG =   1.60;   BMIX_MAG =  1.00
     AMIN     =   0.10
     WC   =   100.;   INIMIX=   1;  MIXPRE=   1;  MAXMIX= -45

 Intra band minimization:
   WEIMIN = 0.0000     energy-eigenvalue tresh-hold
   EBREAK =  0.78E-11  absolut break condition
   DEPER  =   0.30     relativ break condition  

   TIME   =   0.40     timestep for ELM

  volume/ion in A,a.u.               =      20.44       137.96
  Fermi-wavevector in a.u.,A,eV,Ry     =   0.950408  1.796010 12.289804  0.903275
  Thomas-Fermi vector in A             =   2.078782
 
 Write flags
   LWAVE        =      F    write WAVECAR
   LDOWNSAMPLE  =      F    k-point downsampling of WAVECAR
   LCHARG       =      F    write CHGCAR
   LVTOT        =      F    write LOCPOT, total local potential
   LVHAR        =      F    write LOCPOT, Hartree potential only
   LELF         =      F    write electronic localiz. function (ELF)
   LORBIT       =      0    0 simple, 1 ext, 2 COOP (PROOUT), +10 PAW based schemes


 Dipole corrections
   LMONO  =      F    monopole corrections only (constant potential shift)
   LDIPOL =      F    correct potential (dipole corrections)
   IDIPOL =      0    1-x, 2-y, 3-z, 4-all directions 
   EPSILON=  1.0000000 bulk dielectric constant

 Exchange correlation treatment:
   GGA     =    --    GGA type
   LEXCH   =     8    internal setting for exchange type
   VOSKOWN=      0    Vosko Wilk Nusair interpolation
   LHFCALC =     F    Hartree Fock is set to
   LHFONE  =     F    Hartree Fock one center treatment
   AEXX    =    0.0000 exact exchange contribution

 Linear response parameters
   LEPSILON=     F    determine dielectric tensor
   LRPA    =     F    only Hartree local field effects (RPA)
   LNABLA  =     F    use nabla operator in PAW spheres
   LVEL    =     F    velocity operator in full k-point grid
   LINTERFAST=   F  fast interpolation
   KINTER  =     0    interpolate to denser k-point grid
   CSHIFT  =0.1000    complex shift for real part using Kramers Kronig
   OMEGAMAX=  -1.0    maximum frequency
   DEG_THRESHOLD= 0.2000000E-02 threshold for treating states as degnerate
   RTIME   =   -0.100 relaxation time in fs
  (WPLASMAI=    0.000 imaginary part of plasma frequency in eV, 0.658/RTIME)
   DFIELD  = 0.0000000 0.0000000 0.0000000 field for delta impulse in time
 
 Orbital magnetization related:
   ORBITALMAG=     F  switch on orbital magnetization
   LCHIMAG   =     F  perturbation theory with respect to B field
   DQ        =  0.001000  dq finite difference perturbation B field
   LLRAUG    =     F  two centre corrections for induced B field



--------------------------------------------------------------------------------------------------------


 Static calculation
 charge density and potential will be updated during run
 non-spin polarized calculation
 Variant of blocked Davidson
 Davidson routine will perform the subspace rotation
 perform sub-space diagonalisation
    after iterative eigenvector-optimisation
 modified Broyden-mixing scheme, WC =      100.0
 initial mixing is a Kerker type mixing with AMIX =  0.4000 and BMIX =      1.0000
 Hartree-type preconditioning will be used
 using additional bands           66
 reciprocal scheme for non local part
 use partial core corrections
 calculate Harris-corrections to forces 
   (improved forces if not selfconsistent)
 use gradient corrections 
 use of overlap-Matrix (Vanderbilt PP)
 Gauss-broadening in eV      SIGMA  =   0.01


--------------------------------------------------------------------------------------------------------


  energy-cutoff  :      500.00
  volume of cell :     2616.76
      direct lattice vectors                 reciprocal lattice vectors
     0.000000000 10.937333691 10.937333691    -0.045714981  0.045714981  0.045714981
    10.937333691  0.000000000 10.937333691     0.045714981 -0.045714981  0.045714981
    10.937333691 10.937333691  0.000000000     0.045714981  0.045714981 -0.045714981

  length of vectors
    15.467725642 15.467725642 15.467725642     0.079180669  0.079180669  0.079180669


 
 k-points in units of 2pi/SCALE and weight: KPOINTS File, automatically generated by
   0.00000000  0.00000000  0.00000000       0.125
  -0.02285749  0.02285749  0.02285749       0.125
   0.02285749 -0.02285749  0.02285749       0.125
   0.00000000  0.00000000  0.04571498       0.125
   0.02285749  0.02285749 -0.02285749       0.125
   0.00000000  0.04571498  0.00000000       0.125
   0.04571498  0.00000000  0.00000000       0.125
   0.02285749  0.02285749  0.02285749       0.125
 
 k-points in reciprocal lattice and weights: KPOINTS File, automatically generated by
   0.00000000  0.00000000  0.00000000       0.125
   0.50000000  0.00000000  0.00000000       0.125
   0.00000000  0.50000000  0.00000000       0.125
   0.50000000  0.50000000  0.00000000       0.125
   0.00000000  0.00000000  0.50000000       0.125
   0.50000000  0.00000000  0.50000000       0.125
   0.00000000  0.50000000  0.50000000       0.125
   0.50000000  0.50000000  0.50000000       0.125
 
 position of ions in fractional coordinates (direct lattice) 
   0.99376343  0.00063444  0.00263700
   0.24354601  0.01114280  0.99626699
   0.49495983  0.00295650  0.00970246
   0.75026413  0.00524467  0.99341278
   0.99415612  0.25179031  0.00362715
   0.25972614  0.26132097  0.98318561
   0.50117690  0.24490896  0.00042345
   0.75900334  0.24603245  0.99686553
   0.01334866  0.49279821  0.99135212
   0.24936167  0.49992332  0.00425487
   0.50164242  0.49286537  0.99395657
   0.75126737  0.51470427  0.99847302
   0.00249820  0.75113462  0.99959623
   0.24711282  0.75914112  0.99789958
   0.50205670  0.75572311  0.99504572
   0.75255242  0.73715410  0.01127023
   0.00735763  0.00395573  0.24232350
   0.25786970  0.99543148  0.25639138
   0.51043328  0.99965723  0.24841453
   0.74917405  0.99312456  0.23916960
   0.00487571  0.25455329  0.24257109
   0.24421994  0.25007283  0.24971865
   0.50730365  0.24629239  0.23751407
   0.74915348  0.25489771  0.24984295
   0.99476281  0.50023424  0.25546966
   0.25438886  0.48626869  0.26072927
   0.50953159  0.48531655  0.24328909
   0.74304458  0.51136932  0.24369231
   0.00692688  0.73598149  0.26062172
   0.25336665  0.75834210  0.24527236
   0.51143802  0.74509974  0.26042453
   0.75414111  0.74898379  0.23825262
   0.01561713  0.99663872  0.49327002
   0.25150620  0.00071610  0.50273853
   0.49158219  0.00880226  0.49218152
   0.76085797  0.99229005  0.50715887
   0.99824527  0.25325138  0.49324938
   0.25008247  0.26076393  0.49683040
   0.49734915  0.25613780  0.50021673
   0.74669707  0.25338525  0.48776995
   0.00347209  0.50024646  0.50337222
   0.26613614  0.47692892  0.49205033
   0.49229981  0.49638330  0.50343414
   0.76055640  0.49211954  0.49303717
   0.99918841  0.74511480  0.49685097
   0.24284567  0.75332522  0.50062646
   0.49628403  0.73906069  0.51704035
   0.76823621  0.73977054  0.49634219
   0.99119179  0.00227889  0.73878284
   0.25447171  0.01045861  0.74333321
   0.50156029  0.00024889  0.73381851
   0.74868407  0.99410034  0.75636002
   0.00234243  0.23960294  0.75143103
   0.24569052  0.24794945  0.75382313
   0.49322210  0.25425034  0.74814194
   0.76034375  0.24880449  0.74373194
   0.00169624  0.50104025  0.75453551
   0.25268444  0.49478743  0.75390839
   0.48956523  0.51378616  0.75266497
   0.74857481  0.49760190  0.75571754
   0.99344475  0.76539580  0.74871775
   0.25171091  0.75076938  0.74305013
   0.50486808  0.74727871  0.74544278
   0.75334963  0.76365750  0.74820774
   0.06802032  0.06026110  0.06345701
   0.30504240  0.05369774  0.07568740
   0.56470792  0.06251811  0.07026625
   0.81233771  0.07173721  0.05603251
   0.07281739  0.31969883  0.05016748
   0.30685997  0.31967165  0.06491953
   0.56955212  0.32013239  0.07014590
   0.80492456  0.31321676  0.06625025
   0.06755492  0.56066823  0.06127337
   0.30734887  0.55979961  0.06521367
   0.55507913  0.55874702  0.06553417
   0.81813794  0.55778532  0.06186624
   0.06179662  0.81685010  0.05987900
   0.32120671  0.82249008  0.05121006
   0.56513845  0.81161403  0.06236832
   0.82134136  0.82334139  0.04464469
   0.05596403  0.07592990  0.30943019
   0.30021205  0.07437380  0.31388824
   0.56873838  0.06802335  0.30949166
   0.80989912  0.05625896  0.31566547
   0.06141233  0.32212807  0.31284063
   0.32241002  0.32087581  0.29784949
   0.56178797  0.30697705  0.31734663
   0.81216927  0.31191075  0.30908352
   0.05519672  0.56230987  0.30943609
   0.32710350  0.55756324  0.30233409
   0.56621216  0.56180335  0.30886316
   0.81543655  0.56957519  0.29879836
   0.05494223  0.80835797  0.31372614
   0.31012878  0.80592454  0.31540848
   0.56803432  0.80735586  0.32595747
   0.81884741  0.81667117  0.29817250
   0.06131713  0.07048213  0.55208148
   0.30765115  0.05864838  0.56630882
   0.56748699  0.06527178  0.55497768
   0.81456054  0.07523902  0.55210498
   0.04395857  0.30508890  0.56948645
   0.32493645  0.29752919  0.56592615
   0.54400534  0.31762633  0.56964547
   0.82175373  0.31712830  0.55618396
   0.06256978  0.57225354  0.57023603
   0.31040761  0.56980786  0.55700986
   0.56534296  0.55357341  0.55836821
   0.79709659  0.55863110  0.57146929
   0.06124396  0.80755974  0.56436051
   0.30810152  0.81353464  0.55644088
   0.58908384  0.80866035  0.54489455
   0.81426456  0.80554051  0.56787795
   0.06356377  0.05237710  0.82421017
   0.30088400  0.07964870  0.80667668
   0.56405147  0.07183827  0.79728325
   0.81477378  0.05209741  0.81438552
   0.06157896  0.32250267  0.80866589
   0.30955185  0.32025394  0.80954815
   0.56419808  0.31452154  0.81625016
   0.80633969  0.30818480  0.81718878
   0.05621030  0.57379590  0.80874216
   0.30726371  0.56265895  0.82440016
   0.56551423  0.55307465  0.81840545
   0.82095684  0.55353330  0.80923755
   0.06538763  0.81196309  0.81802690
   0.31992699  0.81654934  0.80196311
   0.56687971  0.81294213  0.80705898
   0.82025802  0.81194628  0.81462206
 
 position of ions in cartesian coordinates  (Angst):
   0.03578087 10.89796395 10.87606130
  11.01837700 13.56024851  2.78561649
   0.13845530  5.51965990  5.44587711
  10.92264977 19.07117619  8.26325182
   2.79358592 10.91308852 13.62733185
  13.61158372 13.59414057  5.69886604
   2.68328245  5.48617038  8.16019003
  13.59398993 19.20452374 10.99241177
  16.23264741 10.98874765  5.53589719
   5.51436504  2.77388875  8.19517998
  16.26186764 16.35786526 10.87726356
  16.55012496 19.13749447 13.84635430
  19.14832749 10.96024121  8.24273363
  19.21734052 13.61711608 11.00573512
  19.14874294 16.37430874 13.75675755
   8.18576667  8.35418326 16.29341733
   2.69363812  2.73084585  0.12373790
  13.69160438  5.62464511 13.70777323
  13.65057736  8.29977175 16.51636385
  13.47801242 10.80984429 19.05610118
   5.43721520  2.70640827  2.83746156
   5.46638627  5.40237122  5.40624503
   5.29155269  8.14632000  8.24233133
   5.52051699 10.92635729 10.98164289
   8.26538566 13.67420968 16.35128160
   8.17016595  5.63401888  8.10081885
   7.96900299  8.23385100 10.88098603
   8.25836102 10.79227066 13.71994344
  10.90018185  2.92626832  8.12543670
  10.97686628  5.45378124 11.06539623
  10.99775442  8.44211828 13.74317276
  10.79773403 10.85414135 16.44017862
  16.29562906  5.56586862 11.07138005
   5.50645126  8.24942628  2.75863948
   5.47942680 10.75975197  5.47287169
  16.39997317 13.86872326 19.17476491
   8.16472792 16.31297472 13.68803655
   8.28606196  8.16923529  5.58729756
   8.27250186 10.91071094  8.24113820
   8.10626178 13.50177772 10.93823402
  10.97691235  5.54352529  5.50933781
  10.59804937  8.29253839  8.12715048
  10.93533703 10.89067448 10.81355709
  10.77498776 13.71097126 13.70093484
  13.58379402 16.36268190 19.07802628
  13.71488802  8.13160279 10.89545348
  13.73839617 11.08306684 13.51137743
  13.51977739 13.83111593 16.49357304
   8.10523948 18.92130987 10.86592042
   8.24447273 10.91332539  2.89763130
   8.02874015 13.51175020  5.48845449
  19.14536899 16.46116945 19.06141465
  10.83926921  8.24427179  2.64623725
  10.95672102 10.93201433  5.39910511
  10.96349885 13.57721272  8.17535552
  10.85570207 16.45057775 11.03739105
  13.73265111  8.27115899  5.49859675
  13.65740287 11.00944168  8.17534931
  13.85159863 13.58668621 10.97398892
  13.70797303 16.45294747 13.62985059
  16.56036510 19.05461257 19.23702603
  16.33840246 10.88003343 10.96446139
  16.32639307 13.67506704 13.69514728
  16.53577467 16.42303410 16.59201324
   1.35314621  1.43801132  1.40305665
   1.41512848  4.16416881  3.92366064
   1.45230690  6.94492438  6.86018033
   1.39745999  9.49765479  9.66942235
   4.04535131  1.34512654  4.29308088
   4.20640209  4.06627641  6.85258542
   4.26860379  6.99659068  9.73077635
   4.15035742  9.52832961 12.22948474
   6.80238289  1.40903807  6.87108628
   6.83597874  4.07484078  9.48429223
   6.82797171  6.78785475 12.18228832
   6.77733597  9.62489943 15.04893190
   9.58907870  1.33080685  9.61005231
   9.55594992  4.07324644 12.50899339
   9.55903663  6.86325097 15.05800135
   9.49345337  9.47157841 17.98844411
   4.21481191  3.99643851  1.44256800
   4.24655148  6.71661976  4.09697038
   4.12900768  9.60549499  6.96447558
   4.06786151 12.31067552  9.47345996
   6.94486456  4.09332960  4.19490933
   6.76720512  6.78398522  7.03583182
   6.82843637  9.61538847  9.50197295
   6.79202158 12.26351585 12.29443828
   9.53457642  3.98811075  6.75387562
   9.40498403  6.88436890  9.67589537
   9.52277015  9.57099073 12.33748204
   9.49769127 12.18675903 15.14833562
  12.27260832  4.03224893  9.44220233
  12.26439345  6.84170980 12.20664760
  12.39542608  9.77788658 15.04310134
  12.19341731 12.21721955 17.88821253
   6.80918601  6.70894533  1.44153254
   6.83536553  9.55879189  4.00634027
   6.78387527 12.27677063  6.92069379
   6.86147069 14.94767686  9.73203474
   9.56552251  6.70945288  3.81764866
   9.44389915  9.74366148  6.80811434
   9.70438771 12.18037046  9.42395305
   9.55170765 15.07096438 12.45633282
  12.49578962  6.92120823  6.94327447
  12.32438140  9.48723434  9.62721036
  12.16167663 12.29040411 12.23796178
  12.36028510 14.96846170 14.82804621
  15.00514955  6.84244479  9.50239598
  14.98387941  9.45578868 12.26770890
  14.80428160 12.40270001 15.28759461
  15.02153600 15.11695387 17.71634852
   9.58752747  9.70987974  1.26808397
   9.69403639 12.11376076  4.16201311
   9.50587207 14.88937207  6.95493829
   9.47701293 17.81865886  9.48125942
  12.37196798  9.51815833  4.20082893
  12.35702250 12.23997021  6.88839612
  12.36762736 15.09842306  9.61084974
  12.30858639 17.75707259 12.18992630
  15.12128011  9.46027367  6.89058811
  15.17072832 12.37738541  9.51463442
  15.00033544 15.13639134 12.23437985
  14.90507957 17.82998007 15.03325732
  17.82774449  9.66219953  9.59587758
  17.70221072 12.27048641 12.43002084
  17.71849273 15.02722593 15.09157186
  17.79032067 17.88122902 17.85196308
 


--------------------------------------------------------------------------------------------------------


 k-point  1 :   0.0000 0.0000 0.0000  plane waves:   66299
 k-point  2 :   0.5000 0.0000 0.0000  plane waves:   66394
 k-point  3 :   0.0000 0.5000 0.0000  plane waves:   66394
 k-point  4 :   0.5000 0.5000 0.0000  plane waves:   66552
 k-point  5 :   0.0000 0.0000 0.5000  plane waves:   66394
 k-point  6 :   0.5000 0.0000 0.5000  plane waves:   66552
 k-point  7 :   0.0000 0.5000 0.5000  plane waves:   66552
 k-point  8 :   0.5000 0.5000 0.5000  plane waves:   66394

 maximum and minimum number of plane-waves per node :      4207     4110

 maximum number of plane-waves:     66552
 maximum index in each direction: 
   IXMAX=   28   IYMAX=   28   IZMAX=   28
   IXMIN=  -28   IYMIN=  -28   IZMIN=  -28


 parallel 3D FFT for wavefunctions:
    minimum data exchange during FFTs selected (reduces bandwidth)
 parallel 3D FFT for charge:
    minimum data exchange during FFTs selected (reduces bandwidth)


 total amount of memory used by VASP MPI-rank0   221701. kBytes
=======================================================================

   base      :      30000. kBytes
   nonl-proj :      10690. kBytes
   fftplans  :      66746. kBytes
   grid      :      26864. kBytes
   one-center:         24. kBytes
   wavefun   :      87377. kBytes
 
     INWAV:  cpu time    0.0000: real time    0.0002
 Broyden mixing: mesh for mixing (old mesh)
   NGX = 57   NGY = 57   NGZ = 57
  (NGX  =240   NGY  =240   NGZ  =240)
  gives a total of 185193 points

 initial charge density was supplied:
 charge density of overlapping atoms calculated
 number of electron     512.0000000 magnetization 
 keeping initial charge density in first step


--------------------------------------------------------------------------------------------------------


 Maximum index for augmentation-charges         5613 (set IRDMAX)


--------------------------------------------------------------------------------------------------------


 First call to EWALD:  gamma=   0.129
 Maximum number of real-space cells 3x 3x 3
 Maximum number of reciprocal cells 3x 3x 3

    FEWALD:  cpu time    0.0059: real time    0.0059


--------------------------------------- Iteration      1(   1)  ---------------------------------------


    POTLOK:  cpu time    0.4860: real time    0.4961
    SETDIJ:  cpu time    0.5076: real time    0.5077
     EDDAV:  cpu time   69.4460: real time   69.4591
       DOS:  cpu time    0.0037: real time    0.0037
    --------------------------------------------
      LOOP:  cpu time   70.4434: real time   70.4666

 eigenvalue-minimisations  :  5152
 total energy-change (2. order) : 0.1383049E+04  (-0.1908096E+05)
 number of electron     512.0000000 magnetization 
 augmentation part      512.0000000 magnetization 

 Free energy of the ion-electron system (eV)
  ---------------------------------------------------
  alpha Z        PSCENC =       210.77028614
  Ewald energy   TEWEN  =    -14470.17945873
  -Hartree energ DENC   =      -758.80354223
  -exchange      EXHF   =         0.00000000
  -V(xc)+E(xc)   XCENC  =     -1195.43824271
  PAW double counting   =      4221.13331941    -1969.18571412
  entropy T*S    EENTRO =        -0.00171075
  eigenvalues    EBANDS =      2152.27293102
  atomic energy  EATOM  =     13192.48085998
  Solvation  Ediel_sol  =         0.00000000
  ---------------------------------------------------
  free energy    TOTEN  =      1383.04872802 eV

  energy without entropy =     1383.05043877  energy(sigma->0) =     1383.04958340


--------------------------------------------------------------------------------------------------------




--------------------------------------- Iteration      1(   2)  ---------------------------------------


     EDDAV:  cpu time   78.9181: real time   78.9338
       DOS:  cpu time    0.0009: real time    0.0009
    --------------------------------------------
      LOOP:  cpu time   78.9191: real time   78.9348

 eigenvalue-minimisations  :  6112
 total energy-change (2. order) :-0.1918019E+04  (-0.1823974E+04)
 number of electron     512.0000000 magnetization 
 augmentation part      512.0000000 magnetization 

 Free energy of the ion-electron system (eV)
  ---------------------------------------------------
  alpha Z        PSCENC =       210.77028614
  Ewald energy   TEWEN  =    -14470.17945873
  -Hartree energ DENC   =      -758.80354223
  -exchange      EXHF   =         0.00000000
  -V(xc)+E(xc)   XCENC  =     -1195.43824271
  PAW double counting   =      4221.13331941    -1969.18571412
  entropy T*S    EENTRO =        -0.00000000
  eigenvalues    EBANDS =       234.25237934
  atomic energy  EATOM  =     13192.48085998
  Solvation  Ediel_sol  =         0.00000000
  ---------------------------------------------------
  free energy    TOTEN  =      -534.97011291 eV

  energy without entropy =     -534.97011291  energy(sigma->0) =     -534.97011291


--------------------------------------------------------------------------------------------------------




--------------------------------------- Iteration      1(   3)  ---------------------------------------


     EDDAV:  cpu time   80.7183: real time   80.7390
       DOS:  cpu time    0.0010: real time    0.0010
    --------------------------------------------
      LOOP:  cpu time   80.7193: real time   80.7399

 eigenvalue-minimisations  :  6296
 total energy-change (2. order) :-0.1498851E+03  (-0.1467613E+03)
 number of electron     512.0000000 magnetization 
 augmentation part      512.0000000 magnetization 

 Free energy of the ion-electron system (eV)
  ---------------------------------------------------
  alpha Z        PSCENC =       210.77028614
  Ewald energy   TEWEN  =    -14470.17945873
  -Hartree energ DENC   =      -758.80354223
  -exchange      EXHF   =         0.00000000
  -V(xc)+E(xc)   XCENC  =     -1195.43824271
  PAW double counting   =      4221.13331941    -1969.18571412
  entropy T*S    EENTRO =        -0.00000000
  eigenvalues    EBANDS =        84.36730191
  atomic energy  EATOM  =     13192.48085998
  Solvation  Ediel_sol  =         0.00000000
  ---------------------------------------------------
  free energy    TOTEN  =      -684.85519033 eV

  energy without entropy =     -684.85519033  energy(sigma->0) =     -684.85519033


--------------------------------------------------------------------------------------------------------




--------------------------------------- Iteration      1(   4)  ---------------------------------------


     EDDAV:  cpu time   79.9303: real time   79.9566
       DOS:  cpu time    0.0016: real time    0.0015
    --------------------------------------------
      LOOP:  cpu time   79.9319: real time   79.9582

 eigenvalue-minimisations  :  6208
 total energy-change (2. order) :-0.4334249E+01  (-0.4298780E+01)
 number of electron     512.0000000 magnetization 
 augmentation part      512.0000000 magnetization 

 Free energy of the ion-electron system (eV)
  ---------------------------------------------------
  alpha Z        PSCENC =       210.77028614
  Ewald energy   TEWEN  =    -14470.17945873
  -Hartree energ DENC   =      -758.80354223
  -exchange      EXHF   =         0.00000000
  -V(xc)+E(xc)   XCENC  =     -1195.43824271
  PAW double counting   =      4221.13331941    -1969.18571412
  entropy T*S    EENTRO =        -0.00000000
  eigenvalues    EBANDS =        80.03305250
  atomic energy  EATOM  =     13192.48085998
  Solvation  Ediel_sol  =         0.00000000
  ---------------------------------------------------
  free energy    TOTEN  =      -689.18943975 eV

  energy without entropy =     -689.18943975  energy(sigma->0) =     -689.18943975


--------------------------------------------------------------------------------------------------------




--------------------------------------- Iteration      1(   5)  ---------------------------------------


     EDDAV:  cpu time   81.4407: real time   81.4546
       DOS:  cpu time    0.0011: real time    0.0011
    CHARGE:  cpu time    3.2109: real time    3.2119
    MIXING:  cpu time    0.0222: real time    0.0222
    --------------------------------------------
      LOOP:  cpu time   84.6749: real time   84.6897

 eigenvalue-minimisations  :  6368
 total energy-change (2. order) :-0.1493489E+00  (-0.1489541E+00)
 number of electron     511.9999998 magnetization 
 augmentation part      -30.1922282 magnetization 

 Broyden mixing:
  rms(total) = 0.23933E+01    rms(broyden)= 0.23933E+01
  rms(prec ) = 0.29012E+01
  weight for this iteration     100.00

 Free energy of the ion-electron system (eV)
  ---------------------------------------------------
  alpha Z        PSCENC =       210.77028614
  Ewald energy   TEWEN  =    -14470.17945873
  -Hartree energ DENC   =      -758.80354223
  -exchange      EXHF   =         0.00000000
  -V(xc)+E(xc)   XCENC  =     -1195.43824271
  PAW double counting   =      4221.13331941    -1969.18571412
  entropy T*S    EENTRO =        -0.00000000
  eigenvalues    EBANDS =        79.88370357
  atomic energy  EATOM  =     13192.48085998
  Solvation  Ediel_sol  =         0.00000000
  ---------------------------------------------------
  free energy    TOTEN  =      -689.33878868 eV

  energy without entropy =     -689.33878868  energy(sigma->0) =     -689.33878868


--------------------------------------------------------------------------------------------------------




--------------------------------------- Iteration      1(   6)  ---------------------------------------


    POTLOK:  cpu time    0.4941: real time    0.4950
    SETDIJ:  cpu time    0.5074: real time    0.5075
     EDDAV:  cpu time   76.6333: real time   76.6491
       DOS:  cpu time    0.0011: real time    0.0011
    CHARGE:  cpu time    3.2088: real time    3.2170
    MIXING:  cpu time    0.0296: real time    0.0296
    --------------------------------------------
      LOOP:  cpu time   80.8743: real time   80.8992

 eigenvalue-minimisations  :  5888
 total energy-change (2. order) : 0.8503074E+01  (-0.5931662E+00)
 number of electron     511.9999998 magnetization 
 augmentation part      -29.8543840 magnetization 

 Broyden mixing:
  rms(total) = 0.14210E+01    rms(broyden)= 0.14210E+01
  rms(prec ) = 0.17127E+01
  weight for this iteration     100.00

 eigenvalues of (default mixing * dielectric matrix)
  average eigenvalue GAMMA=   2.4275
  2.4275

 Free energy of the ion-electron system (eV)
  ---------------------------------------------------
  alpha Z        PSCENC =       210.77028614
  Ewald energy   TEWEN  =    -14470.17945873
  -Hartree energ DENC   =      -853.59746733
  -exchange      EXHF   =         0.00000000
  -V(xc)+E(xc)   XCENC  =     -1180.87325658
  PAW double counting   =      4464.56410257    -2219.34897679
  entropy T*S    EENTRO =        -0.00000000
  eigenvalues    EBANDS =       175.34819649
  atomic energy  EATOM  =     13192.48085998
  Solvation  Ediel_sol  =         0.00000000
  ---------------------------------------------------
  free energy    TOTEN  =      -680.83571424 eV

  energy without entropy =     -680.83571424  energy(sigma->0) =     -680.83571424


--------------------------------------------------------------------------------------------------------




--------------------------------------- Iteration      1(   7)  ---------------------------------------


    POTLOK:  cpu time    0.4887: real time    0.4923
    SETDIJ:  cpu time    0.5087: real time    0.5087
     EDDAV:  cpu time   75.9692: real time   75.9929
       DOS:  cpu time    0.0015: real time    0.0015
    CHARGE:  cpu time    3.2082: real time    3.2087
    MIXING:  cpu time    0.0288: real time    0.0288
    --------------------------------------------
      LOOP:  cpu time   80.2051: real time   80.2329

 eigenvalue-minimisations  :  5824
 total energy-change (2. order) : 0.3523316E+01  (-0.1139329E+01)
 number of electron     511.9999998 magnetization 
 augmentation part      -29.4099944 magnetization 

 Broyden mixing:
  rms(total) = 0.15828E+00    rms(broyden)= 0.15828E+00
  rms(prec ) = 0.20618E+00
  weight for this iteration     100.00

 eigenvalues of (default mixing * dielectric matrix)
  average eigenvalue GAMMA=   2.1080
  2.1080  2.1080

 Free energy of the ion-electron system (eV)
  ---------------------------------------------------
  alpha Z        PSCENC =       210.77028614
  Ewald energy   TEWEN  =    -14470.17945873
  -Hartree energ DENC   =     -1002.87278370
  -exchange      EXHF   =         0.00000000
  -V(xc)+E(xc)   XCENC  =     -1157.14332193
  PAW double counting   =      4782.21563123    -2545.46769105
  entropy T*S    EENTRO =        -0.00000000
  eigenvalues    EBANDS =       312.88408016
  atomic energy  EATOM  =     13192.48085998
  Solvation  Ediel_sol  =         0.00000000
  ---------------------------------------------------
  free energy    TOTEN  =      -677.31239789 eV

  energy without entropy =     -677.31239789  energy(sigma->0) =     -677.31239789


--------------------------------------------------------------------------------------------------------




--------------------------------------- Iteration      1(   8)  ---------------------------------------


    POTLOK:  cpu time    0.4896: real time    0.4908
    SETDIJ:  cpu time    0.5097: real time    0.5098
     EDDAV:  cpu time   75.9990: real time   76.0216
       DOS:  cpu time    0.0011: real time    0.0011
    CHARGE:  cpu time    3.1832: real time    3.1837
    MIXING:  cpu time    0.0307: real time    0.0307
    --------------------------------------------
      LOOP:  cpu time   80.2134: real time   80.2377

 eigenvalue-minimisations  :  5824
 total energy-change (2. order) :-0.5170542E-01  (-0.1104148E+00)
 number of electron     511.9999998 magnetization 
 augmentation part      -29.4806456 magnetization 

 Broyden mixing:
  rms(total) = 0.62784E-01    rms(broyden)= 0.62784E-01
  rms(prec ) = 0.77997E-01
  weight for this iteration     100.00

 eigenvalues of (default mixing * dielectric matrix)
  average eigenvalue GAMMA=   2.0062
  2.6770  1.6708  1.6708

 Free energy of the ion-electron system (eV)
  ---------------------------------------------------
  alpha Z        PSCENC =       210.77028614
  Ewald energy   TEWEN  =    -14470.17945873
  -Hartree energ DENC   =      -996.19624524
  -exchange      EXHF   =         0.00000000
  -V(xc)+E(xc)   XCENC  =     -1157.25222560
  PAW double counting   =      4735.09415795    -2496.88050909
  entropy T*S    EENTRO =        -0.00000000
  eigenvalues    EBANDS =       304.79903128
  atomic energy  EATOM  =     13192.48085998
  Solvation  Ediel_sol  =         0.00000000
  ---------------------------------------------------
  free energy    TOTEN  =      -677.36410331 eV

  energy without entropy =     -677.36410331  energy(sigma->0) =     -677.36410331


--------------------------------------------------------------------------------------------------------




--------------------------------------- Iteration      1(   9)  ---------------------------------------


    POTLOK:  cpu time    0.4895: real time    0.4906
    SETDIJ:  cpu time    0.5118: real time    0.5118
     EDDAV:  cpu time   78.3416: real time   78.3583
       DOS:  cpu time    0.0015: real time    0.0015
    CHARGE:  cpu time    3.1849: real time    3.1853
    MIXING:  cpu time    0.0220: real time    0.0220
    --------------------------------------------
      LOOP:  cpu time   82.5513: real time   82.5696

 eigenvalue-minimisations  :  6064
 total energy-change (2. order) :-0.2182435E-01  (-0.1089024E-01)
 number of electron     511.9999998 magnetization 
 augmentation part      -29.4846201 magnetization 

 Broyden mixing:
  rms(total) = 0.28861E-01    rms(broyden)= 0.28861E-01
  rms(prec ) = 0.33541E-01
  weight for this iteration     100.00

 eigenvalues of (default mixing * dielectric matrix)
  average eigenvalue GAMMA=   1.7930
  2.5717  0.9359  1.8321  1.8321

 Free energy of the ion-electron system (eV)
  ---------------------------------------------------
  alpha Z        PSCENC =       210.77028614
  Ewald energy   TEWEN  =    -14470.17945873
  -Hartree energ DENC   =     -1003.06641678
  -exchange      EXHF   =         0.00000000
  -V(xc)+E(xc)   XCENC  =     -1156.06341962
  PAW double counting   =      4739.17240812    -2501.07093884
  entropy T*S    EENTRO =        -0.00000000
  eigenvalues    EBANDS =       310.57075207
  atomic energy  EATOM  =     13192.48085998
  Solvation  Ediel_sol  =         0.00000000
  ---------------------------------------------------
  free energy    TOTEN  =      -677.38592766 eV

  energy without entropy =     -677.38592766  energy(sigma->0) =     -677.38592766


--------------------------------------------------------------------------------------------------------




--------------------------------------- Iteration      1(  10)  ---------------------------------------


    POTLOK:  cpu time    0.4893: real time    0.4906
    SETDIJ:  cpu time    0.5114: real time    0.5115
     EDDAV:  cpu time   77.9669: real time   77.9865
       DOS:  cpu time    0.0010: real time    0.0010
    CHARGE:  cpu time    3.1778: real time    3.1790
    MIXING:  cpu time    0.0323: real time    0.0323
    --------------------------------------------
      LOOP:  cpu time   82.1788: real time   82.2009

 eigenvalue-minimisations  :  6024
 total energy-change (2. order) :-0.2529923E-02  (-0.9542581E-03)
 number of electron     511.9999998 magnetization 
 augmentation part      -29.4946207 magnetization 

 Broyden mixing:
  rms(total) = 0.11015E-01    rms(broyden)= 0.11015E-01
  rms(prec ) = 0.13353E-01
  weight for this iteration     100.00

 eigenvalues of (default mixing * dielectric matrix)
  average eigenvalue GAMMA=   1.8564
  2.6799  2.6799  1.5064  1.5064  0.9096

 Free energy of the ion-electron system (eV)
  ---------------------------------------------------
  alpha Z        PSCENC =       210.77028614
  Ewald energy   TEWEN  =    -14470.17945873
  -Hartree energ DENC   =     -1001.84277623
  -exchange      EXHF   =         0.00000000
  -V(xc)+E(xc)   XCENC  =     -1156.24514128
  PAW double counting   =      4731.74451045    -2493.45688335
  entropy T*S    EENTRO =        -0.00000000
  eigenvalues    EBANDS =       309.34014544
  atomic energy  EATOM  =     13192.48085998
  Solvation  Ediel_sol  =         0.00000000
  ---------------------------------------------------
  free energy    TOTEN  =      -677.38845758 eV

  energy without entropy =     -677.38845758  energy(sigma->0) =     -677.38845758


--------------------------------------------------------------------------------------------------------




--------------------------------------- Iteration      1(  11)  ---------------------------------------


    POTLOK:  cpu time    0.4900: real time    0.4933
    SETDIJ:  cpu time    0.5070: real time    0.5073
     EDDAV:  cpu time   76.1044: real time   76.1193
       DOS:  cpu time    0.0014: real time    0.0014
    CHARGE:  cpu time    3.1318: real time    3.1321
    MIXING:  cpu time    0.0361: real time    0.0361
    --------------------------------------------
      LOOP:  cpu time   80.2708: real time   80.2896

 eigenvalue-minimisations  :  5824
 total energy-change (2. order) :-0.1462375E-02  (-0.2327523E-03)
 number of electron     511.9999998 magnetization 
 augmentation part      -29.4969935 magnetization 

 Broyden mixing:
  rms(total) = 0.39392E-02    rms(broyden)= 0.39392E-02
  rms(prec ) = 0.55650E-02
  weight for this iteration     100.00

 eigenvalues of (default mixing * dielectric matrix)
  average eigenvalue GAMMA=   1.7769
  2.8301  2.0843  2.0843  1.4495  1.3481  0.8651

 Free energy of the ion-electron system (eV)
  ---------------------------------------------------
  alpha Z        PSCENC =       210.77028614
  Ewald energy   TEWEN  =    -14470.17945873
  -Hartree energ DENC   =     -1001.81997616
  -exchange      EXHF   =         0.00000000
  -V(xc)+E(xc)   XCENC  =     -1156.24554506
  PAW double counting   =      4727.72145752    -2489.34170189
  entropy T*S    EENTRO =        -0.00000000
  eigenvalues    EBANDS =       309.22415825
  atomic energy  EATOM  =     13192.48085998
  Solvation  Ediel_sol  =         0.00000000
  ---------------------------------------------------
  free energy    TOTEN  =      -677.38991996 eV

  energy without entropy =     -677.38991996  energy(sigma->0) =     -677.38991996


--------------------------------------------------------------------------------------------------------




--------------------------------------- Iteration      1(  12)  ---------------------------------------


    POTLOK:  cpu time    0.4889: real time    0.4916
    SETDIJ:  cpu time    0.5078: real time    0.5079
     EDDAV:  cpu time   78.8497: real time   78.8668
       DOS:  cpu time    0.0011: real time    0.0011
    CHARGE:  cpu time    3.1293: real time    3.1298
    MIXING:  cpu time    0.0197: real time    0.0197
    --------------------------------------------
      LOOP:  cpu time   82.9965: real time   83.0169

 eigenvalue-minimisations  :  6088
 total energy-change (2. order) :-0.5714658E-04  (-0.4682012E-04)
 number of electron     511.9999998 magnetization 
 augmentation part      -29.4950209 magnetization 

 Broyden mixing:
  rms(total) = 0.18944E-02    rms(broyden)= 0.18944E-02
  rms(prec ) = 0.22498E-02
  weight for this iteration     100.00

 eigenvalues of (default mixing * dielectric matrix)
  average eigenvalue GAMMA=   1.8233
  3.1395  2.6845  1.7605  1.7605  0.8928  1.2627  1.2627

 Free energy of the ion-electron system (eV)
  ---------------------------------------------------
  alpha Z        PSCENC =       210.77028614
  Ewald energy   TEWEN  =    -14470.17945873
  -Hartree energ DENC   =     -1002.45365320
  -exchange      EXHF   =         0.00000000
  -V(xc)+E(xc)   XCENC  =     -1156.17467775
  PAW double counting   =      4729.02491856    -2490.68956586
  entropy T*S    EENTRO =        -0.00000000
  eigenvalues    EBANDS =       309.83131375
  atomic energy  EATOM  =     13192.48085998
  Solvation  Ediel_sol  =         0.00000000
  ---------------------------------------------------
  free energy    TOTEN  =      -677.38997710 eV

  energy without entropy =     -677.38997710  energy(sigma->0) =     -677.38997710


--------------------------------------------------------------------------------------------------------




--------------------------------------- Iteration      1(  13)  ---------------------------------------


    POTLOK:  cpu time    0.4882: real time    0.4918
    SETDIJ:  cpu time    0.5130: real time    0.5130
     EDDAV:  cpu time   75.6982: real time   75.7192
       DOS:  cpu time    0.0011: real time    0.0011
    CHARGE:  cpu time    3.1233: real time    3.1241
    MIXING:  cpu time    0.0221: real time    0.0221
    --------------------------------------------
      LOOP:  cpu time   79.8459: real time   79.8713

 eigenvalue-minimisations  :  5792
 total energy-change (2. order) :-0.3066618E-04  (-0.1220172E-04)
 number of electron     511.9999998 magnetization 
 augmentation part      -29.4950179 magnetization 

 Broyden mixing:
  rms(total) = 0.57158E-03    rms(broyden)= 0.57156E-03
  rms(prec ) = 0.75045E-03
  weight for this iteration     100.00

 eigenvalues of (default mixing * dielectric matrix)
  average eigenvalue GAMMA=   1.7824
  3.1238  2.5215  1.9550  1.9550  1.3924  1.3924  0.9595  0.9595

 Free energy of the ion-electron system (eV)
  ---------------------------------------------------
  alpha Z        PSCENC =       210.77028614
  Ewald energy   TEWEN  =    -14470.17945873
  -Hartree energ DENC   =     -1002.44116829
  -exchange      EXHF   =         0.00000000
  -V(xc)+E(xc)   XCENC  =     -1156.18620603
  PAW double counting   =      4728.41833810    -2490.07075986
  entropy T*S    EENTRO =        -0.00000000
  eigenvalues    EBANDS =       309.81810093
  atomic energy  EATOM  =     13192.48085998
  Solvation  Ediel_sol  =         0.00000000
  ---------------------------------------------------
  free energy    TOTEN  =      -677.39000777 eV

  energy without entropy =     -677.39000777  energy(sigma->0) =     -677.39000777


--------------------------------------------------------------------------------------------------------




--------------------------------------- Iteration      1(  14)  ---------------------------------------


    POTLOK:  cpu time    0.4925: real time    0.4963
    SETDIJ:  cpu time    0.5073: real time    0.5073
     EDDAV:  cpu time   79.0995: real time   79.1342
       DOS:  cpu time    0.0011: real time    0.0011
    CHARGE:  cpu time    3.1263: real time    3.1268
    MIXING:  cpu time    0.0403: real time    0.0404
    --------------------------------------------
      LOOP:  cpu time   83.2671: real time   83.3061

 eigenvalue-minimisations  :  6136
 total energy-change (2. order) :-0.4105090E-05  (-0.9756334E-06)
 number of electron     511.9999998 magnetization 
 augmentation part      -29.4948926 magnetization 

 Broyden mixing:
  rms(total) = 0.19448E-03    rms(broyden)= 0.19443E-03
  rms(prec ) = 0.26574E-03
  weight for this iteration     100.00

 eigenvalues of (default mixing * dielectric matrix)
  average eigenvalue GAMMA=   1.7722
  3.2208  2.6266  2.1812  1.6690  1.6690  1.3173  1.3173  1.0239  0.9248

 Free energy of the ion-electron system (eV)
  ---------------------------------------------------
  alpha Z        PSCENC =       210.77028614
  Ewald energy   TEWEN  =    -14470.17945873
  -Hartree energ DENC   =     -1002.48742894
  -exchange      EXHF   =         0.00000000
  -V(xc)+E(xc)   XCENC  =     -1156.17953826
  PAW double counting   =      4728.56397079    -2490.21938129
  entropy T*S    EENTRO =        -0.00000000
  eigenvalues    EBANDS =       309.86067844
  atomic energy  EATOM  =     13192.48085998
  Solvation  Ediel_sol  =         0.00000000
  ---------------------------------------------------
  free energy    TOTEN  =      -677.39001187 eV

  energy without entropy =     -677.39001187  energy(sigma->0) =     -677.39001187


--------------------------------------------------------------------------------------------------------




--------------------------------------- Iteration      1(  15)  ---------------------------------------


    POTLOK:  cpu time    0.4892: real time    0.4907
    SETDIJ:  cpu time    0.5069: real time    0.5069
     EDDAV:  cpu time   78.6682: real time   78.6846
       DOS:  cpu time    0.0012: real time    0.0012
    CHARGE:  cpu time    3.1446: real time    3.1452
    MIXING:  cpu time    0.0261: real time    0.0261
    --------------------------------------------
      LOOP:  cpu time   82.8363: real time   82.8547

 eigenvalue-minimisations  :  6096
 total energy-change (2. order) :-0.3254530E-05  (-0.1995914E-06)
 number of electron     511.9999998 magnetization 
 augmentation part      -29.4947768 magnetization 

 Broyden mixing:
  rms(total) = 0.67470E-04    rms(broyden)= 0.67307E-04
  rms(prec ) = 0.89326E-04
  weight for this iteration     100.00

 eigenvalues of (default mixing * dielectric matrix)
  average eigenvalue GAMMA=   1.7156
  3.2460  2.5963  2.1436  1.7152  1.7152  1.4176  1.4176  1.0556  0.9243  0.9243

 Free energy of the ion-electron system (eV)
  ---------------------------------------------------
  alpha Z        PSCENC =       210.77028614
  Ewald energy   TEWEN  =    -14470.17945873
  -Hartree energ DENC   =     -1002.50965252
  -exchange      EXHF   =         0.00000000
  -V(xc)+E(xc)   XCENC  =     -1156.17856012
  PAW double counting   =      4728.62075288    -2490.27805356
  entropy T*S    EENTRO =        -0.00000000
  eigenvalues    EBANDS =       309.88381079
  atomic energy  EATOM  =     13192.48085998
  Solvation  Ediel_sol  =         0.00000000
  ---------------------------------------------------
  free energy    TOTEN  =      -677.39001513 eV

  energy without entropy =     -677.39001513  energy(sigma->0) =     -677.39001513


--------------------------------------------------------------------------------------------------------




--------------------------------------- Iteration      1(  16)  ---------------------------------------


    POTLOK:  cpu time    0.4867: real time    0.4899
    SETDIJ:  cpu time    0.5114: real time    0.5114
     EDDAV:  cpu time   78.5308: real time   78.5538
       DOS:  cpu time    0.0011: real time    0.0011
    CHARGE:  cpu time    3.0978: real time    3.0983
    MIXING:  cpu time    0.0360: real time    0.0360
    --------------------------------------------
      LOOP:  cpu time   82.6638: real time   82.6904

 eigenvalue-minimisations  :  6088
 total energy-change (2. order) : 0.3538662E-06  (-0.2321754E-07)
 number of electron     511.9999998 magnetization 
 augmentation part      -29.4947738 magnetization 

 Broyden mixing:
  rms(total) = 0.32895E-04    rms(broyden)= 0.32560E-04
  rms(prec ) = 0.43975E-04
  weight for this iteration     100.00

 eigenvalues of (default mixing * dielectric matrix)
  average eigenvalue GAMMA=   1.7034
  3.2869  2.6292  2.0843  2.0843  1.4110  1.4110  1.4482  1.4482  0.9090  1.0127
  1.0127

 Free energy of the ion-electron system (eV)
  ---------------------------------------------------
  alpha Z        PSCENC =       210.77028614
  Ewald energy   TEWEN  =    -14470.17945873
  -Hartree energ DENC   =     -1002.50947859
  -exchange      EXHF   =         0.00000000
  -V(xc)+E(xc)   XCENC  =     -1156.17846568
  PAW double counting   =      4728.61712558    -2490.27412967
  entropy T*S    EENTRO =        -0.00000000
  eigenvalues    EBANDS =       309.88324620
  atomic energy  EATOM  =     13192.48085998
  Solvation  Ediel_sol  =         0.00000000
  ---------------------------------------------------
  free energy    TOTEN  =      -677.39001477 eV

  energy without entropy =     -677.39001477  energy(sigma->0) =     -677.39001477


--------------------------------------------------------------------------------------------------------




--------------------------------------- Iteration      1(  17)  ---------------------------------------


    POTLOK:  cpu time    0.4901: real time    0.4913
    SETDIJ:  cpu time    0.5059: real time    0.5061
     EDDAV:  cpu time   64.7440: real time   64.7579
       DOS:  cpu time    0.0010: real time    0.0010
    CHARGE:  cpu time    3.0948: real time    3.0951
    MIXING:  cpu time    0.0356: real time    0.0356
    --------------------------------------------
      LOOP:  cpu time   68.8714: real time   68.8870

 eigenvalue-minimisations  :  4680
 total energy-change (2. order) : 0.1413209E-06  (-0.3624765E-08)
 number of electron     511.9999998 magnetization 
 augmentation part      -29.4947775 magnetization 

 Broyden mixing:
  rms(total) = 0.15889E-04    rms(broyden)= 0.15185E-04
  rms(prec ) = 0.19111E-04
  weight for this iteration     100.00

 eigenvalues of (default mixing * dielectric matrix)
  average eigenvalue GAMMA=   1.6897
  3.2918  2.6240  2.2843  1.7344  1.7344  1.5974  1.5974  0.9324  0.9631  1.2175
  1.1499  1.1499

 Free energy of the ion-electron system (eV)
  ---------------------------------------------------
  alpha Z        PSCENC =       210.77028614
  Ewald energy   TEWEN  =    -14470.17945873
  -Hartree energ DENC   =     -1002.50858130
  -exchange      EXHF   =         0.00000000
  -V(xc)+E(xc)   XCENC  =     -1156.17850994
  PAW double counting   =      4728.61739413    -2490.27424762
  entropy T*S    EENTRO =        -0.00000000
  eigenvalues    EBANDS =       309.88224270
  atomic energy  EATOM  =     13192.48085998
  Solvation  Ediel_sol  =         0.00000000
  ---------------------------------------------------
  free energy    TOTEN  =      -677.39001463 eV

  energy without entropy =     -677.39001463  energy(sigma->0) =     -677.39001463


--------------------------------------------------------------------------------------------------------




--------------------------------------- Iteration      1(  18)  ---------------------------------------


    POTLOK:  cpu time    0.4891: real time    0.4924
    SETDIJ:  cpu time    0.5064: real time    0.5064
     EDDAV:  cpu time   51.3488: real time   51.3656
       DOS:  cpu time    0.0010: real time    0.0010
    CHARGE:  cpu time    3.1130: real time    3.1133
    MIXING:  cpu time    0.0209: real time    0.0209
    --------------------------------------------
      LOOP:  cpu time   55.4792: real time   55.4995

 eigenvalue-minimisations  :  3320
 total energy-change (2. order) :-0.1615263E-06  (-0.1033994E-08)
 number of electron     511.9999998 magnetization 
 augmentation part      -29.4947720 magnetization 

 Broyden mixing:
  rms(total) = 0.75184E-05    rms(broyden)= 0.58864E-05
  rms(prec ) = 0.78126E-05
  weight for this iteration     100.00
  WARNING: grid for Broyden might be to small

 eigenvalues of (default mixing * dielectric matrix)
  average eigenvalue GAMMA=   1.7169
  3.2884  2.6969  2.3932  2.3932  1.7621  1.7621  1.2764  1.2764  1.2740  1.2740
  0.9216  1.0004  1.0004

 Free energy of the ion-electron system (eV)
  ---------------------------------------------------
  alpha Z        PSCENC =       210.77028614
  Ewald energy   TEWEN  =    -14470.17945873
  -Hartree energ DENC   =     -1002.50973039
  -exchange      EXHF   =         0.00000000
  -V(xc)+E(xc)   XCENC  =     -1156.17838395
  PAW double counting   =      4728.62259814    -2490.27955114
  entropy T*S    EENTRO =        -0.00000000
  eigenvalues    EBANDS =       309.88336515
  atomic energy  EATOM  =     13192.48085998
  Solvation  Ediel_sol  =         0.00000000
  ---------------------------------------------------
  free energy    TOTEN  =      -677.39001479 eV

  energy without entropy =     -677.39001479  energy(sigma->0) =     -677.39001479


--------------------------------------------------------------------------------------------------------




--------------------------------------- Iteration      1(  19)  ---------------------------------------


    POTLOK:  cpu time    0.4895: real time    0.4925
    SETDIJ:  cpu time    0.5072: real time    0.5074
     EDDAV:  cpu time   50.6513: real time   50.6596
       DOS:  cpu time    0.0011: real time    0.0011
    CHARGE:  cpu time    3.1015: real time    3.1021
    MIXING:  cpu time    0.0322: real time    0.0322
    --------------------------------------------
      LOOP:  cpu time   54.7829: real time   54.7949

 eigenvalue-minimisations  :  3248
 total energy-change (2. order) : 0.4879257E-07  (-0.2307310E-09)
 number of electron     511.9999998 magnetization 
 augmentation part      -29.4947736 magnetization 

 Broyden mixing:
  rms(total) = 0.53396E-05    rms(broyden)= 0.25758E-05
  rms(prec ) = 0.35851E-05
  weight for this iteration     100.00
  WARNING: grid for Broyden might be to small

 eigenvalues of (default mixing * dielectric matrix)
  average eigenvalue GAMMA=   1.6693
  3.3208  2.7060  2.3322  2.2711  1.7556  1.7556  1.3661  1.3661  1.3097  1.3097
  1.0338  1.0338  0.9050  0.9050

 Free energy of the ion-electron system (eV)
  ---------------------------------------------------
  alpha Z        PSCENC =       210.77028614
  Ewald energy   TEWEN  =    -14470.17945873
  -Hartree energ DENC   =     -1002.50941197
  -exchange      EXHF   =         0.00000000
  -V(xc)+E(xc)   XCENC  =     -1156.17840515
  PAW double counting   =      4728.62230766    -2490.27921900
  entropy T*S    EENTRO =        -0.00000000
  eigenvalues    EBANDS =       309.88302632
  atomic energy  EATOM  =     13192.48085998
  Solvation  Ediel_sol  =         0.00000000
  ---------------------------------------------------
  free energy    TOTEN  =      -677.39001475 eV

  energy without entropy =     -677.39001475  energy(sigma->0) =     -677.39001475


--------------------------------------------------------------------------------------------------------




--------------------------------------- Iteration      1(  20)  ---------------------------------------


    POTLOK:  cpu time    0.4927: real time    0.4935
    SETDIJ:  cpu time    0.5052: real time    0.5052
     EDDAV:  cpu time   49.8940: real time   49.9098
       DOS:  cpu time    0.0012: real time    0.0011
    CHARGE:  cpu time    3.1050: real time    3.1055
    MIXING:  cpu time    0.0247: real time    0.0247
    --------------------------------------------
      LOOP:  cpu time   54.0227: real time   54.0398

 eigenvalue-minimisations  :  3168
 total energy-change (2. order) :-0.1679473E-07  (-0.4600710E-10)
 number of electron     511.9999998 magnetization 
 augmentation part      -29.4947727 magnetization 

 Broyden mixing:
  rms(total) = 0.49163E-05    rms(broyden)= 0.15142E-05
  rms(prec ) = 0.21108E-05
  weight for this iteration     100.00
  WARNING: grid for Broyden might be to small

 eigenvalues of (default mixing * dielectric matrix)
  average eigenvalue GAMMA=   1.7041
  3.2688  2.6995  2.4812  2.4812  1.8896  1.8896  1.6942  1.3569  1.3569  1.2129
  1.2129  1.1916  0.9671  0.9471  0.9129

 Free energy of the ion-electron system (eV)
  ---------------------------------------------------
  alpha Z        PSCENC =       210.77028614
  Ewald energy   TEWEN  =    -14470.17945873
  -Hartree energ DENC   =     -1002.50959123
  -exchange      EXHF   =         0.00000000
  -V(xc)+E(xc)   XCENC  =     -1156.17838608
  PAW double counting   =      4728.62265469    -2490.27957838
  entropy T*S    EENTRO =        -0.00000000
  eigenvalues    EBANDS =       309.88319884
  atomic energy  EATOM  =     13192.48085998
  Solvation  Ediel_sol  =         0.00000000
  ---------------------------------------------------
  free energy    TOTEN  =      -677.39001476 eV

  energy without entropy =     -677.39001476  energy(sigma->0) =     -677.39001476


--------------------------------------------------------------------------------------------------------




--------------------------------------- Iteration      1(  21)  ---------------------------------------


    POTLOK:  cpu time    0.4880: real time    0.4913
    SETDIJ:  cpu time    0.5083: real time    0.5083
     EDDAV:  cpu time   49.7132: real time   49.7299
       DOS:  cpu time    0.0009: real time    0.0009
    --------------------------------------------
      LOOP:  cpu time   50.7104: real time   50.7303

 eigenvalue-minimisations  :  3152
 total energy-change (2. order) : 0.2815796E-08  (-0.1705907E-10)
 number of electron     511.9999998 magnetization 
 augmentation part      -29.4947727 magnetization 

 Free energy of the ion-electron system (eV)
  ---------------------------------------------------
  alpha Z        PSCENC =       210.77028614
  Ewald energy   TEWEN  =    -14470.17945873
  -Hartree energ DENC   =     -1002.50950660
  -exchange      EXHF   =         0.00000000
  -V(xc)+E(xc)   XCENC  =     -1156.17839356
  PAW double counting   =      4728.62256515    -2490.27948739
  entropy T*S    EENTRO =        -0.00000000
  eigenvalues    EBANDS =       309.88312024
  atomic energy  EATOM  =     13192.48085998
  Solvation  Ediel_sol  =         0.00000000
  ---------------------------------------------------
  free energy    TOTEN  =      -677.39001476 eV

  energy without entropy =     -677.39001476  energy(sigma->0) =     -677.39001476


--------------------------------------------------------------------------------------------------------




 average (electrostatic) potential at core
  the test charge radii are     0.9892
  (the norm of the test charge is              1.0000)
       1 -83.5555       2 -83.4937       3 -83.4143       4 -83.5981       5 -83.5236
       6 -83.4414       7 -83.5250       8 -83.5302       9 -83.5032      10 -83.4107
      11 -83.4412      12 -83.5215      13 -83.6113      14 -83.5509      15 -83.4623
      16 -83.5557      17 -83.5263      18 -83.4608      19 -83.4875      20 -83.6378
      21 -83.6375      22 -83.6537      23 -83.5601      24 -83.4072      25 -83.6132
      26 -83.5110      27 -83.4252      28 -83.4719      29 -83.5877      30 -83.6334
      31 -83.4629      32 -83.5333      33 -83.5097      34 -83.6608      35 -83.5661
      36 -83.4818      37 -83.5114      38 -83.5635      39 -83.4383      40 -83.6222
      41 -83.5448      42 -83.5863      43 -83.3383      44 -83.6246      45 -83.5808
      46 -83.5018      47 -83.5900      48 -83.5603      49 -83.5755      50 -83.5460
      51 -83.4344      52 -83.4269      53 -83.4744      54 -83.4959      55 -83.3938
      56 -83.5833      57 -83.4660      58 -83.5717      59 -83.4770      60 -83.5808
      61 -83.5792      62 -83.5916      63 -83.4067      64 -83.5051      65 -83.4626
      66 -83.5318      67 -83.4658      68 -83.6263      69 -83.4437      70 -83.5682
      71 -83.4461      72 -83.4798      73 -83.6248      74 -83.4591      75 -83.4977
      76 -83.4629      77 -83.5397      78 -83.4965      79 -83.4349      80 -83.6464
      81 -83.4520      82 -83.6500      83 -83.4934      84 -83.4413      85 -83.6124
      86 -83.5826      87 -83.4579      88 -83.4812      89 -83.6644      90 -83.5273
      91 -83.4554      92 -83.6103      93 -83.6624      94 -83.5086      95 -83.5131
      96 -83.6244      97 -83.6052      98 -83.4990      99 -83.4201     100 -83.4844
     101 -83.5632     102 -83.4614     103 -83.4450     104 -83.6082     105 -83.5930
     106 -83.4211     107 -83.5167     108 -83.4768     109 -83.6501     110 -83.7207
     111 -83.5460     112 -83.5176     113 -83.5228     114 -83.5089     115 -83.4349
     116 -83.4233     117 -83.5303     118 -83.4475     119 -83.5004     120 -83.4572
     121 -83.5397     122 -83.5743     123 -83.3897     124 -83.5480     125 -83.5258
     126 -83.5210     127 -83.4489     128 -83.4524
 
 
 
 E-fermi :   5.9291     XC(G=0):  -9.3354     alpha+bet :-11.7321


 k-point     1 :       0.0000    0.0000    0.0000
  band No.  band energies     occupation 
      1      -6.3119      2.00000
      2      -5.7149      2.00000
      3      -5.6803      2.00000
      4      -5.6511      2.00000
      5      -5.5625      2.00000
      6      -5.5276      2.00000
      7      -5.4752      2.00000
      8      -5.4395      2.00000
      9      -5.4167      2.00000
     10      -5.3428      2.00000
     11      -5.2710      2.00000
     12      -5.2170      2.00000
     13      -5.1600      2.00000
     14      -5.1233      2.00000
     15      -5.0461      2.00000
     16      -4.5280      2.00000
     17      -4.4796      2.00000
     18      -4.4629      2.00000
     19      -4.4373      2.00000
     20      -4.3971      2.00000
     21      -4.3553      2.00000
     22      -4.3051      2.00000
     23      -4.2836      2.00000
     24      -4.2555      2.00000
     25      -4.2126      2.00000
     26      -4.1557      2.00000
     27      -4.1276      2.00000
     28      -4.0520      2.00000
     29      -4.0208      2.00000
     30      -3.9788      2.00000
     31      -3.8957      2.00000
     32      -3.8846      2.00000
     33      -3.8657      2.00000
     34      -3.8187      2.00000
     35      -3.7821      2.00000
     36      -3.7319      2.00000
     37      -3.7158      2.00000
     38      -3.6704      2.00000
     39      -3.6533      2.00000
     40      -3.6175      2.00000
     41      -3.5978      2.00000
     42      -3.5852      2.00000
     43      -3.5597      2.00000
     44      -3.5330      2.00000
     45      -3.5093      2.00000
[...]
   0.545E+01 -.802E+01 -.390E+01   -.485E+01 0.681E+01 0.325E+01   -.618E+00 0.273E+01 0.173E+01   0.253E-05 0.173E-05 -.399E-06
   -.299E+01 -.974E+01 -.440E-02   0.257E+01 0.951E+01 0.568E+00   0.834E+00 0.123E+01 -.124E+01   0.392E-06 -.109E-05 -.193E-05
   0.529E+00 -.658E+00 0.282E+01   -.101E+01 0.703E+00 -.203E+01   0.122E+01 -.595E+00 -.190E+01   0.141E-05 -.633E-06 -.188E-06
   -.526E+01 0.557E+01 0.143E+01   0.553E+01 -.595E+01 -.122E+01   0.586E+00 0.912E+00 -.258E+00   -.750E-07 0.153E-05 0.376E-06
   -.217E+01 0.339E+01 0.433E+01   0.202E+01 -.313E+01 -.437E+01   0.398E+00 0.166E+00 -.183E+01   -.897E-06 0.102E-05 0.161E-05
   0.765E+01 -.125E+00 0.301E+01   -.738E+01 0.673E+00 -.286E+01   -.200E+01 0.102E+01 -.289E+00   -.710E-06 0.678E-06 0.320E-06
   0.766E+01 -.121E+02 -.392E+01   -.774E+01 0.112E+02 0.345E+01   -.129E+01 0.341E+01 0.717E+00   0.862E-06 -.668E-06 0.165E-06
   -.361E+01 -.756E+01 0.503E+01   0.305E+01 0.661E+01 -.605E+01   -.204E+00 0.565E+00 -.183E+00   -.110E-05 -.112E-05 0.150E-05
   0.299E+01 -.784E+00 0.257E+01   -.261E+01 0.146E+01 -.227E+01   -.692E+00 -.839E+00 0.501E+00   -.562E-06 -.716E-06 -.632E-06
   0.470E+01 0.108E+01 0.160E+01   -.447E+01 -.818E+00 -.153E+01   -.151E+01 -.579E+00 -.978E+00   0.207E-05 -.167E-07 0.178E-05
   0.802E+01 -.750E+01 0.153E+02   -.630E+01 0.645E+01 -.139E+02   -.352E+01 0.299E+01 -.460E+01   -.231E-06 0.838E-07 0.440E-06
   0.470E+01 -.550E+01 0.640E+01   -.448E+01 0.508E+01 -.521E+01   -.125E+01 0.291E+00 -.137E+01   0.914E-06 0.296E-08 -.134E-05
   -.578E+00 -.167E+01 -.920E+01   0.579E+00 0.134E+01 0.793E+01   0.256E+00 -.864E-01 0.318E+01   0.236E-05 -.945E-06 -.346E-07
   0.855E-01 -.122E+02 -.421E+01   0.810E+00 0.114E+02 0.365E+01   -.882E+00 0.386E+01 0.497E+00   -.612E-06 -.242E-05 -.448E-06
   -.158E+02 0.124E+02 -.868E+01   0.144E+02 -.112E+02 0.827E+01   0.243E+01 -.164E+01 0.322E-01   -.115E-07 0.961E-06 -.164E-05
   -.400E+01 0.835E+01 0.103E+02   0.437E+01 -.773E+01 -.868E+01   0.129E+00 -.117E+01 -.321E+01   -.444E-06 0.194E-05 0.780E-06
   -.519E+01 -.126E+01 0.673E+01   0.479E+01 0.568E+00 -.590E+01   0.713E+00 0.127E+01 -.217E+01   -.192E-05 -.894E-06 0.155E-05
   -.193E+01 -.281E+01 -.134E+02   0.135E+01 0.273E+01 0.124E+02   0.124E+01 0.128E+01 0.360E+01   -.521E-06 0.764E-07 -.226E-05
   0.515E+01 -.406E+01 -.746E+01   -.520E+01 0.364E+01 0.663E+01   0.882E+00 0.190E+01 0.271E+01   0.955E-06 -.912E-07 -.162E-05
   -.947E+01 0.399E+00 0.455E+00   0.909E+01 -.443E+00 -.152E+01   0.529E+00 -.385E+00 0.119E+01   -.139E-05 0.156E-06 0.341E-06
   -.200E+01 -.580E+01 0.420E+01   0.122E+01 0.508E+01 -.414E+01   -.980E-01 0.229E+01 -.166E+01   -.191E-05 -.279E-06 0.186E-05
   -.190E+01 -.640E+01 -.258E+01   0.907E+00 0.585E+01 0.193E+01   0.952E+00 0.179E+01 0.673E+00   0.905E-06 0.812E-07 0.518E-06
   -.374E+00 0.266E+01 -.352E+01   0.514E+00 -.277E+01 0.330E+01   0.539E+00 -.687E+00 0.232E+01   0.109E-05 -.187E-05 0.156E-05
   0.113E+02 -.413E+00 -.269E+01   -.102E+02 0.112E+01 0.155E+01   -.181E+01 -.127E+01 0.141E+01   0.101E-05 -.211E-05 0.178E-05
   -.274E+01 -.875E+01 0.918E+00   0.243E+01 0.789E+01 -.843E+00   -.232E+00 0.324E+01 -.916E+00   0.159E-07 -.565E-06 0.161E-06
   -.452E+01 -.857E+01 -.128E+02   0.474E+01 0.809E+01 0.118E+02   0.586E+00 0.192E+01 0.408E+01   -.143E-05 -.789E-06 0.244E-06
   -.460E+01 0.363E+00 0.126E+02   0.399E+01 -.106E+01 -.114E+02   0.180E+01 -.837E-01 -.275E+01   0.227E-06 0.921E-06 0.938E-06
   0.364E+01 -.140E+02 -.961E+01   -.241E+01 0.128E+02 0.862E+01   -.237E+01 0.219E+01 0.244E+01   -.161E-05 -.332E-05 -.475E-06
   0.951E-01 0.686E+01 0.192E+02   -.116E-02 -.670E+01 -.174E+02   -.871E+00 -.809E+00 -.428E+01   -.251E-05 0.461E-06 0.817E-06
   0.143E+02 -.697E+01 -.196E+01   -.133E+02 0.615E+01 0.179E+01   -.418E+01 0.176E+01 -.912E+00   0.132E-05 -.140E-05 0.109E-05
   -.195E+01 0.760E+01 0.570E+01   0.122E+01 -.706E+01 -.488E+01   0.211E+00 -.166E+00 -.237E+01   -.172E-05 -.110E-05 0.716E-06
   0.232E+01 -.663E+01 -.733E+00   -.242E+01 0.533E+01 0.368E+00   0.601E+00 0.200E+01 0.338E+00   -.948E-06 -.183E-05 -.982E-07
   -.104E+01 -.162E+01 -.943E-01   0.439E+00 0.190E+01 0.705E+00   -.253E+00 0.822E+00 0.939E+00   -.867E-06 0.119E-05 0.659E-06
   0.233E+01 0.741E+01 0.290E+01   -.265E+01 -.676E+01 -.220E+01   0.656E+00 -.152E+01 -.506E+00   -.109E-05 0.250E-06 -.883E-06
   0.233E+01 -.119E+01 -.782E+01   -.205E+01 0.114E+01 0.691E+01   0.118E+00 0.837E+00 0.139E+01   -.482E-06 -.174E-05 -.161E-05
   -.849E+01 0.624E+01 0.563E+00   0.769E+01 -.498E+01 0.498E-02   0.283E+01 -.239E+01 -.228E+01   -.271E-06 -.486E-07 0.701E-06
   -.104E+01 0.553E+01 0.282E+01   0.163E+01 -.467E+01 -.252E+01   -.469E+00 -.983E+00 0.310E+00   -.462E-06 0.205E-05 0.204E-05
   0.123E+02 0.134E+01 0.517E+00   -.111E+02 -.135E+01 0.156E-01   -.265E+01 -.171E+01 0.139E+00   0.132E-05 -.243E-06 -.165E-05
   0.738E+01 -.198E+02 0.397E+01   -.668E+01 0.180E+02 -.335E+01   -.254E+01 0.487E+01 -.141E+01   0.258E-05 -.171E-05 0.149E-05
   -.283E+01 -.589E+01 0.116E+02   0.254E+01 0.549E+01 -.110E+02   0.495E+00 0.118E+01 -.239E+01   0.365E-06 -.760E-07 -.431E-06
   -.684E+01 0.111E+02 -.193E+01   0.571E+01 -.107E+02 0.137E+01   0.207E+01 -.191E+01 0.133E+01   -.662E-06 0.289E-05 0.201E-06
   0.481E+01 0.498E+01 0.824E+01   -.454E+01 -.478E+01 -.754E+01   -.125E+01 0.160E+00 -.249E+01   -.139E-05 0.110E-05 0.158E-05
   0.104E+02 0.105E+01 0.245E+01   -.922E+01 -.128E+00 -.209E+01   -.335E+01 -.115E+01 -.938E+00   -.271E-05 -.192E-05 -.178E-05
   0.732E+01 0.332E+01 -.318E+01   -.662E+01 -.334E+01 0.302E+01   -.134E+01 -.105E+01 0.494E+00   0.148E-05 0.105E-05 0.174E-06
   -.497E+00 0.148E+01 -.662E+01   -.238E+00 -.145E+01 0.642E+01   0.297E+00 0.466E+00 0.191E+01   0.615E-06 0.115E-05 -.129E-05
   -.515E+00 0.312E+01 -.105E+02   0.418E+00 -.295E+01 0.935E+01   -.683E-01 0.587E+00 0.186E+01   0.812E-06 -.165E-05 -.106E-06
   0.129E+01 0.617E+01 -.362E+01   -.139E+01 -.547E+01 0.381E+01   -.719E+00 -.193E+01 0.113E+00   0.270E-05 0.151E-05 -.149E-05
   -.271E+01 0.537E+01 -.942E+01   0.274E+01 -.523E+01 0.879E+01   0.120E+00 -.143E+01 0.201E+01   -.133E-06 0.121E-05 -.561E-06
   -.576E+01 0.941E+01 0.353E+00   0.565E+01 -.840E+01 -.838E-01   0.228E+01 -.150E+01 0.370E+00   -.674E-06 -.259E-07 0.119E-05
   0.129E+01 -.376E+01 -.836E+01   -.147E+01 0.376E+01 0.837E+01   -.358E+00 -.121E+01 0.699E+00   0.131E-05 -.745E-07 -.133E-05
   -.200E+01 -.108E+01 -.352E+00   0.195E+01 0.167E+01 0.706E+00   0.742E+00 -.674E+00 -.789E+00   0.612E-07 -.267E-06 -.177E-05
   -.162E+01 -.623E+00 0.346E+01   0.143E+01 0.531E-01 -.377E+01   0.308E+00 0.414E+00 0.163E+00   -.106E-05 0.109E-05 -.225E-06
   -.733E+01 0.220E+01 0.116E+02   0.677E+01 -.243E+01 -.109E+02   0.188E+01 -.217E+00 -.245E+01   -.584E-06 0.127E-05 0.164E-05
 -----------------------------------------------------------------------------------------------
   -.235E-01 -.104E+01 0.138E+00   -.657E-13 0.133E-13 -.497E-13   0.235E-01 0.104E+01 -.138E+00   0.403E-06 0.731E-06 0.658E-06
 
 
 POSITION                                       TOTAL-FORCE (eV/Angst)
 -----------------------------------------------------------------------------------
      0.03578     10.89796     10.87606         0.550360      1.249278      0.461229
     11.01838     13.56025      2.78562        -1.356057      0.927887      0.576080
      0.13846      5.51966      5.44588        -1.199549     -0.668376      0.384191
     10.92265     19.07118      8.26325         0.822167      0.443693      0.200023
      2.79359     10.91309     13.62733        -0.198548      0.184823      0.660413
     13.61158     13.59414      5.69887         0.917840      1.959453     -2.256467
      2.68328      5.48617      8.16019         1.645845      0.423205      0.714084
     13.59399     19.20452     10.99241         1.794539     -1.073025      0.101670
     16.23265     10.98875      5.53590         2.342477     -1.163697      0.698819
      5.51437      2.77389      8.19518         0.307132     -0.151811     -0.053657
     16.26187     16.35787     10.87726         2.488112     -0.088175     -0.084188
     16.55012     19.13749     13.84635        -1.918173     -1.422461     -2.442715
     19.14833     10.96024      8.24273        -0.218047      0.647921     -0.174189
     19.21734     13.61712     11.00574        -1.137979      0.428000      0.244175
     19.14874     16.37431     13.75676        -0.668341      0.746481     -0.280874
      8.18577      8.35418     16.29342         0.283371     -1.270689      1.721893
      2.69364      2.73085      0.12374         0.900720      0.227525     -1.826445
     13.69160      5.62465     13.70777         0.346366     -1.233463     -1.545110
     13.65058      8.29977     16.51636         1.307249      0.117866     -1.426958
     13.47801     10.80984     19.05610         1.719453      0.685216      1.617801
      5.43722      2.70641      2.83746         1.027620     -0.690425      0.737085
      5.46639      5.40237      5.40625         1.225555     -0.155183      1.668220
      5.29155      8.14632      8.24233         2.422262      1.426146     -0.551136
      5.52052     10.92636     10.98164        -1.002547      0.147288     -1.623121
      8.26539     13.67421     16.35128        -1.099963     -1.337392      0.817029
      8.17017      5.63402      8.10082         1.923514     -3.331003      2.185527
      7.96900      8.23385     10.88099         1.651463      0.386313      0.806944
      8.25836     10.79227     13.71994        -1.252503      1.758678     -0.306923
     10.90018      2.92627      8.12544        -0.455816     -3.145272      0.832863
     10.97687      5.45378     11.06540        -1.545102     -1.101469     -1.733332
     10.99775      8.44212     13.74317        -0.253783     -1.967937     -0.505254
     10.79773     10.85414     16.44018         1.002644     -0.092642      1.166949
     16.29563      5.56587     11.07138         0.312635     -1.570904     -1.235032
      5.50645      8.24943      2.75864        -0.452577     -1.149116     -0.714271
      5.47943     10.75975      5.47287        -0.458534      1.907363      0.248339
     16.39997     13.86872     19.17476        -0.498634     -1.550382     -0.229450
      8.16473     16.31297     13.68804        -1.005806      0.031512     -0.176702
      8.28606      8.16924      5.58730        -1.307697     -0.703891     -1.565884
      8.27250     10.91071      8.24114        -1.814738      1.034565      0.006761
      8.10626     13.50178     10.93823         2.383446      0.423051      0.007627
     10.97691      5.54353      5.50934         0.425175     -0.568747     -1.163537
     10.59805      8.29254      8.12715         2.695294     -0.920649      1.234832
     10.93534     10.89067     10.81356        -0.033782     -0.568235      1.412163
     10.77499     13.71097     13.70093         1.309379     -1.942246      0.527172
     13.58379     16.36268     19.07803         1.453550     -0.194031      1.107339
     13.71489      8.13160     10.89545        -0.740745     -0.072486     -0.042851
     13.73840     11.08307     13.51138        -0.558949     -0.209958      1.286659
     13.51978     13.83112     16.49357        -0.438863     -1.005800      0.372382
      8.10524     18.92131     10.86592         0.113191      2.335324      1.051400
      8.24447     10.91333      2.89763        -0.064317      0.328141     -2.186390
      8.02874     13.51175      5.48845         1.965312      0.721759     -0.340862
     19.14537     16.46117     19.06141        -0.236684     -1.452813      1.036275
     10.83927      8.24427      2.64624         1.376531      0.148658     -0.049711
     10.95672     10.93201      5.39911         1.746454     -1.400500      2.342865
     10.96350     13.57721      8.17536         0.826909      1.257780      0.596411
     10.85570     16.45058     11.03739        -0.146532     -0.606014     -1.582111
     13.73265      8.27116      5.49860        -0.047688     -0.616267      0.507676
     13.65740     11.00944      8.17535         1.327745     -1.919292      1.520196
     13.85160     13.58669     10.97399        -2.039211      0.712152     -0.348596
     13.70797     16.45295     13.62985        -0.671909     -0.015477     -0.498834
     16.56037     19.05461     19.23703        -1.410065      1.671160      0.596741
     16.33840     10.88003     10.96446         0.628238      0.374401      0.008664
     16.32639     13.67507     13.69515        -0.673749      0.458044      0.728589
     16.53577     16.42303     16.59201        -1.305762      0.564068     -1.697647
      1.35315      1.43801      1.40306         0.283349     -1.993614     -0.516541
      1.41513      4.16417      3.92366         0.103910     -0.620163      2.186682
      1.45231      6.94492      6.86018        -1.102506     -0.934755     -0.117751
      1.39746      9.49765      9.66942        -1.125808      0.417973     -1.583739
      4.04535      1.34513      4.29308        -1.138489      0.943924     -1.901905
      4.20640      4.06628      6.85259        -1.540616      0.517392     -0.102247
      4.26860      6.99659      9.73078        -3.501838     -1.223202      0.067578
      4.15036      9.52833     12.22948         0.402167      0.001935      1.562697
      6.80238      1.40904      6.87109         0.484775     -0.499993     -0.789144
      6.83598      4.07484      9.48429         1.033935      0.868927      1.090597
      6.82797      6.78785     12.18229        -0.740578     -0.767637      1.861429
      6.77734      9.62490     15.04893        -0.019224      1.515588      1.074913
      9.58908      1.33081      9.61005         0.413213      1.000725     -0.676658
      9.55595      4.07325     12.50899         0.746779     -0.549843     -1.110299
      9.55904      6.86325     15.05800         0.851614      0.522626     -0.053947
      9.49345      9.47158     17.98844         0.253266      0.422777     -1.871930
      4.21481      3.99644      1.44257        -1.726036      1.570165     -0.135687
      4.24655      6.71662      4.09697        -1.375914      2.424805      0.241169
      4.12901      9.60549      6.96448        -0.770501     -0.378700     -1.203315
      4.06786     12.31068      9.47346        -0.313363     -0.162565      0.803157
      6.94486      4.09333      4.19491        -1.272730     -0.313609     -0.900637
      6.76721      6.78399      7.03583        -1.790394      1.935494     -3.265393
      6.82844      9.61539      9.50197        -1.030244     -0.129519     -0.184463
      6.79202     12.26352     12.29444         0.257011     -0.410017      1.906457
      9.53458      3.98811      6.75388         0.013504      3.028708     -0.069264
      9.40498      6.88437      9.67590         1.070378     -0.420439     -0.371437
      9.52277      9.57099     12.33748         0.501453     -0.540215     -1.580186
      9.49769     12.18676     15.14834         0.312759      0.578615     -1.341467
     12.27261      4.03225      9.44220         0.648585      1.203970      2.594481
     12.26439      6.84171     12.20665         0.830812      1.475522      1.884778
     12.39543      9.77789     15.04310         0.154333     -0.428875      0.128041
     12.19342     12.21722     17.88821        -0.878942      1.574752     -1.595141
      6.80919      6.70895      1.44153        -0.040508      1.238352      0.020203
      6.83537      9.55879      4.00634         0.679174     -0.797150      2.095839
      6.78388     12.27677      6.92069        -0.756796     -0.572874      0.260860
      6.86147     14.94768      9.73203        -0.542727      2.379024     -0.841034
      9.56552      6.70945      3.81765         0.805404      1.440476      3.089848
      9.44390      9.74366      6.80811         1.190486     -0.784454     -1.491752
      9.70439     12.18037      9.42395        -1.136176      0.998633      1.442030
      9.55171     15.07096     12.45633        -0.776907     -0.652360     -2.473394
     12.49579      6.92121      6.94327        -3.134218      0.942816     -1.085034
     12.32438      9.48723      9.62721        -0.517562      0.376020     -1.555412
     12.16168     12.29040     12.23796         0.497915      0.706540     -0.027072
     12.36029     14.96846     14.82805        -0.858486      1.106705      1.549831
     15.00515      6.84244      9.50240         0.331493     -0.866378      0.192456
     14.98388      9.45579     12.26771         0.393894      0.790710      0.473696
     14.80428     12.40270     15.28759         2.040940     -1.128424     -1.715790
     15.02154     15.11695     17.71635         0.117725     -0.122630      0.616438
      9.58753      9.70988      1.26808        -1.442523     -1.718511      0.671361
      9.69404     12.11376      4.16201        -1.844112      3.026141     -0.791263
      9.50587     14.88937      6.95494         0.209706      0.785645     -1.876824
      9.47701     17.81866      9.48126         0.941588     -1.556028      0.766896
     12.37197      9.51816      4.20083        -0.982612      0.360068     -1.780496
     12.35702     12.23997      6.88840        -2.122843     -0.228275     -0.576535
     12.36763     15.09842      9.61085        -0.635132     -1.065173      0.333521
     12.30859     17.75707     12.18993        -0.438168      0.496589      1.701655
     15.12128      9.46027      6.89059        -0.165687      0.756207      0.730363
     15.17073     12.37739      9.51463        -0.825204     -1.224945      0.303882
     15.00034     15.13639     12.23438         0.158301     -1.292434      1.372539
     14.90508     17.82998     15.03326         2.178352     -0.492131      0.638670
     17.82774      9.66220      9.59588        -0.532671     -1.211807      0.711890
     17.70221     12.27049     12.43002         0.692599     -0.085846     -0.434554
     17.71849     15.02723     15.09157         0.123579     -0.156194     -0.148833
     17.79032     17.88123     17.85196         1.326621     -0.446986     -1.749652
 -----------------------------------------------------------------------------------
    total drift:                               -0.000013      0.000021      0.000021


--------------------------------------------------------------------------------------------------------



  FREE ENERGIE OF THE ION-ELECTRON SYSTEM (eV)
  ---------------------------------------------------
  free  energy   TOTEN  =      -677.39001476 eV

  energy  without entropy=     -677.39001476  energy(sigma->0) =     -677.39001476
 


--------------------------------------------------------------------------------------------------------


    POTLOK:  cpu time    0.9973: real time    0.9974


--------------------------------------------------------------------------------------------------------


     LOOP+:  cpu time 1693.0643: real time 1693.5646
    4ORBIT:  cpu time    0.0000: real time    0.0000

 total amount of memory used by VASP MPI-rank0   221701. kBytes
=======================================================================

   base      :      30000. kBytes
   nonl-proj :      10690. kBytes
   fftplans  :      66746. kBytes
   grid      :      26864. kBytes
   one-center:         24. kBytes
   wavefun   :      87377. kBytes
 
  
  
 General timing and accounting informations for this job:
 ========================================================
  
                  Total CPU time used (sec):     1717.076
                            User time (sec):     1715.964
                          System time (sec):        1.112
                         Elapsed time (sec):     1718.572
  
                   Maximum memory used (kb):      337452.
                   Average memory used (kb):           0.
  
                          Minor page faults:       140065
                          Major page faults:            0
                 Voluntary context switches:         1362
