<?xml version="1.0" encoding="ISO-8859-1"?>
<modeling>
 <generator>
  <i name="program" type="string">vasp </i>
  <i name="version" type="string">5.4.4.18Apr17-6-g9f103f2a35  </i>
  <i name="subversion" type="string">(build Nov 08 2017 09:05:29) complex            parallel </i>
  <i name="platform" type="string">Intel_17.33 </i>
  <i name="date" type="string">2020 07 18 </i>
  <i name="time" type="string">23:44:55 </i>
 </generator>
 <incar>
  <i type="string" name="SYSTEM">potpaw_PBE@./ARUN.APL1ZEROSTATE</i>
  <i type="string" name="PREC">accurate</i>
  <i type="string" name="ALGO">Normal</i>
  <i type="int" name="NSIM">     4</i>
  <i type="logical" name="ADDGRID"> T  </i>
  <i type="int" name="NELM">   120</i>
  <i type="int" name="NELMIN">     4</i>
  <i name="EDIFF">      0.00000001</i>
  <i type="int" name="NSW">     0</i>
  <i type="int" name="ISYM">     2</i>
  <i name="ENMAX">    500.00000000</i>
  <i type="logical" name="LREAL"> F  </i>
  <i type="logical" name="LPLANE"> T  </i>
  <i type="int" name="ISMEAR">     0</i>
  <i name="SIGMA">      0.01000000</i>
  <i type="logical" name="LWAVE"> F  </i>
  <i type="logical" name="LCHARG"> F  </i>
  <i type="logical" name="LELF"> F  </i>
  <i type="logical" name="LAECHG"> F  </i>
  <v type="int" name="KPOINT_BSE">    -1     0     0     0</v>
  <i type="int" name="NELM">   120</i>
 </incar>
 <structure name="primitive_cell" >
  <crystal>
   <varray name="basis" >
    <v>       0.00000000      10.93733369      10.93733369 </v>
    <v>      10.93733369       0.00000000      10.93733369 </v>
    <v>      10.93733369      10.93733369       0.00000000 </v>
   </varray>
   <i name="volume">   2616.76295363 </i>
   <varray name="rec_basis" >
    <v>      -0.04571498       0.04571498       0.04571498 </v>
    <v>       0.04571498      -0.04571498       0.04571498 </v>
    <v>       0.04571498       0.04571498      -0.04571498 </v>
   </varray>
  </crystal>
  <varray name="positions" >
   <v>      -0.00623657       0.00063444       0.00263700 </v>
   <v>       0.06356377       0.05237710      -0.17578983 </v>
   <v>      -0.18766229       0.07173721       0.05603251 </v>
   <v>       0.06179662      -0.18314990       0.05987900 </v>
   <v>       0.06802032       0.06026110       0.06345701 </v>
   <v>      -0.24099666       0.24603245      -0.00313447 </v>
   <v>      -0.25082595      -0.00687544       0.23916960 </v>
   <v>       0.00234243       0.23960294      -0.24856897 </v>
   <v>      -0.24973587       0.00524467      -0.00658722 </v>
   <v>       0.00249820      -0.24886538      -0.00040377 </v>
   <v>       0.24711282      -0.24085888      -0.00210042 </v>
   <v>       0.00735763       0.00395573       0.24232350 </v>
   <v>      -0.00584388       0.25179031       0.00362715 </v>
   <v>       0.24354601       0.01114280      -0.00373301 </v>
   <v>       0.25447171       0.01045861      -0.25666679 </v>
   <v>       0.00692688      -0.26401851       0.26062172 </v>
   <v>      -0.00880821       0.00227889      -0.26121716 </v>
   <v>      -0.18115259      -0.18332883       0.29817250 </v>
   <v>      -0.17865864      -0.17665861       0.04464469 </v>
   <v>       0.06538763      -0.18803691      -0.18197310 </v>
   <v>      -0.19366031       0.30818480      -0.18281122 </v>
   <v>      -0.19010088       0.05625896       0.31566547 </v>
   <v>      -0.18522622       0.05209741      -0.18561448 </v>
   <v>       0.05494223      -0.19164203       0.31372614 </v>
   <v>      -0.19507544       0.31321676       0.06625025 </v>
   <v>       0.30088400       0.07964870      -0.19332332 </v>
   <v>       0.32120671      -0.17750992       0.05121006 </v>
   <v>       0.31992699      -0.18345066      -0.19803689 </v>
   <v>       0.06157896       0.32250267      -0.19133411 </v>
   <v>      -0.24585889      -0.25101621       0.23825262 </v>
   <v>      -0.23965625       0.24880449      -0.25626806 </v>
   <v>       0.24569052       0.24794945      -0.24617687 </v>
   <v>      -0.25084652       0.25489771       0.24984295 </v>
   <v>       0.25336665      -0.24165790       0.24527236 </v>
   <v>       0.25171091      -0.24923062      -0.25694987 </v>
   <v>      -0.43126162       0.06802335       0.30949166 </v>
   <v>      -0.43529208       0.06251811       0.07026625 </v>
   <v>      -0.43044788       0.32013239       0.07014590 </v>
   <v>       0.04395857       0.30508890      -0.43051355 </v>
   <v>       0.05519672      -0.43769013       0.30943609 </v>
   <v>       0.30504240       0.05369774       0.07568740 </v>
   <v>       0.30765115       0.05864838      -0.43369118 </v>
   <v>       0.06755492      -0.43933177       0.06127337 </v>
   <v>       0.30734887      -0.44020039       0.06521367 </v>
   <v>       0.05596403       0.07592990       0.30943019 </v>
   <v>       0.07281739       0.31969883       0.05016748 </v>
   <v>       0.06131713       0.07048213      -0.44791852 </v>
   <v>      -0.48956672      -0.00034277       0.24841453 </v>
   <v>      -0.49269635       0.24629239       0.23751407 </v>
   <v>      -0.00655525      -0.23460420      -0.25128225 </v>
   <v>      -0.23176379      -0.26022946       0.49634219 </v>
   <v>      -0.49882310       0.24490896       0.00042345 </v>
   <v>      -0.25142519       0.49760190      -0.24428246 </v>
   <v>      -0.25131593      -0.00589966      -0.24363998 </v>
   <v>      -0.00081159      -0.25488520       0.49685097 </v>
   <v>      -0.24744758      -0.26284590       0.01127023 </v>
   <v>       0.25150620       0.00071610      -0.49726147 </v>
   <v>      -0.00523719      -0.49976576       0.25546966 </v>
   <v>       0.24936167       0.49992332       0.00425487 </v>
   <v>       0.00487571       0.25455329       0.24257109 </v>
   <v>      -0.23914203      -0.00770995      -0.49284113 </v>
   <v>       0.00169624      -0.49895975      -0.24546449 </v>
   <v>      -0.49794330      -0.24427689      -0.00495428 </v>
   <v>      -0.00175473       0.25325138       0.49324938 </v>
   <v>      -0.49843971       0.00024889      -0.26618149 </v>
   <v>       0.25008247       0.26076393       0.49683040 </v>
   <v>      -0.49513192      -0.25272129      -0.25455722 </v>
   <v>      -0.24873263      -0.48529573      -0.00152698 </v>
   <v>       0.25972614       0.26132097      -0.01681439 </v>
   <v>       0.25786970      -0.00456852       0.25639138 </v>
   <v>       0.25438886       0.48626869       0.26072927 </v>
   <v>      -0.18456345      -0.43042481       0.29879836 </v>
   <v>      -0.17974198      -0.18805372      -0.18537794 </v>
   <v>      -0.17904316      -0.44646670      -0.19076245 </v>
   <v>      -0.43580192       0.31452154      -0.18374984 </v>
   <v>      -0.43196568      -0.19264414       0.32595747 </v>
   <v>       0.30726371      -0.43734105      -0.17559984 </v>
   <v>      -0.18783073       0.31191075       0.30908352 </v>
   <v>      -0.43821203       0.30697705       0.31734663 </v>
   <v>      -0.17824627       0.31712830      -0.44381604 </v>
   <v>       0.31012878      -0.19407546       0.31540848 </v>
   <v>       0.32493645       0.29752919      -0.43407385 </v>
   <v>      -0.18573544      -0.19445949      -0.43212205 </v>
   <v>       0.32710350      -0.44243676       0.30233409 </v>
   <v>       0.30810152      -0.18646536      -0.44355912 </v>
   <v>       0.30955185       0.32025394      -0.19045185 </v>
   <v>      -0.43312029      -0.18705787      -0.19294102 </v>
   <v>      -0.49835758       0.49286537      -0.00604343 </v>
   <v>       0.49495983       0.00295650       0.00970246 </v>
   <v>       0.49158219       0.00880226       0.49218152 </v>
   <v>       0.01334866       0.49279821      -0.00864788 </v>
   <v>      -0.41091616      -0.19133965      -0.45510545 </v>
   <v>       0.00347209      -0.49975354      -0.49662778 </v>
   <v>       0.01561713      -0.00336128       0.49327002 </v>
   <v>      -0.43448577      -0.44692535      -0.18159455 </v>
   <v>      -0.43251301       0.06527178      -0.44502232 </v>
   <v>      -0.43486155      -0.18838597       0.06236832 </v>
   <v>       0.05621030      -0.42620410      -0.19125784 </v>
   <v>      -0.18543946       0.07523902      -0.44789502 </v>
   <v>      -0.18186206      -0.44221468       0.06186624 </v>
   <v>      -0.20290341      -0.44136890      -0.42853071 </v>
   <v>      -0.44492087      -0.44125298       0.06553417 </v>
   <v>       0.06124396      -0.19244026      -0.43563949 </v>
   <v>      -0.43594853       0.07183827      -0.20271675 </v>
   <v>       0.06256978      -0.42774646      -0.42976397 </v>
   <v>      -0.49046841       0.48531655       0.24328909 </v>
   <v>      -0.48856198      -0.25490026       0.26042453 </v>
   <v>      -0.25330293       0.25338525       0.48776995 </v>
   <v>       0.48956523      -0.48621384      -0.24733503 </v>
   <v>      -0.25695542      -0.48863068       0.24369231 </v>
   <v>       0.49628403      -0.26093931      -0.48295965 </v>
   <v>      -0.23944360       0.49211954       0.49303717 </v>
   <v>       0.26613614       0.47692892       0.49205033 </v>
   <v>       0.24284567      -0.24667478      -0.49937354 </v>
   <v>       0.49734915       0.25613780      -0.49978327 </v>
   <v>       0.49322210       0.25425034      -0.25185806 </v>
   <v>       0.25268444       0.49478743      -0.24609161 </v>
   <v>       0.32241002       0.32087581       0.29784949 </v>
   <v>       0.06141233       0.32212807       0.31284063 </v>
   <v>       0.30685997       0.31967165       0.06491953 </v>
   <v>       0.30021205       0.07437380       0.31388824 </v>
   <v>      -0.24665037      -0.23634250      -0.25179226 </v>
   <v>       0.24421994       0.25007283       0.24971865 </v>
   <v>      -0.45599466       0.31762633      -0.43035453 </v>
   <v>      -0.43378784      -0.43819665       0.30886316 </v>
   <v>       0.31040761      -0.43019214      -0.44299014 </v>
   <v>      -0.43465704      -0.44642659      -0.44163179 </v>
   <v>       0.49229981       0.49638330      -0.49656586 </v>
  </varray>
 </structure>
 <varray name="primitive_index" >
  <v type="int" >        1 </v>
  <v type="int" >      113 </v>
  <v type="int" >       68 </v>
  <v type="int" >       77 </v>
  <v type="int" >       65 </v>
  <v type="int" >        8 </v>
  <v type="int" >       20 </v>
  <v type="int" >       53 </v>
  <v type="int" >        4 </v>
  <v type="int" >       13 </v>
  <v type="int" >       14 </v>
  <v type="int" >       17 </v>
  <v type="int" >        5 </v>
  <v type="int" >        2 </v>
  <v type="int" >       50 </v>
  <v type="int" >       29 </v>
  <v type="int" >       49 </v>
  <v type="int" >       96 </v>
  <v type="int" >       80 </v>
  <v type="int" >      125 </v>
  <v type="int" >      120 </v>
  <v type="int" >       84 </v>
  <v type="int" >      116 </v>
  <v type="int" >       93 </v>
  <v type="int" >       72 </v>
  <v type="int" >      114 </v>
  <v type="int" >       78 </v>
  <v type="int" >      126 </v>
  <v type="int" >      117 </v>
  <v type="int" >       32 </v>
  <v type="int" >       56 </v>
  <v type="int" >       54 </v>
  <v type="int" >       24 </v>
  <v type="int" >       30 </v>
  <v type="int" >       62 </v>
  <v type="int" >       83 </v>
  <v type="int" >       67 </v>
  <v type="int" >       71 </v>
  <v type="int" >      101 </v>
  <v type="int" >       89 </v>
  <v type="int" >       66 </v>
  <v type="int" >       98 </v>
  <v type="int" >       73 </v>
  <v type="int" >       74 </v>
  <v type="int" >       81 </v>
  <v type="int" >       69 </v>
  <v type="int" >       97 </v>
  <v type="int" >       19 </v>
  <v type="int" >       23 </v>
  <v type="int" >       61 </v>
  <v type="int" >       48 </v>
  <v type="int" >        7 </v>
  <v type="int" >       60 </v>
  <v type="int" >       52 </v>
  <v type="int" >       45 </v>
  <v type="int" >       16 </v>
  <v type="int" >       34 </v>
  <v type="int" >       25 </v>
  <v type="int" >       10 </v>
  <v type="int" >       21 </v>
  <v type="int" >       36 </v>
  <v type="int" >       57 </v>
  <v type="int" >       15 </v>
  <v type="int" >       37 </v>
  <v type="int" >       51 </v>
  <v type="int" >       38 </v>
  <v type="int" >       63 </v>
  <v type="int" >       12 </v>
  <v type="int" >        6 </v>
  <v type="int" >       18 </v>
  <v type="int" >       26 </v>
  <v type="int" >       92 </v>
  <v type="int" >      128 </v>
  <v type="int" >      124 </v>
  <v type="int" >      119 </v>
  <v type="int" >       95 </v>
  <v type="int" >      122 </v>
  <v type="int" >       88 </v>
  <v type="int" >       87 </v>
  <v type="int" >      104 </v>
  <v type="int" >       94 </v>
  <v type="int" >      102 </v>
  <v type="int" >      112 </v>
  <v type="int" >       90 </v>
  <v type="int" >      110 </v>
  <v type="int" >      118 </v>
  <v type="int" >      127 </v>
  <v type="int" >       11 </v>
  <v type="int" >        3 </v>
  <v type="int" >       35 </v>
  <v type="int" >        9 </v>
  <v type="int" >      111 </v>
  <v type="int" >       41 </v>
  <v type="int" >       33 </v>
  <v type="int" >      123 </v>
  <v type="int" >       99 </v>
  <v type="int" >       79 </v>
  <v type="int" >      121 </v>
  <v type="int" >      100 </v>
  <v type="int" >       76 </v>
  <v type="int" >      108 </v>
  <v type="int" >       75 </v>
  <v type="int" >      109 </v>
  <v type="int" >      115 </v>
  <v type="int" >      105 </v>
  <v type="int" >       27 </v>
  <v type="int" >       31 </v>
  <v type="int" >       40 </v>
  <v type="int" >       59 </v>
  <v type="int" >       28 </v>
  <v type="int" >       47 </v>
  <v type="int" >       44 </v>
  <v type="int" >       42 </v>
  <v type="int" >       46 </v>
  <v type="int" >       39 </v>
  <v type="int" >       55 </v>
  <v type="int" >       58 </v>
  <v type="int" >       86 </v>
  <v type="int" >       85 </v>
  <v type="int" >       70 </v>
  <v type="int" >       82 </v>
  <v type="int" >       64 </v>
  <v type="int" >       22 </v>
  <v type="int" >      103 </v>
  <v type="int" >       91 </v>
  <v type="int" >      106 </v>
  <v type="int" >      107 </v>
  <v type="int" >       43 </v>
 </varray>
 <kpoints>
  <generation param="Gamma">
   <v type="int" name="divisions">       2        2        2 </v>
   <v name="usershift">      0.00000000       0.00000000       0.00000000 </v>
   <v name="genvec1">      0.50000000       0.00000000       0.00000000 </v>
   <v name="genvec2">      0.00000000       0.50000000       0.00000000 </v>
   <v name="genvec3">      0.00000000       0.00000000       0.50000000 </v>
   <v name="shift">      0.00000000       0.00000000       0.00000000 </v>
  </generation>
  <varray name="kpointlist" >
   <v>       0.00000000       0.00000000       0.00000000 </v>
   <v>       0.50000000       0.00000000       0.00000000 </v>
   <v>       0.00000000       0.50000000       0.00000000 </v>
   <v>       0.50000000       0.50000000       0.00000000 </v>
   <v>       0.00000000       0.00000000       0.50000000 </v>
   <v>       0.50000000       0.00000000       0.50000000 </v>
   <v>       0.00000000       0.50000000       0.50000000 </v>
   <v>       0.50000000       0.50000000       0.50000000 </v>
  </varray>
  <varray name="weights" >
   <v>       0.12500000 </v>
   <v>       0.12500000 </v>
   <v>       0.12500000 </v>
   <v>       0.12500000 </v>
   <v>       0.12500000 </v>
   <v>       0.12500000 </v>
   <v>       0.12500000 </v>
   <v>       0.12500000 </v>
  </varray>
 </kpoints>
 <parameters>
  <separator name="general" >
   <i type="string" name="SYSTEM">potpaw_PBE@./ARUN.APL1ZEROSTATE</i>
   <i type="logical" name="LCOMPAT"> F  </i>
  </separator>
  <separator name="electronic" >
   <i type="string" name="PREC">accura</i>
   <i name="ENMAX">    500.00000000</i>
   <i name="ENAUG">    322.06900000</i>
   <i name="EDIFF">      0.00000001</i>
   <i type="int" name="IALGO">    38</i>
   <i type="int" name="IWAVPR">    10</i>
   <i type="int" name="NBANDS">   322</i>
   <i name="NELECT">    512.00000000</i>
   <i type="int" name="TURBO">     0</i>
   <i type="int" name="IRESTART">     0</i>
   <i type="int" name="NREBOOT">     0</i>
   <i type="int" name="NMIN">     0</i>
   <i name="EREF">      0.00000000</i>
   <separator name="electronic smearing" >
    <i type="int" name="ISMEAR">     0</i>
    <i name="SIGMA">      0.01000000</i>
    <i name="KSPACING">      0.50000000</i>
    <i type="logical" name="KGAMMA"> T  </i>
   </separator>
   <separator name="electronic projectors" >
    <i type="logical" name="LREAL"> F  </i>
    <v name="ROPT">      0.00000000</v>
    <i type="int" name="LMAXPAW">  -100</i>
    <i type="int" name="LMAXMIX">     2</i>
    <i type="logical" name="NLSPLINE"> F  </i>
   </separator>
   <separator name="electronic startup" >
    <i type="int" name="ISTART">     0</i>
    <i type="int" name="ICHARG">     2</i>
    <i type="int" name="INIWAV">     1</i>
   </separator>
   <separator name="electronic spin" >
    <i type="int" name="ISPIN">     1</i>
    <i type="logical" name="LNONCOLLINEAR"> F  </i>
    <v name="MAGMOM">      1.00000000      1.00000000      1.00000000      1.00000000      1.00000000      1.00000000      1.00000000      1.00000000      1.00000000      1.00000000      1.00000000      1.00000000      1.00000000      1.00000000      1.00000000      1.00000000      1.00000000      1.00000000      1.00000000      1.00000000
      1.00000000      1.00000000      1.00000000      1.00000000      1.00000000      1.00000000      1.00000000      1.00000000      1.00000000      1.00000000      1.00000000      1.00000000      1.00000000      1.00000000      1.00000000      1.00000000      1.00000000      1.00000000      1.00000000      1.00000000
      1.00000000      1.00000000      1.00000000      1.00000000      1.00000000      1.00000000      1.00000000      1.00000000      1.00000000      1.00000000      1.00000000      1.00000000      1.00000000      1.00000000      1.00000000      1.00000000      1.00000000      1.00000000      1.00000000      1.00000000
      1.00000000      1.00000000      1.00000000      1.00000000      1.00000000      1.00000000      1.00000000      1.00000000      1.00000000      1.00000000      1.00000000      1.00000000      1.00000000      1.00000000      1.00000000      1.00000000      1.00000000      1.00000000      1.00000000      1.00000000
      1.00000000      1.00000000      1.00000000      1.00000000      1.00000000      1.00000000      1.00000000      1.00000000      1.00000000      1.00000000      1.00000000      1.00000000      1.00000000      1.00000000      1.00000000      1.00000000      1.00000000      1.00000000      1.00000000      1.00000000
      1.00000000      1.00000000      1.00000000      1.00000000      1.00000000      1.00000000      1.00000000      1.00000000      1.00000000      1.00000000      1.00000000      1.00000000      1.00000000      1.00000000      1.00000000      1.00000000      1.00000000      1.00000000      1.00000000      1.00000000
      1.00000000      1.00000000      1.00000000      1.00000000      1.00000000      1.00000000      1.00000000      1.00000000</v>
    <i name="NUPDOWN">     -1.00000000</i>
    <i type="logical" name="LSORBIT"> F  </i>
    <v name="SAXIS">      0.00000000      0.00000000      1.00000000</v>
    <i type="logical" name="LSPIRAL"> F  </i>
    <v name="QSPIRAL">      0.00000000      0.00000000      0.00000000</v>
    <i type="logical" name="LZEROZ"> F  </i>
   </separator>
   <separator name="electronic exchange-correlation" >
    <i type="logical" name="LASPH"> F  </i>
    <i type="logical" name="LMETAGGA"> F  </i>
   </separator>
   <separator name="electronic convergence" >
    <i type="int" name="NELM">   120</i>
    <i type="int" name="NELMDL">    -5</i>
    <i type="int" name="NELMIN">     4</i>
    <i name="ENINI">    500.00000000</i>
    <separator name="electronic convergence detail" >
     <i type="logical" name="LDIAG"> T  </i>
     <i type="logical" name="LSUBROT"> F  </i>
     <i name="WEIMIN">      0.00000000</i>
     <i name="EBREAK">      0.00000000</i>
     <i name="DEPER">      0.30000000</i>
     <i type="int" name="NRMM">     4</i>
     <i name="TIME">      0.40000000</i>
    </separator>
   </separator>
   <separator name="electronic mixer" >
    <i name="AMIX">      0.40000000</i>
    <i name="BMIX">      1.00000000</i>
    <i name="AMIN">      0.10000000</i>
    <i name="AMIX_MAG">      1.60000000</i>
    <i name="BMIX_MAG">      1.00000000</i>
    <separator name="electronic mixer details" >
     <i type="int" name="IMIX">     4</i>
     <i type="logical" name="MIXFIRST"> F  </i>
     <i type="int" name="MAXMIX">   -45</i>
     <i name="WC">    100.00000000</i>
     <i type="int" name="INIMIX">     1</i>
     <i type="int" name="MIXPRE">     1</i>
     <i type="int" name="MREMOVE">     5</i>
    </separator>
   </separator>
   <separator name="electronic dipolcorrection" >
    <i type="logical" name="LDIPOL"> F  </i>
    <i type="logical" name="LMONO"> F  </i>
    <i type="int" name="IDIPOL">     0</i>
    <i name="EPSILON">      1.00000000</i>
    <v name="DIPOL">   -100.00000000   -100.00000000   -100.00000000</v>
    <i name="EFIELD">      0.00000000</i>
   </separator>
  </separator>
  <separator name="grids" >
   <i type="int" name="NGX">   120</i>
   <i type="int" name="NGY">   120</i>
   <i type="int" name="NGZ">   120</i>
   <i type="int" name="NGXF">   240</i>
   <i type="int" name="NGYF">   240</i>
   <i type="int" name="NGZF">   240</i>
   <i type="logical" name="ADDGRID"> T  </i>
  </separator>
  <separator name="ionic" >
   <i type="int" name="NSW">     0</i>
   <i type="int" name="IBRION">    -1</i>
   <i type="int" name="MDALGO">     0</i>
   <i type="int" name="ISIF">     2</i>
   <i name="PSTRESS">      0.00000000</i>
   <i name="EDIFFG">      0.00000010</i>
   <i type="int" name="NFREE">     0</i>
   <i name="POTIM">      0.50000000</i>
   <i name="SMASS">     -3.00000000</i>
   <i name="SCALEE">      1.00000000</i>
  </separator>
  <separator name="ionic md" >
   <i name="TEBEG">      0.00010000</i>
   <i name="TEEND">      0.00010000</i>
   <i type="int" name="NBLOCK">     1</i>
   <i type="int" name="KBLOCK">     1</i>
   <i type="int" name="NPACO">   256</i>
   <i name="APACO">     16.00000000</i>
  </separator>
  <separator name="symmetry" >
   <i type="int" name="ISYM">     2</i>
   <i name="SYMPREC">      0.00001000</i>
  </separator>
  <separator name="dos" >
   <i type="int" name="LORBIT">     0</i>
   <v name="RWIGS">     -1.00000000</v>
   <i type="int" name="NEDOS">   301</i>
   <i name="EMIN">     10.00000000</i>
   <i name="EMAX">    -10.00000000</i>
   <i name="EFERMI">      0.00000000</i>
  </separator>
  <separator name="writing" >
   <i type="int" name="NWRITE">     2</i>
   <i type="logical" name="LWAVE"> F  </i>
   <i type="logical" name="LDOWNSAMPLE"> F  </i>
   <i type="logical" name="LCHARG"> F  </i>
   <i type="logical" name="LPARD"> F  </i>
   <i type="logical" name="LVTOT"> F  </i>
   <i type="logical" name="LVHAR"> F  </i>
   <i type="logical" name="LELF"> F  </i>
   <i type="logical" name="LOPTICS"> F  </i>
   <v name="STM">      0.00000000      0.00000000      0.00000000      0.00000000      0.00000000      0.00000000      0.00000000</v>
  </separator>
  <separator name="performance" >
   <i type="int" name="NPAR">     2</i>
   <i type="int" name="NSIM">     4</i>
   <i type="int" name="NBLK">    -1</i>
   <i type="logical" name="LPLANE"> T  </i>
   <i type="logical" name="LSCALAPACK"> T  </i>
   <i type="logical" name="LSCAAWARE"> F  </i>
   <i type="logical" name="LSCALU"> F  </i>
   <i type="logical" name="LASYNC"> F  </i>
   <i type="logical" name="LORBITALREAL"> F  </i>
  </separator>
  <separator name="miscellaneous" >
   <i type="int" name="IDIOT">     3</i>
   <i type="int" name="ISPECIAL">     0</i>
   <i type="logical" name="LMUSIC"> F  </i>
   <v name="POMASS">     28.08500000</v>
   <v name="DARWINR">      0.00000000</v>
   <v name="DARWINV">      1.00000000</v>
   <i type="logical" name="LCORR"> T  </i>
  </separator>
  <i type="logical" name="GGA_COMPAT"> T  </i>
  <i type="logical" name="LBERRY"> F  </i>
  <i type="int" name="ICORELEVEL">     0</i>
  <i type="logical" name="LDAU"> F  </i>
  <i type="int" name="I_CONSTRAINED_M">     0</i>
  <separator name="electronic exchange-correlation" >
   <i type="string" name="GGA">--</i>
   <i type="int" name="VOSKOWN">     0</i>
   <i type="logical" name="LHFCALC"> F  </i>
   <i type="string" name="PRECFOCK"></i>
   <i type="logical" name="LSYMGRAD"> F  </i>
   <i type="logical" name="LHFONE"> F  </i>
   <i type="logical" name="LRHFCALC"> F  </i>
   <i type="logical" name="LTHOMAS"> F  </i>
   <i type="logical" name="LMODELHF"> F  </i>
   <i name="ENCUT4O">     -1.00000000</i>
   <i type="int" name="EXXOEP">     0</i>
   <i type="int" name="FOURORBIT">     0</i>
   <i name="AEXX">      0.00000000</i>
   <i name="HFALPHA">      0.00000000</i>
   <i name="MCALPHA">      0.00000000</i>
   <i name="ALDAX">      1.00000000</i>
   <i name="AGGAX">      1.00000000</i>
   <i name="ALDAC">      1.00000000</i>
   <i name="AGGAC">      1.00000000</i>
   <i type="int" name="NKREDX">     1</i>
   <i type="int" name="NKREDY">     1</i>
   <i type="int" name="NKREDZ">     1</i>
   <i type="logical" name="SHIFTRED"> F  </i>
   <i type="logical" name="ODDONLY"> F  </i>
   <i type="logical" name="EVENONLY"> F  </i>
   <i type="int" name="LMAXFOCK">     0</i>
   <i type="int" name="NMAXFOCKAE">     0</i>
   <i type="logical" name="LFOCKAEDFT"> F  </i>
   <i name="HFSCREEN">      0.00000000</i>
   <i name="HFSCREENC">      0.00000000</i>
   <i type="int" name="NBANDSGWLOW">     0</i>
  </separator>
  <separator name="vdW DFT" >
   <i type="logical" name="LUSE_VDW"> F  </i>
   <i name="Zab_VDW">     -0.84910000</i>
   <i name="PARAM1">      0.12340000</i>
   <i name="PARAM2">      1.00000000</i>
   <i name="PARAM3">      0.00000000</i>
  </separator>
  <separator name="model GW" >
   <i type="int" name="MODEL_GW">     0</i>
   <i name="MODEL_EPS0">     12.26607635</i>
   <i name="MODEL_ALPHA">      1.00000000</i>
  </separator>
  <separator name="linear response parameters" >
   <i type="logical" name="LEPSILON"> F  </i>
   <i type="logical" name="LRPA"> F  </i>
   <i type="logical" name="LNABLA"> F  </i>
   <i type="logical" name="LVEL"> F  </i>
   <i type="int" name="KINTER">     0</i>
   <i name="CSHIFT">      0.10000000</i>
   <i name="OMEGAMAX">     -1.00000000</i>
   <i name="DEG_THRESHOLD">      0.00200000</i>
   <i name="RTIME">     -0.10000000</i>
   <i name="WPLASMAI">      0.00000000</i>
   <v name="DFIELD">      0.00000000      0.00000000      0.00000000</v>
   <v name="WPLASMA">      0.00000000      0.00000000      0.00000000      0.00000000      0.00000000      0.00000000      0.00000000      0.00000000      0.00000000</v>
  </separator>
  <separator name="orbital magnetization" >
   <i type="logical" name="NUCIND"> F  </i>
   <v name="MAGPOS">      0.00000000      0.00000000      0.00000000</v>
   <i type="logical" name="LNICSALL"> T  </i>
   <i type="logical" name="ORBITALMAG"> F  </i>
   <i type="logical" name="LMAGBLOCH"> F  </i>
   <i type="logical" name="LCHIMAG"> F  </i>
   <i type="logical" name="LGAUGE"> T  </i>
   <i type="int" name="MAGATOM">     0</i>
   <v name="MAGDIPOL">      0.00000000      0.00000000      0.00000000</v>
   <v name="AVECCONST">      0.00000000      0.00000000      0.00000000</v>
  </separator>
  <separator name="response functions" >
   <i type="logical" name="LADDER"> F  </i>
   <i type="logical" name="LRPAFORCE"> F  </i>
   <i type="logical" name="LFXC"> F  </i>
   <i type="logical" name="LHARTREE"> T  </i>
   <i type="int" name="IBSE">     0</i>
   <v type="int" name="KPOINT">    -1     0     0     0</v>
   <i type="logical" name="LTCTE"> F  </i>
   <i type="logical" name="LTETE"> F  </i>
   <i type="logical" name="LTRIPLET"> F  </i>
   <i type="logical" name="LFXCEPS"> F  </i>
   <i type="logical" name="LFXHEG"> F  </i>
   <i type="int" name="NATURALO">     2</i>
   <i type="logical" name="L2ORDER"> F  </i>
   <i type="logical" name="LMP2LT"> F  </i>
   <i type="logical" name="LUSEW"> F  </i>
   <i name="ENCUTGW">     -2.00000000</i>
   <i name="ENCUTGWSOFT">     -2.00000000</i>
   <i name="ENCUTLF">     -1.00000000</i>
   <i type="int" name="LMAXMP2">    -1</i>
   <i name="SCISSOR">      0.00000000</i>
   <i type="int" name="NOMEGA">     0</i>
   <i type="int" name="NOMEGAR">     0</i>
   <i type="int" name="NBANDSGW">    -1</i>
   <i type="int" name="NBANDSO">    -1</i>
   <i type="int" name="NBANDSV">    -1</i>
   <i type="int" name="NELM">   120</i>
   <i type="int" name="NELMHF">     1</i>
   <i type="int" name="DIM">     3</i>
   <i type="int" name="ANTIRES">     0</i>
   <i name="OMEGAMAX">    -30.00000000</i>
   <i name="OMEGAMIN">    -30.00000000</i>
   <i name="OMEGATL">   -200.00000000</i>
   <i type="int" name="OMEGAGRID">   140</i>
   <i name="CSHIFT">     -0.10000000</i>
   <i type="logical" name="SELFENERGY"> F  </i>
   <i type="logical" name="LSPECTRAL"> F  </i>
   <i type="logical" name="LSPECTRALGW"> F  </i>
   <i type="logical" name="LSINGLES"> F  </i>
   <i type="logical" name="LFERMIGW"> F  </i>
   <i type="logical" name="ODDONLYGW"> F  </i>
   <i type="logical" name="EVENONLYGW"> F  </i>
   <i type="int" name="NKREDLFX">     1</i>
   <i type="int" name="NKREDLFY">     1</i>
   <i type="int" name="NKREDLFZ">     1</i>
   <i type="int" name="MAXMEM">  2800</i>
   <i type="int" name="TELESCOPE">     0</i>
   <i type="int" name="TAUPAR">     1</i>
   <i type="int" name="OMEGAPAR">    -1</i>
   <i name="LAMBDA">      1.00000000</i>
  </separator>
  <separator name="External order field" >
   <i name="OFIELD_KAPPA">      0.00000000</i>
   <v name="OFIELD_K">      0.00000000      0.00000000      0.00000000</v>
   <i name="OFIELD_Q6_NEAR">      0.00000000</i>
   <i name="OFIELD_Q6_FAR">      0.00000000</i>
   <i name="OFIELD_A">      0.00000000</i>
  </separator>
 </parameters>
 <atominfo>
  <atoms>     128 </atoms>
  <types>       1 </types>
  <array name="atoms" >
   <dimension dim="1">ion</dimension>
   <field type="string">element</field>
   <field type="int">atomtype</field>
   <set>
    <rc><c>Si</c><c>   1</c></rc>
    <rc><c>Si</c><c>   1</c></rc>
    <rc><c>Si</c><c>   1</c></rc>
    <rc><c>Si</c><c>   1</c></rc>
    <rc><c>Si</c><c>   1</c></rc>
    <rc><c>Si</c><c>   1</c></rc>
    <rc><c>Si</c><c>   1</c></rc>
    <rc><c>Si</c><c>   1</c></rc>
    <rc><c>Si</c><c>   1</c></rc>
    <rc><c>Si</c><c>   1</c></rc>
    <rc><c>Si</c><c>   1</c></rc>
    <rc><c>Si</c><c>   1</c></rc>
    <rc><c>Si</c><c>   1</c></rc>
    <rc><c>Si</c><c>   1</c></rc>
    <rc><c>Si</c><c>   1</c></rc>
    <rc><c>Si</c><c>   1</c></rc>
    <rc><c>Si</c><c>   1</c></rc>
    <rc><c>Si</c><c>   1</c></rc>
    <rc><c>Si</c><c>   1</c></rc>
    <rc><c>Si</c><c>   1</c></rc>
    <rc><c>Si</c><c>   1</c></rc>
    <rc><c>Si</c><c>   1</c></rc>
    <rc><c>Si</c><c>   1</c></rc>
    <rc><c>Si</c><c>   1</c></rc>
    <rc><c>Si</c><c>   1</c></rc>
    <rc><c>Si</c><c>   1</c></rc>
    <rc><c>Si</c><c>   1</c></rc>
    <rc><c>Si</c><c>   1</c></rc>
    <rc><c>Si</c><c>   1</c></rc>
    <rc><c>Si</c><c>   1</c></rc>
    <rc><c>Si</c><c>   1</c></rc>
    <rc><c>Si</c><c>   1</c></rc>
    <rc><c>Si</c><c>   1</c></rc>
    <rc><c>Si</c><c>   1</c></rc>
    <rc><c>Si</c><c>   1</c></rc>
    <rc><c>Si</c><c>   1</c></rc>
    <rc><c>Si</c><c>   1</c></rc>
    <rc><c>Si</c><c>   1</c></rc>
    <rc><c>Si</c><c>   1</c></rc>
    <rc><c>Si</c><c>   1</c></rc>
    <rc><c>Si</c><c>   1</c></rc>
    <rc><c>Si</c><c>   1</c></rc>
    <rc><c>Si</c><c>   1</c></rc>
    <rc><c>Si</c><c>   1</c></rc>
    <rc><c>Si</c><c>   1</c></rc>
    <rc><c>Si</c><c>   1</c></rc>
    <rc><c>Si</c><c>   1</c></rc>
    <rc><c>Si</c><c>   1</c></rc>
    <rc><c>Si</c><c>   1</c></rc>
    <rc><c>Si</c><c>   1</c></rc>
    <rc><c>Si</c><c>   1</c></rc>
    <rc><c>Si</c><c>   1</c></rc>
    <rc><c>Si</c><c>   1</c></rc>
    <rc><c>Si</c><c>   1</c></rc>
    <rc><c>Si</c><c>   1</c></rc>
    <rc><c>Si</c><c>   1</c></rc>
    <rc><c>Si</c><c>   1</c></rc>
    <rc><c>Si</c><c>   1</c></rc>
    <rc><c>Si</c><c>   1</c></rc>
    <rc><c>Si</c><c>   1</c></rc>
    <rc><c>Si</c><c>   1</c></rc>
    <rc><c>Si</c><c>   1</c></rc>
    <rc><c>Si</c><c>   1</c></rc>
    <rc><c>Si</c><c>   1</c></rc>
    <rc><c>Si</c><c>   1</c></rc>
    <rc><c>Si</c><c>   1</c></rc>
    <rc><c>Si</c><c>   1</c></rc>
    <rc><c>Si</c><c>   1</c></rc>
    <rc><c>Si</c><c>   1</c></rc>
    <rc><c>Si</c><c>   1</c></rc>
    <rc><c>Si</c><c>   1</c></rc>
    <rc><c>Si</c><c>   1</c></rc>
    <rc><c>Si</c><c>   1</c></rc>
    <rc><c>Si</c><c>   1</c></rc>
    <rc><c>Si</c><c>   1</c></rc>
    <rc><c>Si</c><c>   1</c></rc>
    <rc><c>Si</c><c>   1</c></rc>
    <rc><c>Si</c><c>   1</c></rc>
    <rc><c>Si</c><c>   1</c></rc>
    <rc><c>Si</c><c>   1</c></rc>
    <rc><c>Si</c><c>   1</c></rc>
    <rc><c>Si</c><c>   1</c></rc>
    <rc><c>Si</c><c>   1</c></rc>
    <rc><c>Si</c><c>   1</c></rc>
    <rc><c>Si</c><c>   1</c></rc>
    <rc><c>Si</c><c>   1</c></rc>
    <rc><c>Si</c><c>   1</c></rc>
    <rc><c>Si</c><c>   1</c></rc>
    <rc><c>Si</c><c>   1</c></rc>
    <rc><c>Si</c><c>   1</c></rc>
    <rc><c>Si</c><c>   1</c></rc>
    <rc><c>Si</c><c>   1</c></rc>
    <rc><c>Si</c><c>   1</c></rc>
    <rc><c>Si</c><c>   1</c></rc>
    <rc><c>Si</c><c>   1</c></rc>
    <rc><c>Si</c><c>   1</c></rc>
    <rc><c>Si</c><c>   1</c></rc>
    <rc><c>Si</c><c>   1</c></rc>
    <rc><c>Si</c><c>   1</c></rc>
    <rc><c>Si</c><c>   1</c></rc>
    <rc><c>Si</c><c>   1</c></rc>
    <rc><c>Si</c><c>   1</c></rc>
    <rc><c>Si</c><c>   1</c></rc>
    <rc><c>Si</c><c>   1</c></rc>
    <rc><c>Si</c><c>   1</c></rc>
    <rc><c>Si</c><c>   1</c></rc>
    <rc><c>Si</c><c>   1</c></rc>
    <rc><c>Si</c><c>   1</c></rc>
    <rc><c>Si</c><c>   1</c></rc>
    <rc><c>Si</c><c>   1</c></rc>
    <rc><c>Si</c><c>   1</c></rc>
    <rc><c>Si</c><c>   1</c></rc>
    <rc><c>Si</c><c>   1</c></rc>
    <rc><c>Si</c><c>   1</c></rc>
    <rc><c>Si</c><c>   1</c></rc>
    <rc><c>Si</c><c>   1</c></rc>
    <rc><c>Si</c><c>   1</c></rc>
    <rc><c>Si</c><c>   1</c></rc>
    <rc><c>Si</c><c>   1</c></rc>
    <rc><c>Si</c><c>   1</c></rc>
    <rc><c>Si</c><c>   1</c></rc>
    <rc><c>Si</c><c>   1</c></rc>
    <rc><c>Si</c><c>   1</c></rc>
    <rc><c>Si</c><c>   1</c></rc>
    <rc><c>Si</c><c>   1</c></rc>
    <rc><c>Si</c><c>   1</c></rc>
    <rc><c>Si</c><c>   1</c></rc>
    <rc><c>Si</c><c>   1</c></rc>
   </set>
  </array>
  <array name="atomtypes" >
   <dimension dim="1">type</dimension>
   <field type="int">atomspertype</field>
   <field type="string">element</field>
   <field>mass</field>
   <field>valence</field>
   <field type="string">pseudopotential</field>
   <set>
    <rc><c> 128</c><c>Si</c><c>     28.08500000</c><c>      4.00000000</c><c> PAW_PBE Si 05Jan2001                   </c></rc>
   </set>
  </array>
 </atominfo>
 <structure name="initialpos" >
  <crystal>
   <varray name="basis" >
    <v>       0.00000000      10.93733369      10.93733369 </v>
    <v>      10.93733369       0.00000000      10.93733369 </v>
    <v>      10.93733369      10.93733369       0.00000000 </v>
   </varray>
   <i name="volume">   2616.76295363 </i>
   <varray name="rec_basis" >
    <v>      -0.04571498       0.04571498       0.04571498 </v>
    <v>       0.04571498      -0.04571498       0.04571498 </v>
    <v>       0.04571498       0.04571498      -0.04571498 </v>
   </varray>
  </crystal>
  <varray name="positions" >
   <v>       0.99376343       0.00063444       0.00263700 </v>
   <v>       0.24354601       0.01114280       0.99626699 </v>
   <v>       0.49495983       0.00295650       0.00970246 </v>
   <v>       0.75026413       0.00524467       0.99341278 </v>
   <v>       0.99415612       0.25179031       0.00362715 </v>
   <v>       0.25972614       0.26132097       0.98318561 </v>
   <v>       0.50117690       0.24490896       0.00042345 </v>
   <v>       0.75900334       0.24603245       0.99686553 </v>
   <v>       0.01334866       0.49279821       0.99135212 </v>
   <v>       0.24936167       0.49992332       0.00425487 </v>
   <v>       0.50164242       0.49286537       0.99395657 </v>
   <v>       0.75126737       0.51470427       0.99847302 </v>
   <v>       0.00249820       0.75113462       0.99959623 </v>
   <v>       0.24711282       0.75914112       0.99789958 </v>
   <v>       0.50205670       0.75572311       0.99504572 </v>
   <v>       0.75255242       0.73715410       0.01127023 </v>
   <v>       0.00735763       0.00395573       0.24232350 </v>
   <v>       0.25786970       0.99543148       0.25639138 </v>
   <v>       0.51043328       0.99965723       0.24841453 </v>
   <v>       0.74917405       0.99312456       0.23916960 </v>
   <v>       0.00487571       0.25455329       0.24257109 </v>
   <v>       0.24421994       0.25007283       0.24971865 </v>
   <v>       0.50730365       0.24629239       0.23751407 </v>
   <v>       0.74915348       0.25489771       0.24984295 </v>
   <v>       0.99476281       0.50023424       0.25546966 </v>
   <v>       0.25438886       0.48626869       0.26072927 </v>
   <v>       0.50953159       0.48531655       0.24328909 </v>
   <v>       0.74304458       0.51136932       0.24369231 </v>
   <v>       0.00692688       0.73598149       0.26062172 </v>
   <v>       0.25336665       0.75834210       0.24527236 </v>
   <v>       0.51143802       0.74509974       0.26042453 </v>
   <v>       0.75414111       0.74898379       0.23825262 </v>
   <v>       0.01561713       0.99663872       0.49327002 </v>
   <v>       0.25150620       0.00071610       0.50273853 </v>
   <v>       0.49158219       0.00880226       0.49218152 </v>
   <v>       0.76085797       0.99229005       0.50715887 </v>
   <v>       0.99824527       0.25325138       0.49324938 </v>
   <v>       0.25008247       0.26076393       0.49683040 </v>
   <v>       0.49734915       0.25613780       0.50021673 </v>
   <v>       0.74669707       0.25338525       0.48776995 </v>
   <v>       0.00347209       0.50024646       0.50337222 </v>
   <v>       0.26613614       0.47692892       0.49205033 </v>
   <v>       0.49229981       0.49638330       0.50343414 </v>
   <v>       0.76055640       0.49211954       0.49303717 </v>
   <v>       0.99918841       0.74511480       0.49685097 </v>
   <v>       0.24284567       0.75332522       0.50062646 </v>
   <v>       0.49628403       0.73906069       0.51704035 </v>
   <v>       0.76823621       0.73977054       0.49634219 </v>
   <v>       0.99119179       0.00227889       0.73878284 </v>
   <v>       0.25447171       0.01045861       0.74333321 </v>
   <v>       0.50156029       0.00024889       0.73381851 </v>
   <v>       0.74868407       0.99410034       0.75636002 </v>
   <v>       0.00234243       0.23960294       0.75143103 </v>
   <v>       0.24569052       0.24794945       0.75382313 </v>
   <v>       0.49322210       0.25425034       0.74814194 </v>
   <v>       0.76034375       0.24880449       0.74373194 </v>
   <v>       0.00169624       0.50104025       0.75453551 </v>
   <v>       0.25268444       0.49478743       0.75390839 </v>
   <v>       0.48956523       0.51378616       0.75266497 </v>
   <v>       0.74857481       0.49760190       0.75571754 </v>
   <v>       0.99344475       0.76539580       0.74871775 </v>
   <v>       0.25171091       0.75076938       0.74305013 </v>
   <v>       0.50486808       0.74727871       0.74544278 </v>
   <v>       0.75334963       0.76365750       0.74820774 </v>
   <v>       0.06802032       0.06026110       0.06345701 </v>
   <v>       0.30504240       0.05369774       0.07568740 </v>
   <v>       0.56470792       0.06251811       0.07026625 </v>
   <v>       0.81233771       0.07173721       0.05603251 </v>
   <v>       0.07281739       0.31969883       0.05016748 </v>
   <v>       0.30685997       0.31967165       0.06491953 </v>
   <v>       0.56955212       0.32013239       0.07014590 </v>
   <v>       0.80492456       0.31321676       0.06625025 </v>
   <v>       0.06755492       0.56066823       0.06127337 </v>
   <v>       0.30734887       0.55979961       0.06521367 </v>
   <v>       0.55507913       0.55874702       0.06553417 </v>
   <v>       0.81813794       0.55778532       0.06186624 </v>
   <v>       0.06179662       0.81685010       0.05987900 </v>
   <v>       0.32120671       0.82249008       0.05121006 </v>
   <v>       0.56513845       0.81161403       0.06236832 </v>
   <v>       0.82134136       0.82334139       0.04464469 </v>
   <v>       0.05596403       0.07592990       0.30943019 </v>
   <v>       0.30021205       0.07437380       0.31388824 </v>
   <v>       0.56873838       0.06802335       0.30949166 </v>
   <v>       0.80989912       0.05625896       0.31566547 </v>
   <v>       0.06141233       0.32212807       0.31284063 </v>
   <v>       0.32241002       0.32087581       0.29784949 </v>
   <v>       0.56178797       0.30697705       0.31734663 </v>
   <v>       0.81216927       0.31191075       0.30908352 </v>
   <v>       0.05519672       0.56230987       0.30943609 </v>
   <v>       0.32710350       0.55756324       0.30233409 </v>
   <v>       0.56621216       0.56180335       0.30886316 </v>
   <v>       0.81543655       0.56957519       0.29879836 </v>
   <v>       0.05494223       0.80835797       0.31372614 </v>
   <v>       0.31012878       0.80592454       0.31540848 </v>
   <v>       0.56803432       0.80735586       0.32595747 </v>
   <v>       0.81884741       0.81667117       0.29817250 </v>
   <v>       0.06131713       0.07048213       0.55208148 </v>
   <v>       0.30765115       0.05864838       0.56630882 </v>
   <v>       0.56748699       0.06527178       0.55497768 </v>
   <v>       0.81456054       0.07523902       0.55210498 </v>
   <v>       0.04395857       0.30508890       0.56948645 </v>
   <v>       0.32493645       0.29752919       0.56592615 </v>
   <v>       0.54400534       0.31762633       0.56964547 </v>
   <v>       0.82175373       0.31712830       0.55618396 </v>
   <v>       0.06256978       0.57225354       0.57023603 </v>
   <v>       0.31040761       0.56980786       0.55700986 </v>
   <v>       0.56534296       0.55357341       0.55836821 </v>
   <v>       0.79709659       0.55863110       0.57146929 </v>
   <v>       0.06124396       0.80755974       0.56436051 </v>
   <v>       0.30810152       0.81353464       0.55644088 </v>
   <v>       0.58908384       0.80866035       0.54489455 </v>
   <v>       0.81426456       0.80554051       0.56787795 </v>
   <v>       0.06356377       0.05237710       0.82421017 </v>
   <v>       0.30088400       0.07964870       0.80667668 </v>
   <v>       0.56405147       0.07183827       0.79728325 </v>
   <v>       0.81477378       0.05209741       0.81438552 </v>
   <v>       0.06157896       0.32250267       0.80866589 </v>
   <v>       0.30955185       0.32025394       0.80954815 </v>
   <v>       0.56419808       0.31452154       0.81625016 </v>
   <v>       0.80633969       0.30818480       0.81718878 </v>
   <v>       0.05621030       0.57379590       0.80874216 </v>
   <v>       0.30726371       0.56265895       0.82440016 </v>
   <v>       0.56551423       0.55307465       0.81840545 </v>
   <v>       0.82095684       0.55353330       0.80923755 </v>
   <v>       0.06538763       0.81196309       0.81802690 </v>
   <v>       0.31992699       0.81654934       0.80196311 </v>
   <v>       0.56687971       0.81294213       0.80705898 </v>
   <v>       0.82025802       0.81194628       0.81462206 </v>
  </varray>
 </structure>
 <calculation>
  <scstep>
   <time name="dav">   69.45   69.46</time>
   <time name="total">   70.44   70.47</time>
   <energy>
    <i name="alphaZ">    210.77028614 </i>
    <i name="ewald"> -14470.17945873 </i>
    <i name="hartreedc">   -758.80354223 </i>
    <i name="XCdc">  -1195.43824271 </i>
    <i name="pawpsdc">   4221.13331941 </i>
    <i name="pawaedc">  -1969.18571412 </i>
    <i name="eentropy">     -0.00171075 </i>
    <i name="bandstr">   2152.27293102 </i>
    <i name="atom">  13192.48085998 </i>
    <i name="e_fr_energy">   1383.04872802 </i>
    <i name="e_wo_entrp">   1383.05043877 </i>
    <i name="e_0_energy">   1383.04958340 </i>
   </energy>
  </scstep>
  <scstep>
   <time name="dav">   78.92   78.93</time>
   <time name="total">   78.92   78.93</time>
   <energy>
    <i name="e_fr_energy">   -534.97011291 </i>
    <i name="e_wo_entrp">   -534.97011291 </i>
    <i name="e_0_energy">   -534.97011291 </i>
   </energy>
  </scstep>
  <scstep>
   <time name="dav">   80.72   80.74</time>
   <time name="total">   80.72   80.74</time>
   <energy>
    <i name="e_fr_energy">   -684.85519033 </i>
    <i name="e_wo_entrp">   -684.85519033 </i>
    <i name="e_0_energy">   -684.85519033 </i>
   </energy>
  </scstep>
  <scstep>
   <time name="dav">   79.93   79.96</time>
   <time name="total">   79.93   79.96</time>
   <energy>
    <i name="e_fr_energy">   -689.18943975 </i>
    <i name="e_wo_entrp">   -689.18943975 </i>
    <i name="e_0_energy">   -689.18943975 </i>
   </energy>
  </scstep>
  <scstep>
   <time name="dav">   81.44   81.45</time>
   <time name="total">   84.67   84.69</time>
   <energy>
    <i name="e_fr_energy">   -689.33878868 </i>
    <i name="e_wo_entrp">   -689.33878868 </i>
    <i name="e_0_energy">   -689.33878868 </i>
   </energy>
  </scstep>
  <scstep>
   <time name="dav">   76.63   76.65</time>
   <time name="total">   80.87   80.90</time>
   <energy>
    <i name="e_fr_energy">   -680.83571424 </i>
    <i name="e_wo_entrp">   -680.83571424 </i>
    <i name="e_0_energy">   -680.83571424 </i>
   </energy>
  </scstep>
  <scstep>
   <time name="dav">   75.97   75.99</time>
   <time name="total">   80.21   80.23</time>
   <energy>
    <i name="e_fr_energy">   -677.31239789 </i>
    <i name="e_wo_entrp">   -677.31239789 </i>
    <i name="e_0_energy">   -677.31239789 </i>
   </energy>
  </scstep>
  <scstep>
   <time name="dav">   76.00   76.02</time>
   <time name="total">   80.21   80.24</time>
   <energy>
    <i name="e_fr_energy">   -677.36410331 </i>
    <i name="e_wo_entrp">   -677.36410331 </i>
    <i name="e_0_energy">   -677.36410331 </i>
   </energy>
  </scstep>
  <scstep>
   <time name="dav">   78.34   78.36</time>
   <time name="total">   82.55   82.57</time>
   <energy>
    <i name="e_fr_energy">   -677.38592766 </i>
    <i name="e_wo_entrp">   -677.38592766 </i>
    <i name="e_0_energy">   -677.38592766 </i>
   </energy>
  </scstep>
  <scstep>
   <time name="dav">   77.97   77.99</time>
   <time name="total">   82.18   82.20</time>
   <energy>
    <i name="e_fr_energy">   -677.38845758 </i>
    <i name="e_wo_entrp">   -677.38845758 </i>
    <i name="e_0_energy">   -677.38845758 </i>
   </energy>
  </scstep>
  <scstep>
   <time name="dav">   76.10   76.12</time>
   <time name="total">   80.27   80.29</time>
   <energy>
    <i name="e_fr_energy">   -677.38991996 </i>
    <i name="e_wo_entrp">   -677.38991996 </i>
    <i name="e_0_energy">   -677.38991996 </i>
   </energy>
  </scstep>
  <scstep>
   <time name="dav">   78.85   78.87</time>
   <time name="total">   83.00   83.02</time>
   <energy>
    <i name="e_fr_energy">   -677.38997710 </i>
    <i name="e_wo_entrp">   -677.38997710 </i>
    <i name="e_0_energy">   -677.38997710 </i>
   </energy>
  </scstep>
  <scstep>
   <time name="dav">   75.70   75.72</time>
   <time name="total">   79.85   79.87</time>
   <energy>
    <i name="e_fr_energy">   -677.39000777 </i>
    <i name="e_wo_entrp">   -677.39000777 </i>
    <i name="e_0_energy">   -677.39000777 </i>
   </energy>
  </scstep>
  <scstep>
   <time name="dav">   79.10   79.13</time>
   <time name="total">   83.27   83.31</time>
   <energy>
    <i name="e_fr_energy">   -677.39001187 </i>
    <i name="e_wo_entrp">   -677.39001187 </i>
    <i name="e_0_energy">   -677.39001187 </i>
   </energy>
  </scstep>
  <scstep>
   <time name="dav">   78.67   78.68</time>
   <time name="total">   82.84   82.85</time>
   <energy>
    <i name="e_fr_energy">   -677.39001513 </i>
    <i name="e_wo_entrp">   -677.39001513 </i>
    <i name="e_0_energy">   -677.39001513 </i>
   </energy>
  </scstep>
  <scstep>
   <time name="dav">   78.53   78.55</time>
   <time name="total">   82.66   82.69</time>
   <energy>
    <i name="e_fr_energy">   -677.39001477 </i>
    <i name="e_wo_entrp">   -677.39001477 </i>
    <i name="e_0_energy">   -677.39001477 </i>
   </energy>
  </scstep>
  <scstep>
   <time name="dav">   64.74   64.76</time>
   <time name="total">   68.87   68.89</time>
   <energy>
    <i name="e_fr_energy">   -677.39001463 </i>
    <i name="e_wo_entrp">   -677.39001463 </i>
    <i name="e_0_energy">   -677.39001463 </i>
   </energy>
  </scstep>
  <scstep>
   <time name="dav">   51.35   51.37</time>
   <time name="total">   55.48   55.50</time>
   <energy>
    <i name="e_fr_energy">   -677.39001479 </i>
    <i name="e_wo_entrp">   -677.39001479 </i>
    <i name="e_0_energy">   -677.39001479 </i>
   </energy>
  </scstep>
  <scstep>
   <time name="dav">   50.65   50.66</time>
   <time name="total">   54.78   54.79</time>
   <energy>
    <i name="e_fr_energy">   -677.39001475 </i>
    <i name="e_wo_entrp">   -677.39001475 </i>
    <i name="e_0_energy">   -677.39001475 </i>
   </energy>
  </scstep>
  <scstep>
   <time name="dav">   49.89   49.91</time>
   <time name="total">   54.02   54.04</time>
   <energy>
    <i name="e_fr_energy">   -677.39001476 </i>
    <i name="e_wo_entrp">   -677.39001476 </i>
    <i name="e_0_energy">   -677.39001476 </i>
   </energy>
  </scstep>
  <scstep>
   <time name="dav">   49.71   49.73</time>
   <time name="total">   50.71   50.73</time>
   <energy>
    <i name="alphaZ">    210.77028614 </i>
    <i name="ewald"> -14470.17945873 </i>
    <i name="hartreedc">  -1002.50950660 </i>
    <i name="XCdc">  -1156.17839356 </i>
    <i name="pawpsdc">   4728.62256515 </i>
    <i name="pawaedc">  -2490.27948739 </i>
    <i name="eentropy">     -0.00000000 </i>
    <i name="bandstr">    309.88312024 </i>
    <i name="atom">  13192.48085998 </i>
    <i name="e_fr_energy">   -677.39001476 </i>
    <i name="e_wo_entrp">   -677.39001476 </i>
    <i name="e_0_energy">   -677.39001476 </i>
   </energy>
  </scstep>
  <structure>
   <crystal>
    <varray name="basis" >
     <v>       0.00000000      10.93733369      10.93733369 </v>
     <v>      10.93733369       0.00000000      10.93733369 </v>
     <v>      10.93733369      10.93733369       0.00000000 </v>
    </varray>
    <i name="volume">   2616.76295363 </i>
    <varray name="rec_basis" >
     <v>      -0.04571498       0.04571498       0.04571498 </v>
     <v>       0.04571498      -0.04571498       0.04571498 </v>
     <v>       0.04571498       0.04571498      -0.04571498 </v>
    </varray>
   </crystal>
   <varray name="positions" >
    <v>       0.99376343       0.00063444       0.00263700 </v>
    <v>       0.24354601       0.01114280       0.99626699 </v>
    <v>       0.49495983       0.00295650       0.00970246 </v>
    <v>       0.75026413       0.00524467       0.99341278 </v>
    <v>       0.99415612       0.25179031       0.00362715 </v>
    <v>       0.25972614       0.26132097       0.98318561 </v>
    <v>       0.50117690       0.24490896       0.00042345 </v>
    <v>       0.75900334       0.24603245       0.99686553 </v>
    <v>       0.01334866       0.49279821       0.99135212 </v>
    <v>       0.24936167       0.49992332       0.00425487 </v>
    <v>       0.50164242       0.49286537       0.99395657 </v>
    <v>       0.75126737       0.51470427       0.99847302 </v>
    <v>       0.00249820       0.75113462       0.99959623 </v>
    <v>       0.24711282       0.75914112       0.99789958 </v>
    <v>       0.50205670       0.75572311       0.99504572 </v>
    <v>       0.75255242       0.73715410       0.01127023 </v>
    <v>       0.00735763       0.00395573       0.24232350 </v>
    <v>       0.25786970       0.99543148       0.25639138 </v>
    <v>       0.51043328       0.99965723       0.24841453 </v>
    <v>       0.74917405       0.99312456       0.23916960 </v>
    <v>       0.00487571       0.25455329       0.24257109 </v>
    <v>       0.24421994       0.25007283       0.24971865 </v>
    <v>       0.50730365       0.24629239       0.23751407 </v>
    <v>       0.74915348       0.25489771       0.24984295 </v>
    <v>       0.99476281       0.50023424       0.25546966 </v>
    <v>       0.25438886       0.48626869       0.26072927 </v>
    <v>       0.50953159       0.48531655       0.24328909 </v>
    <v>       0.74304458       0.51136932       0.24369231 </v>
    <v>       0.00692688       0.73598149       0.26062172 </v>
    <v>       0.25336665       0.75834210       0.24527236 </v>
    <v>       0.51143802       0.74509974       0.26042453 </v>
    <v>       0.75414111       0.74898379       0.23825262 </v>
    <v>       0.01561713       0.99663872       0.49327002 </v>
    <v>       0.25150620       0.00071610       0.50273853 </v>
    <v>       0.49158219       0.00880226       0.49218152 </v>
    <v>       0.76085797       0.99229005       0.50715887 </v>
    <v>       0.99824527       0.25325138       0.49324938 </v>
    <v>       0.25008247       0.26076393       0.49683040 </v>
    <v>       0.49734915       0.25613780       0.50021673 </v>
    <v>       0.74669707       0.25338525       0.48776995 </v>
    <v>       0.00347209       0.50024646       0.50337222 </v>
    <v>       0.26613614       0.47692892       0.49205033 </v>
    <v>       0.49229981       0.49638330       0.50343414 </v>
    <v>       0.76055640       0.49211954       0.49303717 </v>
    <v>       0.99918841       0.74511480       0.49685097 </v>
    <v>       0.24284567       0.75332522       0.50062646 </v>
    <v>       0.49628403       0.73906069       0.51704035 </v>
    <v>       0.76823621       0.73977054       0.49634219 </v>
    <v>       0.99119179       0.00227889       0.73878284 </v>
    <v>       0.25447171       0.01045861       0.74333321 </v>
    <v>       0.50156029       0.00024889       0.73381851 </v>
    <v>       0.74868407       0.99410034       0.75636002 </v>
    <v>       0.00234243       0.23960294       0.75143103 </v>
    <v>       0.24569052       0.24794945       0.75382313 </v>
    <v>       0.49322210       0.25425034       0.74814194 </v>
    <v>       0.76034375       0.24880449       0.74373194 </v>
    <v>       0.00169624       0.50104025       0.75453551 </v>
    <v>       0.25268444       0.49478743       0.75390839 </v>
    <v>       0.48956523       0.51378616       0.75266497 </v>
    <v>       0.74857481       0.49760190       0.75571754 </v>
    <v>       0.99344475       0.76539580       0.74871775 </v>
    <v>       0.25171091       0.75076938       0.74305013 </v>
    <v>       0.50486808       0.74727871       0.74544278 </v>
    <v>       0.75334963       0.76365750       0.74820774 </v>
    <v>       0.06802032       0.06026110       0.06345701 </v>
    <v>       0.30504240       0.05369774       0.07568740 </v>
    <v>       0.56470792       0.06251811       0.07026625 </v>
    <v>       0.81233771       0.07173721       0.05603251 </v>
    <v>       0.07281739       0.31969883       0.05016748 </v>
    <v>       0.30685997       0.31967165       0.06491953 </v>
    <v>       0.56955212       0.32013239       0.07014590 </v>
    <v>       0.80492456       0.31321676       0.06625025 </v>
    <v>       0.06755492       0.56066823       0.06127337 </v>
    <v>       0.30734887       0.55979961       0.06521367 </v>
    <v>       0.55507913       0.55874702       0.06553417 </v>
    <v>       0.81813794       0.55778532       0.06186624 </v>
    <v>       0.06179662       0.81685010       0.05987900 </v>
    <v>       0.32120671       0.82249008       0.05121006 </v>
    <v>       0.56513845       0.81161403       0.06236832 </v>
    <v>       0.82134136       0.82334139       0.04464469 </v>
    <v>       0.05596403       0.07592990       0.30943019 </v>
    <v>       0.30021205       0.07437380       0.31388824 </v>
    <v>       0.56873838       0.06802335       0.30949166 </v>
    <v>       0.80989912       0.05625896       0.31566547 </v>
    <v>       0.06141233       0.32212807       0.31284063 </v>
    <v>       0.32241002       0.32087581       0.29784949 </v>
    <v>       0.56178797       0.30697705       0.31734663 </v>
    <v>       0.81216927       0.31191075       0.30908352 </v>
    <v>       0.05519672       0.56230987       0.30943609 </v>
    <v>       0.32710350       0.55756324       0.30233409 </v>
    <v>       0.56621216       0.56180335       0.30886316 </v>
    <v>       0.81543655       0.56957519       0.29879836 </v>
    <v>       0.05494223       0.80835797       0.31372614 </v>
    <v>       0.31012878       0.80592454       0.31540848 </v>
    <v>       0.56803432       0.80735586       0.32595747 </v>
    <v>       0.81884741       0.81667117       0.29817250 </v>
    <v>       0.06131713       0.07048213       0.55208148 </v>
    <v>       0.30765115       0.05864838       0.56630882 </v>
    <v>       0.56748699       0.06527178       0.55497768 </v>
    <v>       0.81456054       0.07523902       0.55210498 </v>
    <v>       0.04395857       0.30508890       0.56948645 </v>
    <v>       0.32493645       0.29752919       0.56592615 </v>
    <v>       0.54400534       0.31762633       0.56964547 </v>
    <v>       0.82175373       0.31712830       0.55618396 </v>
    <v>       0.06256978       0.57225354       0.57023603 </v>
    <v>       0.31040761       0.56980786       0.55700986 </v>
    <v>       0.56534296       0.55357341       0.55836821 </v>
    <v>       0.79709659       0.55863110       0.57146929 </v>
    <v>       0.06124396       0.80755974       0.56436051 </v>
    <v>       0.30810152       0.81353464       0.55644088 </v>
    <v>       0.58908384       0.80866035       0.54489455 </v>
    <v>       0.81426456       0.80554051       0.56787795 </v>
    <v>       0.06356377       0.05237710       0.82421017 </v>
    <v>       0.30088400       0.07964870       0.80667668 </v>
    <v>       0.56405147       0.07183827       0.79728325 </v>
    <v>       0.81477378       0.05209741       0.81438552 </v>
    <v>       0.06157896       0.32250267       0.80866589 </v>
    <v>       0.30955185       0.32025394       0.80954815 </v>
    <v>       0.56419808       0.31452154       0.81625016 </v>
    <v>       0.80633969       0.30818480       0.81718878 </v>
    <v>       0.05621030       0.57379590       0.80874216 </v>
    <v>       0.30726371       0.56265895       0.82440016 </v>
    <v>       0.56551423       0.55307465       0.81840545 </v>
    <v>       0.82095684       0.55353330       0.80923755 </v>
    <v>       0.06538763       0.81196309       0.81802690 </v>
    <v>       0.31992699       0.81654934       0.80196311 </v>
    <v>       0.56687971       0.81294213       0.80705898 </v>
    <v>       0.82025802       0.81194628       0.81462206 </v>
   </varray>
  </structure>
  <varray name="forces" >
   <v>       0.55035988       1.24927827       0.46122901 </v>
   <v>      -1.35605680       0.92788729       0.57608007 </v>
   <v>      -1.19954945      -0.66837616       0.38419077 </v>
   <v>       0.82216719       0.44369312       0.20002320 </v>
   <v>      -0.19854836       0.18482267       0.66041270 </v>
   <v>       0.91784042       1.95945349      -2.25646707 </v>
   <v>       1.64584478       0.42320500       0.71408435 </v>
   <v>       1.79453946      -1.07302471       0.10166981 </v>
   <v>       2.34247748      -1.16369674       0.69881929 </v>
   <v>       0.30713225      -0.15181093      -0.05365680 </v>
   <v>       2.48811199      -0.08817514      -0.08418806 </v>
   <v>      -1.91817343      -1.42246081      -2.44271510 </v>
   <v>      -0.21804657       0.64792104      -0.17418868 </v>
   <v>      -1.13797919       0.42800048       0.24417456 </v>
   <v>      -0.66834071       0.74648117      -0.28087357 </v>
   <v>       0.28337052      -1.27068946       1.72189292 </v>
   <v>       0.90071981       0.22752515      -1.82644497 </v>
   <v>       0.34636584      -1.23346322      -1.54511032 </v>
   <v>       1.30724868       0.11786587      -1.42695767 </v>
   <v>       1.71945252       0.68521631       1.61780098 </v>
   <v>       1.02762031      -0.69042454       0.73708521 </v>
   <v>       1.22555543      -0.15518334       1.66822047 </v>
   <v>       2.42226228       1.42614611      -0.55113589 </v>
   <v>      -1.00254658       0.14728845      -1.62312130 </v>
   <v>      -1.09996251      -1.33739204       0.81702902 </v>
   <v>       1.92351403      -3.33100283       2.18552690 </v>
   <v>       1.65146303       0.38631256       0.80694403 </v>
   <v>      -1.25250326       1.75867754      -0.30692350 </v>
   <v>      -0.45581616      -3.14527183       0.83286336 </v>
   <v>      -1.54510189      -1.10146862      -1.73333209 </v>
   <v>      -0.25378318      -1.96793724      -0.50525433 </v>
   <v>       1.00264370      -0.09264200       1.16694894 </v>
   <v>       0.31263451      -1.57090426      -1.23503182 </v>
   <v>      -0.45257736      -1.14911615      -0.71427131 </v>
   <v>      -0.45853383       1.90736296       0.24833900 </v>
   <v>      -0.49863445      -1.55038154      -0.22945021 </v>
   <v>      -1.00580602       0.03151168      -0.17670194 </v>
   <v>      -1.30769741      -0.70389069      -1.56588432 </v>
   <v>      -1.81473755       1.03456458       0.00676145 </v>
   <v>       2.38344550       0.42305070       0.00762701 </v>
   <v>       0.42517538      -0.56874719      -1.16353673 </v>
   <v>       2.69529414      -0.92064898       1.23483241 </v>
   <v>      -0.03378205      -0.56823458       1.41216280 </v>
   <v>       1.30937887      -1.94224617       0.52717194 </v>
   <v>       1.45354960      -0.19403103       1.10733902 </v>
   <v>      -0.74074509      -0.07248583      -0.04285093 </v>
   <v>      -0.55894879      -0.20995806       1.28665912 </v>
   <v>      -0.43886323      -1.00579995       0.37238218 </v>
   <v>       0.11319116       2.33532365       1.05140006 </v>
   <v>      -0.06431724       0.32814144      -2.18638950 </v>
   <v>       1.96531192       0.72175910      -0.34086183 </v>
   <v>      -0.23668360      -1.45281327       1.03627479 </v>
   <v>       1.37653131       0.14865800      -0.04971050 </v>
   <v>       1.74645362      -1.40050025       2.34286486 </v>
   <v>       0.82690850       1.25777991       0.59641077 </v>
   <v>      -0.14653201      -0.60601380      -1.58211125 </v>
   <v>      -0.04768809      -0.61626720       0.50767610 </v>
   <v>       1.32774537      -1.91929238       1.52019599 </v>
   <v>      -2.03921058       0.71215247      -0.34859597 </v>
   <v>      -0.67190937      -0.01547661      -0.49883446 </v>
   <v>      -1.41006540       1.67115987       0.59674118 </v>
   <v>       0.62823809       0.37440082       0.00866436 </v>
   <v>      -0.67374922       0.45804380       0.72858859 </v>
   <v>      -1.30576163       0.56406793      -1.69764733 </v>
   <v>       0.28334880      -1.99361434      -0.51654117 </v>
   <v>       0.10390953      -0.62016340       2.18668187 </v>
   <v>      -1.10250626      -0.93475466      -0.11775060 </v>
   <v>      -1.12580756       0.41797284      -1.58373908 </v>
   <v>      -1.13848924       0.94392369      -1.90190483 </v>
   <v>      -1.54061609       0.51739156      -0.10224721 </v>
   <v>      -3.50183751      -1.22320211       0.06757756 </v>
   <v>       0.40216731       0.00193540       1.56269737 </v>
   <v>       0.48477456      -0.49999335      -0.78914445 </v>
   <v>       1.03393479       0.86892730       1.09059696 </v>
   <v>      -0.74057849      -0.76763683       1.86142922 </v>
   <v>      -0.01922429       1.51558790       1.07491252 </v>
   <v>       0.41321308       1.00072487      -0.67665774 </v>
   <v>       0.74677885      -0.54984272      -1.11029949 </v>
   <v>       0.85161413       0.52262616      -0.05394692 </v>
   <v>       0.25326641       0.42277704      -1.87193000 </v>
   <v>      -1.72603566       1.57016520      -0.13568728 </v>
   <v>      -1.37591364       2.42480451       0.24116922 </v>
   <v>      -0.77050089      -0.37870033      -1.20331493 </v>
   <v>      -0.31336263      -0.16256515       0.80315673 </v>
   <v>      -1.27273033      -0.31360945      -0.90063659 </v>
   <v>      -1.79039390       1.93549400      -3.26539321 </v>
   <v>      -1.03024407      -0.12951903      -0.18446336 </v>
   <v>       0.25701056      -0.41001695       1.90645698 </v>
   <v>       0.01350402       3.02870817      -0.06926359 </v>
   <v>       1.07037818      -0.42043912      -0.37143733 </v>
   <v>       0.50145283      -0.54021525      -1.58018595 </v>
   <v>       0.31275879       0.57861453      -1.34146722 </v>
   <v>       0.64858468       1.20397022       2.59448059 </v>
   <v>       0.83081214       1.47552195       1.88477825 </v>
   <v>       0.15433273      -0.42887525       0.12804150 </v>
   <v>      -0.87894208       1.57475221      -1.59514138 </v>
   <v>      -0.04050797       1.23835205       0.02020340 </v>
   <v>       0.67917417      -0.79715029       2.09583912 </v>
   <v>      -0.75679594      -0.57287376       0.26085980 </v>
   <v>      -0.54272704       2.37902413      -0.84103365 </v>
   <v>       0.80540444       1.44047600       3.08984811 </v>
   <v>       1.19048590      -0.78445411      -1.49175186 </v>
   <v>      -1.13617623       0.99863311       1.44202966 </v>
   <v>      -0.77690656      -0.65236026      -2.47339353 </v>
   <v>      -3.13421807       0.94281577      -1.08503446 </v>
   <v>      -0.51756225       0.37602049      -1.55541223 </v>
   <v>       0.49791476       0.70653971      -0.02707177 </v>
   <v>      -0.85848627       1.10670514       1.54983082 </v>
   <v>       0.33149279      -0.86637802       0.19245551 </v>
   <v>       0.39389394       0.79071035       0.47369609 </v>
   <v>       2.04093985      -1.12842367      -1.71579001 </v>
   <v>       0.11772481      -0.12263027       0.61643837 </v>
   <v>      -1.44252303      -1.71851108       0.67136118 </v>
   <v>      -1.84411195       3.02614054      -0.79126323 </v>
   <v>       0.20970606       0.78564476      -1.87682405 </v>
   <v>       0.94158817      -1.55602754       0.76689641 </v>
   <v>      -0.98261247       0.36006796      -1.78049597 </v>
   <v>      -2.12284252      -0.22827451      -0.57653529 </v>
   <v>      -0.63513203      -1.06517305       0.33352142 </v>
   <v>      -0.43816800       0.49658931       1.70165521 </v>
   <v>      -0.16568715       0.75620731       0.73036296 </v>
   <v>      -0.82520385      -1.22494492       0.30388222 </v>
   <v>       0.15830070      -1.29243356       1.37253924 </v>
   <v>       2.17835221      -0.49213136       0.63867012 </v>
   <v>      -0.53267053      -1.21180662       0.71188952 </v>
   <v>       0.69259896      -0.08584645      -0.43455384 </v>
   <v>       0.12357900      -0.15619445      -0.14883314 </v>
   <v>       1.32662082      -0.44698620      -1.74965233 </v>
  </varray>
  <varray name="stress" >
   <v>      13.19644047      -1.96736401       4.05482148 </v>
   <v>      -1.96736400      13.45032884      -7.67554722 </v>
   <v>       4.05482147      -7.67554721      11.40059289 </v>
  </varray>
  <energy>
   <i name="e_fr_energy">   -677.39001476 </i>
   <i name="e_wo_entrp">   -677.39001476 </i>
   <i name="e_0_energy">     -0.00000000 </i>
  </energy>
  <time name="totalsc"> 1693.06 1693.56</time>
  <eigenvalues>
   <array>
    <dimension dim="1">band</dimension>
    <dimension dim="2">kpoint</dimension>
    <dimension dim="3">spin</dimension>
    <field>eigene</field>
    <field>occ</field>
    <set>
     <set comment="spin 1">
      <set comment="kpoint 1">
       <r>   -6.3119    1.0000 </r>
       <r>   -5.7149    1.0000 </r>
       <r>   -5.6803    1.0000 </r>
       <r>   -5.6511    1.0000 </r>
       <r>   -5.5625    1.0000 </r>
       <r>   -5.5276    1.0000 </r>
       <r>   -5.4752    1.0000 </r>
       <r>   -5.4395    1.0000 </r>
       <r>   -5.4167    1.0000 </r>
       <r>   -5.3428    1.0000 </r>
       <r>   -5.2710    1.0000 </r>
       <r>   -5.2170    1.0000 </r>
       <r>   -5.1600    1.0000 </r>
       <r>   -5.1233    1.0000 </r>
       <r>   -5.0461    1.0000 </r>
       <r>   -4.5280    1.0000 </r>
       <r>   -4.4796    1.0000 </r>
       <r>   -4.4629    1.0000 </r>
       <r>   -4.4373    1.0000 </r>
       <r>   -4.3971    1.0000 </r>
       <r>   -4.3553    1.0000 </r>
       <r>   -4.3051    1.0000 </r>
       <r>   -4.2836    1.0000 </r>
       <r>   -4.2555    1.0000 </r>
       <r>   -4.2126    1.0000 </r>
       <r>   -4.1557    1.0000 </r>
       <r>   -4.1276    1.0000 </r>
       <r>   -4.0520    1.0000 </r>
       <r>   -4.0208    1.0000 </r>
       <r>   -3.9788    1.0000 </r>
       <r>   -3.8957    1.0000 </r>
       <r>   -3.8846    1.0000 </r>
       <r>   -3.8657    1.0000 </r>
       <r>   -3.8187    1.0000 </r>
       <r>   -3.7821    1.0000 </r>
       <r>   -3.7319    1.0000 </r>
       <r>   -3.7158    1.0000 </r>
       <r>   -3.6704    1.0000 </r>
       <r>   -3.6533    1.0000 </r>
       <r>   -3.6175    1.0000 </r>
       <r>   -3.5978    1.0000 </r>
       <r>   -3.5852    1.0000 </r>
       <r>   -3.5597    1.0000 </r>
       <r>   -3.5330    1.0000 </r>
       <r>   -3.5093    1.0000 </r>
       <r>   -3.4877    1.0000 </r>
       <r>   -3.4752    1.0000 </r>
       <r>   -3.4351    1.0000 </r>
       <r>   -3.4070    1.0000 </r>
       <r>   -3.3720    1.0000 </r>
       <r>   -3.3391    1.0000 </r>
       <r>   -3.3119    1.0000 </r>
       <r>   -3.2953    1.0000 </r>
       <r>   -3.2113    1.0000 </r>
       <r>   -3.1367    1.0000 </r>
       <r>   -2.3721    1.0000 </r>
       <r>   -2.3366    1.0000 </r>
       <r>   -2.2978    1.0000 </r>
       <r>   -2.2518    1.0000 </r>
       <r>   -2.2357    1.0000 </r>
       <r>   -2.1799    1.0000 </r>
       <r>   -2.1154    1.0000 </r>
       <r>   -2.0921    1.0000 </r>
       <r>   -2.0597    1.0000 </r>
       <r>   -2.0460    1.0000 </r>
       <r>   -2.0121    1.0000 </r>
       <r>   -1.9930    1.0000 </r>
       <r>   -1.9562    1.0000 </r>
       <r>   -1.9268    1.0000 </r>
       <r>   -1.8709    1.0000 </r>
       <r>   -1.8381    1.0000 </r>
       <r>   -1.7980    1.0000 </r>
       <r>   -1.7583    1.0000 </r>
       <r>   -1.3688    1.0000 </r>
       <r>   -1.3109    1.0000 </r>
       <r>   -1.2442    1.0000 </r>
       <r>   -1.2181    1.0000 </r>
       <r>   -1.0688    1.0000 </r>
       <r>   -1.0053    1.0000 </r>
       <r>   -0.9779    1.0000 </r>
       <r>   -0.9463    1.0000 </r>
       <r>   -0.9032    1.0000 </r>
       <r>   -0.8711    1.0000 </r>
       <r>   -0.8615    1.0000 </r>
       <r>   -0.8176    1.0000 </r>
       <r>   -0.7992    1.0000 </r>
       <r>   -0.7773    1.0000 </r>
       <r>   -0.7232    1.0000 </r>
       <r>   -0.7098    1.0000 </r>
       <r>   -0.6988    1.0000 </r>
       <r>   -0.6787    1.0000 </r>
       <r>   -0.6698    1.0000 </r>
       <r>   -0.6474    1.0000 </r>
       <r>   -0.6055    1.0000 </r>
       <r>   -0.5584    1.0000 </r>
       <r>   -0.5434    1.0000 </r>
       <r>   -0.5210    1.0000 </r>
       <r>   -0.4646    1.0000 </r>
       <r>   -0.4369    1.0000 </r>
       <r>   -0.4246    1.0000 </r>
       <r>   -0.3940    1.0000 </r>
       <r>   -0.0270    1.0000 </r>
       <r>    0.0452    1.0000 </r>
       <r>    0.0919    1.0000 </r>
       <r>    0.1157    1.0000 </r>
       <r>    0.1546    1.0000 </r>
       <r>    0.1805    1.0000 </r>
       <r>    0.2036    1.0000 </r>
       <r>    0.2194    1.0000 </r>
       <r>    0.2419    1.0000 </r>
       <r>    0.2971    1.0000 </r>
       <r>    0.3081    1.0000 </r>
       <r>    0.4039    1.0000 </r>
       <r>    1.4167    1.0000 </r>
       <r>    1.4452    1.0000 </r>
       <r>    1.4836    1.0000 </r>
       <r>    1.5159    1.0000 </r>
       <r>    1.5424    1.0000 </r>
       <r>    1.5489    1.0000 </r>
       <r>    1.5660    1.0000 </r>
       <r>    1.5877    1.0000 </r>
       <r>    1.6115    1.0000 </r>
       <r>    1.6289    1.0000 </r>
       <r>    1.6482    1.0000 </r>
       <r>    1.6616    1.0000 </r>
       <r>    1.6886    1.0000 </r>
       <r>    1.7125    1.0000 </r>
       <r>    1.7170    1.0000 </r>
       <r>    1.7292    1.0000 </r>
       <r>    1.7341    1.0000 </r>
       <r>    1.7718    1.0000 </r>
       <r>    1.7944    1.0000 </r>
       <r>    1.8123    1.0000 </r>
       <r>    1.8355    1.0000 </r>
       <r>    1.8445    1.0000 </r>
       <r>    1.8481    1.0000 </r>
       <r>    1.8653    1.0000 </r>
       <r>    1.8848    1.0000 </r>
       <r>    1.8894    1.0000 </r>
       <r>    1.9091    1.0000 </r>
       <r>    1.9190    1.0000 </r>
       <r>    1.9272    1.0000 </r>
       <r>    1.9430    1.0000 </r>
       <r>    1.9440    1.0000 </r>
       <r>    1.9850    1.0000 </r>
       <r>    1.9911    1.0000 </r>
       <r>    2.0011    1.0000 </r>
       <r>    2.0192    1.0000 </r>
       <r>    2.0321    1.0000 </r>
       <r>    2.0680    1.0000 </r>
       <r>    2.0743    1.0000 </r>
       <r>    2.0868    1.0000 </r>
       <r>    2.0965    1.0000 </r>
       <r>    2.1114    1.0000 </r>
       <r>    2.1209    1.0000 </r>
       <r>    2.1343    1.0000 </r>
       <r>    2.1489    1.0000 </r>
       <r>    2.1690    1.0000 </r>
       <r>    2.1792    1.0000 </r>
       <r>    2.1965    1.0000 </r>
       <r>    2.2050    1.0000 </r>
       <r>    2.2270    1.0000 </r>
       <r>    2.2497    1.0000 </r>
       <r>    2.2546    1.0000 </r>
       <r>    2.2787    1.0000 </r>
       <r>    2.2888    1.0000 </r>
       <r>    2.3122    1.0000 </r>
       <r>    2.3168    1.0000 </r>
       <r>    2.3420    1.0000 </r>
       <r>    2.3592    1.0000 </r>
       <r>    2.3846    1.0000 </r>
       <r>    2.3991    1.0000 </r>
       <r>    2.4561    1.0000 </r>
       <r>    2.5463    1.0000 </r>
       <r>    2.5907    1.0000 </r>
       <r>    2.7761    1.0000 </r>
       <r>    2.8176    1.0000 </r>
       <r>    2.8369    1.0000 </r>
       <r>    2.8391    1.0000 </r>
       <r>    2.8779    1.0000 </r>
       <r>    2.8894    1.0000 </r>
       <r>    3.1944    1.0000 </r>
       <r>    3.2164    1.0000 </r>
       <r>    3.2570    1.0000 </r>
       <r>    3.2598    1.0000 </r>
       <r>    3.2981    1.0000 </r>
       <r>    3.3025    1.0000 </r>
       <r>    3.3289    1.0000 </r>
       <r>    3.3478    1.0000 </r>
       <r>    3.3486    1.0000 </r>
       <r>    3.3755    1.0000 </r>
       <r>    3.3975    1.0000 </r>
       <r>    3.4335    1.0000 </r>
       <r>    3.4414    1.0000 </r>
       <r>    3.4511    1.0000 </r>
       <r>    3.4704    1.0000 </r>
       <r>    3.4894    1.0000 </r>
       <r>    3.5031    1.0000 </r>
       <r>    3.5263    1.0000 </r>
       <r>    3.5374    1.0000 </r>
       <r>    3.5438    1.0000 </r>
       <r>    3.5841    1.0000 </r>
       <r>    3.6192    1.0000 </r>
       <r>    3.6349    1.0000 </r>
       <r>    3.6580    1.0000 </r>
       <r>    3.6777    1.0000 </r>
       <r>    3.7227    1.0000 </r>
       <r>    3.7388    1.0000 </r>
       <r>    3.7620    1.0000 </r>
       <r>    3.7995    1.0000 </r>
       <r>    3.8048    1.0000 </r>
       <r>    3.8271    1.0000 </r>
       <r>    3.8538    1.0000 </r>
       <r>    3.8859    1.0000 </r>
       <r>    3.9428    1.0000 </r>
       <r>    3.9767    1.0000 </r>
       <r>    4.0066    1.0000 </r>
       <r>    4.1089    1.0000 </r>
       <r>    4.1465    1.0000 </r>
       <r>    4.1922    1.0000 </r>
       <r>    4.2156    1.0000 </r>
       <r>    4.2525    1.0000 </r>
       <r>    4.2598    1.0000 </r>
       <r>    4.3171    1.0000 </r>
       <r>    4.3503    1.0000 </r>
       <r>    4.3681    1.0000 </r>
       <r>    4.4047    1.0000 </r>
       <r>    4.4383    1.0000 </r>
       <r>    4.4456    1.0000 </r>
       <r>    4.4657    1.0000 </r>
       <r>    4.4968    1.0000 </r>
       <r>    4.5229    1.0000 </r>
       <r>    4.5431    1.0000 </r>
       <r>    4.5806    1.0000 </r>
       <r>    4.5913    1.0000 </r>
       <r>    4.6230    1.0000 </r>
       <r>    4.6719    1.0000 </r>
       <r>    4.7111    1.0000 </r>
       <r>    4.7593    1.0000 </r>
       <r>    4.8483    1.0000 </r>
       <r>    4.8582    1.0000 </r>
       <r>    4.8666    1.0000 </r>
       <r>    4.9262    1.0000 </r>
       <r>    4.9681    1.0000 </r>
       <r>    4.9797    1.0000 </r>
       <r>    5.0273    1.0000 </r>
       <r>    5.0473    1.0000 </r>
       <r>    5.0942    1.0000 </r>
       <r>    5.1476    1.0000 </r>
       <r>    5.1848    1.0000 </r>
       <r>    5.2244    1.0000 </r>
       <r>    5.2834    1.0000 </r>
       <r>    5.3789    1.0000 </r>
       <r>    5.7105    1.0000 </r>
       <r>    5.7731    1.0000 </r>
       <r>    5.8525    1.0000 </r>
       <r>    6.0910    0.0000 </r>
       <r>    6.1783    0.0000 </r>
       <r>    6.2028    0.0000 </r>
       <r>    6.2362    0.0000 </r>
       <r>    6.2448    0.0000 </r>
       <r>    6.3308    0.0000 </r>
       <r>    6.5248    0.0000 </r>
       <r>    6.5672    0.0000 </r>
       <r>    6.5885    0.0000 </r>
       <r>    6.6356    0.0000 </r>
       <r>    6.6708    0.0000 </r>
       <r>    6.7128    0.0000 </r>
       <r>    6.7468    0.0000 </r>
       <r>    6.7823    0.0000 </r>
       <r>    6.8224    0.0000 </r>
       <r>    6.8371    0.0000 </r>
       <r>    6.8717    0.0000 </r>
       <r>    6.8831    0.0000 </r>
       <r>    6.9068    0.0000 </r>
       <r>    6.9467    0.0000 </r>
       <r>    6.9677    0.0000 </r>
       <r>    6.9829    0.0000 </r>
       <r>    6.9883    0.0000 </r>
       <r>    7.0075    0.0000 </r>
       <r>    7.0218    0.0000 </r>
       <r>    7.0258    0.0000 </r>
       <r>    7.0541    0.0000 </r>
       <r>    7.0773    0.0000 </r>
       <r>    7.0835    0.0000 </r>
       <r>    7.1155    0.0000 </r>
       <r>    7.1283    0.0000 </r>
       <r>    7.1574    0.0000 </r>
       <r>    7.1852    0.0000 </r>
       <r>    7.2034    0.0000 </r>
       <r>    7.2301    0.0000 </r>
       <r>    7.2475    0.0000 </r>
       <r>    7.2736    0.0000 </r>
       <r>    7.3180    0.0000 </r>
       <r>    7.3351    0.0000 </r>
       <r>    7.3747    0.0000 </r>
       <r>    7.4395    0.0000 </r>
       <r>    7.4835    0.0000 </r>
       <r>    7.4932    0.0000 </r>
       <r>    7.5194    0.0000 </r>
       <r>    7.5326    0.0000 </r>
       <r>    7.5461    0.0000 </r>
       <r>    7.5588    0.0000 </r>
       <r>    7.6229    0.0000 </r>
       <r>    7.7969    0.0000 </r>
       <r>    7.8265    0.0000 </r>
       <r>    7.8607    0.0000 </r>
       <r>    7.9025    0.0000 </r>
       <r>    7.9112    0.0000 </r>
       <r>    7.9551    0.0000 </r>
       <r>    7.9666    0.0000 </r>
       <r>    7.9928    0.0000 </r>
       <r>    8.0371    0.0000 </r>
       <r>    8.0686    0.0000 </r>
       <r>    8.1033    0.0000 </r>
       <r>    8.1268    0.0000 </r>
       <r>    8.1675    0.0000 </r>
       <r>    8.2037    0.0000 </r>
       <r>    8.2414    0.0000 </r>
       <r>    8.4552    0.0000 </r>
       <r>    8.4649    0.0000 </r>
       <r>    8.5512    0.0000 </r>
      </set>
      <set comment="kpoint 2">
       <r>   -6.1645    1.0000 </r>
       <r>   -6.0809    1.0000 </r>
       <r>   -5.7413    1.0000 </r>
       <r>   -5.6245    1.0000 </r>
       <r>   -5.6058    1.0000 </r>
       <r>   -5.5682    1.0000 </r>
       <r>   -5.5512    1.0000 </r>
[...]
       <r>    -3.1312    45.7851    99.6921 </r>
       <r>    -3.0767    43.3074   102.0523 </r>
       <r>    -3.0222    50.4338   104.8009 </r>
       <r>    -2.9677    42.4177   107.1126 </r>
       <r>    -2.9132    22.1645   108.3205 </r>
       <r>    -2.8587    42.7343   110.6495 </r>
       <r>    -2.8042    36.2238   112.6236 </r>
       <r>    -2.7497    29.8871   114.2524 </r>
       <r>    -2.6952    24.4697   115.5860 </r>
       <r>    -2.6407    38.7996   117.7005 </r>
       <r>    -2.5862    41.6338   119.9695 </r>
       <r>    -2.5317    21.4943   121.1409 </r>
       <r>    -2.4772    20.1490   122.2390 </r>
       <r>    -2.4227     7.8988   122.6695 </r>
       <r>    -2.3682     4.7303   122.9273 </r>
       <r>    -2.3138     5.9830   123.2533 </r>
       <r>    -2.2593     9.7828   123.7865 </r>
       <r>    -2.2048    12.6926   124.4782 </r>
       <r>    -2.1503    26.4734   125.9210 </r>
       <r>    -2.0958    21.5354   127.0946 </r>
       <r>    -2.0413    39.3727   129.2404 </r>
       <r>    -1.9868    30.1945   130.8859 </r>
       <r>    -1.9323    16.8522   131.8043 </r>
       <r>    -1.8778     8.7982   132.2838 </r>
       <r>    -1.8233     8.4717   132.7455 </r>
       <r>    -1.7688     4.9871   133.0173 </r>
       <r>    -1.7143     9.9170   133.5577 </r>
       <r>    -1.6598    12.2272   134.2241 </r>
       <r>    -1.6053    21.7388   135.4088 </r>
       <r>    -1.5508    35.5160   137.3444 </r>
       <r>    -1.4963    32.8763   139.1361 </r>
       <r>    -1.4418    24.1323   140.4513 </r>
       <r>    -1.3873    41.9257   142.7362 </r>
       <r>    -1.3328    51.7024   145.5539 </r>
       <r>    -1.2783    46.5063   148.0884 </r>
       <r>    -1.2238    66.5189   151.7136 </r>
       <r>    -1.1693    58.3008   154.8909 </r>
       <r>    -1.1148    56.3517   157.9620 </r>
       <r>    -1.0603    68.6037   161.7007 </r>
       <r>    -1.0058    76.4193   165.8654 </r>
       <r>    -0.9513    71.1319   169.7421 </r>
       <r>    -0.8968    59.8708   173.0049 </r>
       <r>    -0.8423    52.9351   175.8898 </r>
       <r>    -0.7878    63.4227   179.3462 </r>
       <r>    -0.7333    38.9830   181.4708 </r>
       <r>    -0.6788    55.4564   184.4930 </r>
       <r>    -0.6243    45.3983   186.9672 </r>
       <r>    -0.5698    26.3304   188.4021 </r>
       <r>    -0.5153    23.7620   189.6971 </r>
       <r>    -0.4608    18.0615   190.6815 </r>
       <r>    -0.4063    34.6950   192.5723 </r>
       <r>    -0.3518    36.8967   194.5831 </r>
       <r>    -0.2973    48.4449   197.2233 </r>
       <r>    -0.2428    40.8807   199.4512 </r>
       <r>    -0.1883    49.6892   202.1592 </r>
       <r>    -0.1338    50.3180   204.9015 </r>
       <r>    -0.0793    55.8100   207.9430 </r>
       <r>    -0.0248    42.6257   210.2660 </r>
       <r>     0.0297    33.2063   212.0757 </r>
       <r>     0.0842    17.6579   213.0381 </r>
       <r>     0.1387    13.1157   213.7528 </r>
       <r>     0.1932     9.3632   214.2631 </r>
       <r>     0.2477    24.6115   215.6044 </r>
       <r>     0.3022    18.6310   216.6198 </r>
       <r>     0.3567    23.6557   217.9090 </r>
       <r>     0.4112    23.6763   219.1993 </r>
       <r>     0.4657    16.1620   220.0801 </r>
       <r>     0.5202    36.1842   222.0521 </r>
       <r>     0.5747    22.9853   223.3047 </r>
       <r>     0.6292    15.6124   224.1556 </r>
       <r>     0.6836    20.0343   225.2474 </r>
       <r>     0.7381    13.7659   225.9976 </r>
       <r>     0.7926    17.0253   226.9255 </r>
       <r>     0.8471    15.0968   227.7482 </r>
       <r>     0.9016     3.5695   227.9428 </r>
       <r>     0.9561    32.0421   229.6890 </r>
       <r>     1.0106    20.0300   230.7806 </r>
       <r>     1.0651    32.8327   232.5699 </r>
       <r>     1.1196    30.8110   234.2491 </r>
       <r>     1.1741    19.9263   235.3350 </r>
       <r>     1.2286    19.7221   236.4099 </r>
       <r>     1.2831    24.4256   237.7410 </r>
       <r>     1.3376    32.1331   239.4922 </r>
       <r>     1.3921    40.8553   241.7187 </r>
       <r>     1.4466    63.9162   245.2021 </r>
       <r>     1.5011    71.5351   249.1006 </r>
       <r>     1.5556    83.9827   253.6775 </r>
       <r>     1.6101    91.4986   258.6641 </r>
       <r>     1.6646    78.8448   262.9610 </r>
       <r>     1.7191    55.9088   266.0079 </r>
       <r>     1.7736    60.4648   269.3032 </r>
       <r>     1.8281    35.2602   271.2248 </r>
       <r>     1.8826    30.4609   272.8849 </r>
       <r>     1.9371    21.7473   274.0701 </r>
       <r>     1.9916    19.0977   275.1109 </r>
       <r>     2.0461    53.9875   278.0531 </r>
       <r>     2.1006    75.3699   282.1607 </r>
       <r>     2.1551   101.2321   287.6777 </r>
       <r>     2.2096   114.0994   293.8959 </r>
       <r>     2.2641   122.0432   300.5470 </r>
       <r>     2.3186   112.3115   306.6678 </r>
       <r>     2.3731   107.7996   312.5427 </r>
       <r>     2.4276    83.6224   317.1001 </r>
       <r>     2.4821    69.2379   320.8734 </r>
       <r>     2.5366    33.0738   322.6759 </r>
       <r>     2.5911    37.8670   324.7396 </r>
       <r>     2.6456    58.3363   327.9188 </r>
       <r>     2.7001    71.3247   331.8059 </r>
       <r>     2.7546    86.2840   336.5082 </r>
       <r>     2.8091    88.5365   341.3333 </r>
       <r>     2.8636    81.6921   345.7854 </r>
       <r>     2.9181   105.7379   351.5480 </r>
       <r>     2.9726   106.0542   357.3278 </r>
       <r>     3.0271    85.8229   362.0050 </r>
       <r>     3.0816    81.2643   366.4338 </r>
       <r>     3.1361    81.4347   370.8718 </r>
       <r>     3.1906    68.4816   374.6040 </r>
       <r>     3.2451    92.1064   379.6236 </r>
       <r>     3.2996    70.6592   383.4745 </r>
       <r>     3.3541   122.7036   390.1616 </r>
       <r>     3.4086    90.7499   395.1074 </r>
       <r>     3.4631    84.9175   399.7352 </r>
       <r>     3.5176    73.6665   403.7499 </r>
       <r>     3.5721    90.0193   408.6559 </r>
       <r>     3.6266    77.7085   412.8908 </r>
       <r>     3.6810    78.0308   417.1434 </r>
       <r>     3.7355    79.1021   421.4543 </r>
       <r>     3.7900    88.6418   426.2852 </r>
       <r>     3.8445    84.2786   430.8782 </r>
       <r>     3.8990    77.6593   435.1105 </r>
       <r>     3.9535    55.1030   438.1135 </r>
       <r>     4.0080    66.3478   441.7294 </r>
       <r>     4.0625    65.5349   445.3009 </r>
       <r>     4.1170    75.1825   449.3982 </r>
       <r>     4.1715    70.1902   453.2235 </r>
       <r>     4.2260    77.9731   457.4729 </r>
       <r>     4.2805    78.8246   461.7687 </r>
       <r>     4.3350    54.2634   464.7259 </r>
       <r>     4.3895    74.3207   468.7763 </r>
       <r>     4.4440    68.2811   472.4975 </r>
       <r>     4.4985    64.7219   476.0247 </r>
       <r>     4.5530    56.8767   479.1244 </r>
       <r>     4.6075    70.4363   482.9631 </r>
       <r>     4.6620    43.1243   485.3133 </r>
       <r>     4.7165    54.8940   488.3049 </r>
       <r>     4.7710    40.6820   490.5221 </r>
       <r>     4.8255    24.0586   491.8332 </r>
       <r>     4.8800    37.1723   493.8591 </r>
       <r>     4.9345    41.3887   496.1147 </r>
       <r>     4.9890    31.9338   497.8550 </r>
       <r>     5.0435    31.8955   499.5933 </r>
       <r>     5.0980    21.8375   500.7834 </r>
       <r>     5.1525    23.0336   502.0387 </r>
       <r>     5.2070    17.6676   503.0015 </r>
       <r>     5.2615     9.1752   503.5016 </r>
       <r>     5.3160    13.9188   504.2601 </r>
       <r>     5.3705    14.0675   505.0268 </r>
       <r>     5.4250    21.5434   506.2008 </r>
       <r>     5.4795    23.6606   507.4903 </r>
       <r>     5.5340    13.9975   508.2531 </r>
       <r>     5.5885    27.2986   509.7409 </r>
       <r>     5.6430    25.3861   511.1244 </r>
       <r>     5.6975     2.4574   511.2583 </r>
       <r>     5.7520     4.4416   511.5003 </r>
       <r>     5.8065     4.5809   511.7500 </r>
       <r>     5.8610     4.0580   511.9712 </r>
       <r>     5.9155     0.5294   512.0000 </r>
       <r>     5.9700     0.0000   512.0000 </r>
       <r>     6.0245     0.0000   512.0000 </r>
       <r>     6.0790     0.2271   512.0124 </r>
       <r>     6.1335    14.4188   512.7982 </r>
       <r>     6.1880    15.5589   513.6461 </r>
       <r>     6.2425    21.0820   514.7950 </r>
       <r>     6.2970     8.3346   515.2493 </r>
       <r>     6.3515    31.5868   516.9707 </r>
       <r>     6.4060    15.5376   517.8175 </r>
       <r>     6.4605    27.9204   519.3391 </r>
       <r>     6.5150    23.4990   520.6198 </r>
       <r>     6.5695    13.9012   521.3774 </r>
       <r>     6.6240    24.4146   522.7079 </r>
       <r>     6.6784    11.5056   523.3349 </r>
       <r>     6.7329    29.2602   524.9296 </r>
       <r>     6.7874    38.2468   527.0139 </r>
       <r>     6.8419    26.2214   528.4430 </r>
       <r>     6.8964    42.9131   530.7817 </r>
       <r>     6.9509    38.9815   532.9061 </r>
       <r>     7.0054    35.4376   534.8374 </r>
       <r>     7.0599    49.7238   537.5472 </r>
       <r>     7.1144    30.6054   539.2152 </r>
       <r>     7.1689    30.3886   540.8713 </r>
       <r>     7.2234    35.2996   542.7951 </r>
       <r>     7.2779    70.7163   546.6490 </r>
       <r>     7.3324    57.4356   549.7791 </r>
       <r>     7.3869    83.1641   554.3114 </r>
       <r>     7.4414    84.8994   558.9383 </r>
       <r>     7.4959    82.3932   563.4286 </r>
       <r>     7.5504    89.0665   568.2826 </r>
       <r>     7.6049    82.5096   572.7793 </r>
       <r>     7.6594    88.2603   577.5893 </r>
       <r>     7.7139    78.8353   581.8857 </r>
       <r>     7.7684    92.1290   586.9066 </r>
       <r>     7.8229    97.0861   592.1977 </r>
       <r>     7.8774    96.3488   597.4485 </r>
       <r>     7.9319    95.3871   602.6470 </r>
       <r>     7.9864    92.0974   607.6661 </r>
       <r>     8.0409    60.3554   610.9554 </r>
       <r>     8.0954    88.9723   615.8043 </r>
       <r>     8.1499    94.5572   620.9575 </r>
       <r>     8.2044    80.3820   625.3382 </r>
       <r>     8.2589    89.6905   630.2262 </r>
       <r>     8.3134    82.1429   634.7029 </r>
       <r>     8.3679    63.9191   638.1864 </r>
       <r>     8.4224    75.5926   642.3060 </r>
       <r>     8.4769    26.2639   643.7374 </r>
       <r>     8.5314     0.2428   643.7506 </r>
       <r>     8.5859     4.5757   644.0000 </r>
       <r>     8.6404     0.0000   644.0000 </r>
       <r>     8.6949     0.0000   644.0000 </r>
       <r>     8.7494     0.0000   644.0000 </r>
       <r>     8.8039     0.0000   644.0000 </r>
       <r>     8.8584     0.0000   644.0000 </r>
       <r>     8.9129     0.0000   644.0000 </r>
       <r>     8.9674     0.0000   644.0000 </r>
       <r>     9.0219     0.0000   644.0000 </r>
       <r>     9.0764     0.0000   644.0000 </r>
       <r>     9.1309     0.0000   644.0000 </r>
       <r>     9.1854     0.0000   644.0000 </r>
       <r>     9.2399     0.0000   644.0000 </r>
       <r>     9.2944     0.0000   644.0000 </r>
      </set>
     </set>
    </array>
   </total>
  </dos>
 </calculation>
 <structure name="finalpos" >
  <crystal>
   <varray name="basis" >
    <v>       0.00000000      10.93733369      10.93733369 </v>
    <v>      10.93733369       0.00000000      10.93733369 </v>
    <v>      10.93733369      10.93733369       0.00000000 </v>
   </varray>
   <i name="volume">   2616.76295363 </i>
   <varray name="rec_basis" >
    <v>      -0.04571498       0.04571498       0.04571498 </v>
    <v>       0.04571498      -0.04571498       0.04571498 </v>
    <v>       0.04571498       0.04571498      -0.04571498 </v>
   </varray>
  </crystal>
  <varray name="positions" >
   <v>       0.99376343       0.00063444       0.00263700 </v>
   <v>       0.24354601       0.01114280       0.99626699 </v>
   <v>       0.49495983       0.00295650       0.00970246 </v>
   <v>       0.75026413       0.00524467       0.99341278 </v>
   <v>       0.99415612       0.25179031       0.00362715 </v>
   <v>       0.25972614       0.26132097       0.98318561 </v>
   <v>       0.50117690       0.24490896       0.00042345 </v>
   <v>       0.75900334       0.24603245       0.99686553 </v>
   <v>       0.01334866       0.49279821       0.99135212 </v>
   <v>       0.24936167       0.49992332       0.00425487 </v>
   <v>       0.50164242       0.49286537       0.99395657 </v>
   <v>       0.75126737       0.51470427       0.99847302 </v>
   <v>       0.00249820       0.75113462       0.99959623 </v>
   <v>       0.24711282       0.75914112       0.99789958 </v>
   <v>       0.50205670       0.75572311       0.99504572 </v>
   <v>       0.75255242       0.73715410       0.01127023 </v>
   <v>       0.00735763       0.00395573       0.24232350 </v>
   <v>       0.25786970       0.99543148       0.25639138 </v>
   <v>       0.51043328       0.99965723       0.24841453 </v>
   <v>       0.74917405       0.99312456       0.23916960 </v>
   <v>       0.00487571       0.25455329       0.24257109 </v>
   <v>       0.24421994       0.25007283       0.24971865 </v>
   <v>       0.50730365       0.24629239       0.23751407 </v>
   <v>       0.74915348       0.25489771       0.24984295 </v>
   <v>       0.99476281       0.50023424       0.25546966 </v>
   <v>       0.25438886       0.48626869       0.26072927 </v>
   <v>       0.50953159       0.48531655       0.24328909 </v>
   <v>       0.74304458       0.51136932       0.24369231 </v>
   <v>       0.00692688       0.73598149       0.26062172 </v>
   <v>       0.25336665       0.75834210       0.24527236 </v>
   <v>       0.51143802       0.74509974       0.26042453 </v>
   <v>       0.75414111       0.74898379       0.23825262 </v>
   <v>       0.01561713       0.99663872       0.49327002 </v>
   <v>       0.25150620       0.00071610       0.50273853 </v>
   <v>       0.49158219       0.00880226       0.49218152 </v>
   <v>       0.76085797       0.99229005       0.50715887 </v>
   <v>       0.99824527       0.25325138       0.49324938 </v>
   <v>       0.25008247       0.26076393       0.49683040 </v>
   <v>       0.49734915       0.25613780       0.50021673 </v>
   <v>       0.74669707       0.25338525       0.48776995 </v>
   <v>       0.00347209       0.50024646       0.50337222 </v>
   <v>       0.26613614       0.47692892       0.49205033 </v>
   <v>       0.49229981       0.49638330       0.50343414 </v>
   <v>       0.76055640       0.49211954       0.49303717 </v>
   <v>       0.99918841       0.74511480       0.49685097 </v>
   <v>       0.24284567       0.75332522       0.50062646 </v>
   <v>       0.49628403       0.73906069       0.51704035 </v>
   <v>       0.76823621       0.73977054       0.49634219 </v>
   <v>       0.99119179       0.00227889       0.73878284 </v>
   <v>       0.25447171       0.01045861       0.74333321 </v>
   <v>       0.50156029       0.00024889       0.73381851 </v>
   <v>       0.74868407       0.99410034       0.75636002 </v>
   <v>       0.00234243       0.23960294       0.75143103 </v>
   <v>       0.24569052       0.24794945       0.75382313 </v>
   <v>       0.49322210       0.25425034       0.74814194 </v>
   <v>       0.76034375       0.24880449       0.74373194 </v>
   <v>       0.00169624       0.50104025       0.75453551 </v>
   <v>       0.25268444       0.49478743       0.75390839 </v>
   <v>       0.48956523       0.51378616       0.75266497 </v>
   <v>       0.74857481       0.49760190       0.75571754 </v>
   <v>       0.99344475       0.76539580       0.74871775 </v>
   <v>       0.25171091       0.75076938       0.74305013 </v>
   <v>       0.50486808       0.74727871       0.74544278 </v>
   <v>       0.75334963       0.76365750       0.74820774 </v>
   <v>       0.06802032       0.06026110       0.06345701 </v>
   <v>       0.30504240       0.05369774       0.07568740 </v>
   <v>       0.56470792       0.06251811       0.07026625 </v>
   <v>       0.81233771       0.07173721       0.05603251 </v>
   <v>       0.07281739       0.31969883       0.05016748 </v>
   <v>       0.30685997       0.31967165       0.06491953 </v>
   <v>       0.56955212       0.32013239       0.07014590 </v>
   <v>       0.80492456       0.31321676       0.06625025 </v>
   <v>       0.06755492       0.56066823       0.06127337 </v>
   <v>       0.30734887       0.55979961       0.06521367 </v>
   <v>       0.55507913       0.55874702       0.06553417 </v>
   <v>       0.81813794       0.55778532       0.06186624 </v>
   <v>       0.06179662       0.81685010       0.05987900 </v>
   <v>       0.32120671       0.82249008       0.05121006 </v>
   <v>       0.56513845       0.81161403       0.06236832 </v>
   <v>       0.82134136       0.82334139       0.04464469 </v>
   <v>       0.05596403       0.07592990       0.30943019 </v>
   <v>       0.30021205       0.07437380       0.31388824 </v>
   <v>       0.56873838       0.06802335       0.30949166 </v>
   <v>       0.80989912       0.05625896       0.31566547 </v>
   <v>       0.06141233       0.32212807       0.31284063 </v>
   <v>       0.32241002       0.32087581       0.29784949 </v>
   <v>       0.56178797       0.30697705       0.31734663 </v>
   <v>       0.81216927       0.31191075       0.30908352 </v>
   <v>       0.05519672       0.56230987       0.30943609 </v>
   <v>       0.32710350       0.55756324       0.30233409 </v>
   <v>       0.56621216       0.56180335       0.30886316 </v>
   <v>       0.81543655       0.56957519       0.29879836 </v>
   <v>       0.05494223       0.80835797       0.31372614 </v>
   <v>       0.31012878       0.80592454       0.31540848 </v>
   <v>       0.56803432       0.80735586       0.32595747 </v>
   <v>       0.81884741       0.81667117       0.29817250 </v>
   <v>       0.06131713       0.07048213       0.55208148 </v>
   <v>       0.30765115       0.05864838       0.56630882 </v>
   <v>       0.56748699       0.06527178       0.55497768 </v>
   <v>       0.81456054       0.07523902       0.55210498 </v>
   <v>       0.04395857       0.30508890       0.56948645 </v>
   <v>       0.32493645       0.29752919       0.56592615 </v>
   <v>       0.54400534       0.31762633       0.56964547 </v>
   <v>       0.82175373       0.31712830       0.55618396 </v>
   <v>       0.06256978       0.57225354       0.57023603 </v>
   <v>       0.31040761       0.56980786       0.55700986 </v>
   <v>       0.56534296       0.55357341       0.55836821 </v>
   <v>       0.79709659       0.55863110       0.57146929 </v>
   <v>       0.06124396       0.80755974       0.56436051 </v>
   <v>       0.30810152       0.81353464       0.55644088 </v>
   <v>       0.58908384       0.80866035       0.54489455 </v>
   <v>       0.81426456       0.80554051       0.56787795 </v>
   <v>       0.06356377       0.05237710       0.82421017 </v>
   <v>       0.30088400       0.07964870       0.80667668 </v>
   <v>       0.56405147       0.07183827       0.79728325 </v>
   <v>       0.81477378       0.05209741       0.81438552 </v>
   <v>       0.06157896       0.32250267       0.80866589 </v>
   <v>       0.30955185       0.32025394       0.80954815 </v>
   <v>       0.56419808       0.31452154       0.81625016 </v>
   <v>       0.80633969       0.30818480       0.81718878 </v>
   <v>       0.05621030       0.57379590       0.80874216 </v>
   <v>       0.30726371       0.56265895       0.82440016 </v>
   <v>       0.56551423       0.55307465       0.81840545 </v>
   <v>       0.82095684       0.55353330       0.80923755 </v>
   <v>       0.06538763       0.81196309       0.81802690 </v>
   <v>       0.31992699       0.81654934       0.80196311 </v>
   <v>       0.56687971       0.81294213       0.80705898 </v>
   <v>       0.82025802       0.81194628       0.81462206 </v>
  </varray>
 </structure>
</modeling>
