potpaw_PBE@./ARUN.APL1ZEROSTATE         
           1
     0.000000   10.937334   10.937334
    10.937334    0.000000   10.937334
    10.937334   10.937334    0.000000
   Si
 128
Direct configuration=     1
   0.99376343  0.00063444  0.00263700
   0.24354601  0.01114280  0.99626699
   0.49495983  0.00295650  0.00970246
   0.75026413  0.00524467  0.99341278
   0.99415612  0.25179031  0.00362715
   0.25972614  0.26132097  0.98318561
   0.50117690  0.24490896  0.00042345
   0.75900334  0.24603245  0.99686553
   0.01334866  0.49279821  0.99135212
   0.24936167  0.49992332  0.00425487
   0.50164242  0.49286537  0.99395657
   0.75126737  0.51470427  0.99847302
   0.00249820  0.75113462  0.99959623
   0.24711282  0.75914112  0.99789958
   0.50205670  0.75572311  0.99504572
   0.75255242  0.73715410  0.01127023
   0.00735763  0.00395573  0.24232350
   0.25786970  0.99543148  0.25639138
   0.51043328  0.99965723  0.24841453
   0.74917405  0.99312456  0.23916960
   0.00487571  0.25455329  0.24257109
   0.24421994  0.25007283  0.24971865
   0.50730365  0.24629239  0.23751407
   0.74915348  0.25489771  0.24984295
   0.99476281  0.50023424  0.25546966
   0.25438886  0.48626869  0.26072927
   0.50953159  0.48531655  0.24328909
   0.74304458  0.51136932  0.24369231
   0.00692688  0.73598149  0.26062172
   0.25336665  0.75834210  0.24527236
   0.51143802  0.74509974  0.26042453
   0.75414111  0.74898379  0.23825262
   0.01561713  0.99663872  0.49327002
   0.25150620  0.00071610  0.50273853
   0.49158219  0.00880226  0.49218152
   0.76085797  0.99229005  0.50715887
   0.99824527  0.25325138  0.49324938
   0.25008247  0.26076393  0.49683040
   0.49734915  0.25613780  0.50021673
   0.74669707  0.25338525  0.48776995
   0.00347209  0.50024646  0.50337222
   0.26613614  0.47692892  0.49205033
   0.49229981  0.49638330  0.50343414
   0.76055640  0.49211954  0.49303717
   0.99918841  0.74511480  0.49685097
   0.24284567  0.75332522  0.50062646
   0.49628403  0.73906069  0.51704035
   0.76823621  0.73977054  0.49634219
   0.99119179  0.00227889  0.73878284
   0.25447171  0.01045861  0.74333321
   0.50156029  0.00024889  0.73381851
   0.74868407  0.99410034  0.75636002
   0.00234243  0.23960294  0.75143103
   0.24569052  0.24794945  0.75382313
   0.49322210  0.25425034  0.74814194
   0.76034375  0.24880449  0.74373194
   0.00169624  0.50104025  0.75453551
   0.25268444  0.49478743  0.75390839
   0.48956523  0.51378616  0.75266497
   0.74857481  0.49760190  0.75571754
   0.99344475  0.76539580  0.74871775
   0.25171091  0.75076938  0.74305013
   0.50486808  0.74727871  0.74544278
   0.75334963  0.76365750  0.74820774
   0.06802032  0.06026110  0.06345701
   0.30504240  0.05369774  0.07568740
   0.56470792  0.06251811  0.07026625
   0.81233771  0.07173721  0.05603251
   0.07281739  0.31969883  0.05016748
   0.30685997  0.31967165  0.06491953
   0.56955212  0.32013239  0.07014590
   0.80492456  0.31321676  0.06625025
   0.06755492  0.56066823  0.06127337
   0.30734887  0.55979961  0.06521367
   0.55507913  0.55874702  0.06553417
   0.81813794  0.55778532  0.06186624
   0.06179662  0.81685010  0.05987900
   0.32120671  0.82249008  0.05121006
   0.56513845  0.81161403  0.06236832
   0.82134136  0.82334139  0.04464469
   0.05596403  0.07592990  0.30943019
   0.30021205  0.07437380  0.31388824
   0.56873838  0.06802335  0.30949166
   0.80989912  0.05625896  0.31566547
   0.06141233  0.32212807  0.31284063
   0.32241002  0.32087581  0.29784949
   0.56178797  0.30697705  0.31734663
   0.81216927  0.31191075  0.30908352
   0.05519672  0.56230987  0.30943609
   0.32710350  0.55756324  0.30233409
   0.56621216  0.56180335  0.30886316
   0.81543655  0.56957519  0.29879836
   0.05494223  0.80835797  0.31372614
   0.31012878  0.80592454  0.31540848
   0.56803432  0.80735586  0.32595747
   0.81884741  0.81667117  0.29817250
   0.06131713  0.07048213  0.55208148
   0.30765115  0.05864838  0.56630882
   0.56748699  0.06527178  0.55497768
   0.81456054  0.07523902  0.55210498
   0.04395857  0.30508890  0.56948645
   0.32493645  0.29752919  0.56592615
   0.54400534  0.31762633  0.56964547
   0.82175373  0.31712830  0.55618396
   0.06256978  0.57225354  0.57023603
   0.31040761  0.56980786  0.55700986
   0.56534296  0.55357341  0.55836821
   0.79709659  0.55863110  0.57146929
   0.06124396  0.80755974  0.56436051
   0.30810152  0.81353464  0.55644088
   0.58908384  0.80866035  0.54489455
   0.81426456  0.80554051  0.56787795
   0.06356377  0.05237710  0.82421017
   0.30088400  0.07964870  0.80667668
   0.56405147  0.07183827  0.79728325
   0.81477378  0.05209741  0.81438552
   0.06157896  0.32250267  0.80866589
   0.30955185  0.32025394  0.80954815
   0.56419808  0.31452154  0.81625016
   0.80633969  0.30818480  0.81718878
   0.05621030  0.57379590  0.80874216
   0.30726371  0.56265895  0.82440016
   0.56551423  0.55307465  0.81840545
   0.82095684  0.55353330  0.80923755
   0.06538763  0.81196309  0.81802690
   0.31992699  0.81654934  0.80196311
   0.56687971  0.81294213  0.80705898
   0.82025802  0.81194628  0.81462206
