 128 128   0   0
  0.2044346E+02  0.1546773E-08  0.1546773E-08  0.1546773E-08  0.5000000E-15
  1.000000000000000E-004
  CAR 
 potpaw_PBE@./ARUN.APL1ZEROSTATE         
      9.31519783     -7.04049664  301      5.89413174      1.00000000
     -7.040  0.0000E+00  0.0000E+00
     -6.986  0.0000E+00  0.0000E+00
     -6.931  0.0000E+00  0.0000E+00
     -6.877  0.0000E+00  0.0000E+00
     -6.822  0.0000E+00  0.0000E+00
     -6.768  0.0000E+00  0.0000E+00
     -6.713  0.0000E+00  0.0000E+00
     -6.659  0.0000E+00  0.0000E+00
     -6.604  0.0000E+00  0.0000E+00
     -6.550  0.0000E+00  0.0000E+00
     -6.495  0.0000E+00  0.0000E+00
     -6.441  0.0000E+00  0.0000E+00
     -6.386  0.0000E+00  0.0000E+00
     -6.332  0.2126E-05  0.1159E-06
     -6.277  0.4574E+01  0.2494E+00
     -6.223  0.1158E-01  0.2500E+00
     -6.168  0.8355E-03  0.2500E+00
     -6.114  0.1709E+02  0.1182E+01
     -6.059  0.2828E+02  0.2723E+01
     -6.005  0.1841E+02  0.3727E+01
     -5.950  0.4163E+00  0.3750E+01
     -5.896  0.2482E+01  0.3885E+01
     -5.841  0.2335E+01  0.4013E+01
     -5.787  0.2697E+02  0.5483E+01
     -5.732  0.1829E+02  0.6480E+01
     -5.678  0.3019E+02  0.8127E+01
     -5.623  0.2989E+02  0.9756E+01
     -5.568  0.2252E+02  0.1098E+02
     -5.514  0.2777E+02  0.1250E+02
     -5.459  0.2159E+02  0.1367E+02
     -5.405  0.1083E+02  0.1427E+02
     -5.350  0.8895E+01  0.1475E+02
     -5.296  0.4683E+01  0.1501E+02
     -5.241  0.2739E+02  0.1650E+02
     -5.187  0.1213E+02  0.1716E+02
     -5.132  0.3828E+02  0.1925E+02
     -5.078  0.3934E+02  0.2139E+02
     -5.023  0.3434E+02  0.2326E+02
     -4.969  0.4101E+02  0.2550E+02
     -4.914  0.2306E+02  0.2676E+02
     -4.860  0.2683E+02  0.2822E+02
     -4.805  0.2348E+02  0.2950E+02
     -4.751  0.2831E+02  0.3104E+02
     -4.696  0.4493E+02  0.3349E+02
     -4.642  0.3778E+02  0.3555E+02
     -4.587  0.3385E+02  0.3740E+02
     -4.533  0.2764E+02  0.3890E+02
     -4.478  0.3095E+02  0.4059E+02
     -4.424  0.3015E+02  0.4224E+02
     -4.369  0.2098E+02  0.4338E+02
     -4.315  0.2266E+02  0.4462E+02
     -4.260  0.4101E+02  0.4685E+02
     -4.206  0.5589E+02  0.4990E+02
     -4.151  0.5094E+02  0.5268E+02
     -4.096  0.5720E+02  0.5579E+02
     -4.042  0.5528E+02  0.5881E+02
     -3.987  0.6232E+02  0.6221E+02
     -3.933  0.5064E+02  0.6497E+02
     -3.878  0.3330E+02  0.6678E+02
     -3.824  0.4226E+02  0.6909E+02
     -3.769  0.5965E+02  0.7234E+02
     -3.715  0.5827E+02  0.7551E+02
     -3.660  0.4200E+02  0.7780E+02
     -3.606  0.3202E+02  0.7955E+02
     -3.551  0.2512E+02  0.8092E+02
     -3.497  0.4964E+02  0.8363E+02
     -3.442  0.3840E+02  0.8572E+02
     -3.388  0.5685E+02  0.8882E+02
     -3.333  0.5664E+02  0.9191E+02
     -3.279  0.4763E+02  0.9450E+02
     -3.224  0.3289E+02  0.9630E+02
     -3.170  0.2522E+02  0.9767E+02
     -3.115  0.5024E+02  0.1004E+03
     -3.061  0.5648E+02  0.1035E+03
     -3.006  0.3491E+02  0.1054E+03
     -2.952  0.4005E+02  0.1076E+03
     -2.897  0.3499E+02  0.1095E+03
     -2.843  0.4536E+02  0.1120E+03
     -2.788  0.3481E+02  0.1139E+03
     -2.733  0.2523E+02  0.1152E+03
     -2.679  0.1888E+02  0.1163E+03
     -2.624  0.4407E+02  0.1187E+03
     -2.570  0.3076E+02  0.1203E+03
     -2.515  0.1803E+02  0.1213E+03
     -2.461  0.2215E+02  0.1225E+03
     -2.406  0.4414E+01  0.1228E+03
     -2.352  0.4164E+01  0.1230E+03
     -2.297  0.8634E+01  0.1235E+03
     -2.243  0.1887E+02  0.1245E+03
     -2.188  0.6336E+01  0.1248E+03
     -2.134  0.2559E+02  0.1262E+03
     -2.079  0.3670E+02  0.1282E+03
     -2.025  0.2332E+02  0.1295E+03
     -1.970  0.1834E+02  0.1305E+03
     -1.916  0.1984E+02  0.1316E+03
     -1.861  0.1661E+02  0.1325E+03
     -1.807  0.4584E+01  0.1328E+03
     -1.752  0.5722E+01  0.1331E+03
     -1.698  0.1025E+02  0.1336E+03
     -1.643  0.5088E+01  0.1339E+03
     -1.589  0.1690E+02  0.1348E+03
     -1.534  0.3503E+02  0.1367E+03
     -1.480  0.4270E+02  0.1391E+03
     -1.425  0.3345E+02  0.1409E+03
     -1.371  0.5155E+02  0.1437E+03
     -1.316  0.4545E+02  0.1462E+03
     -1.261  0.4371E+02  0.1486E+03
     -1.207  0.7656E+02  0.1527E+03
     -1.152  0.6952E+02  0.1565E+03
     -1.098  0.6093E+02  0.1598E+03
     -1.043  0.7622E+02  0.1640E+03
     -0.989  0.5733E+02  0.1671E+03
     -0.934  0.5693E+02  0.1702E+03
     -0.880  0.8355E+02  0.1748E+03
     -0.825  0.5872E+02  0.1780E+03
     -0.771  0.5288E+02  0.1809E+03
     -0.716  0.5348E+02  0.1838E+03
     -0.662  0.3596E+02  0.1857E+03
     -0.607  0.3049E+02  0.1874E+03
     -0.553  0.2816E+02  0.1889E+03
     -0.498  0.2207E+02  0.1901E+03
     -0.444  0.2474E+02  0.1915E+03
     -0.389  0.2939E+02  0.1931E+03
     -0.335  0.4818E+02  0.1957E+03
     -0.280  0.4744E+02  0.1983E+03
     -0.226  0.5389E+02  0.2012E+03
     -0.171  0.4897E+02  0.2039E+03
     -0.117  0.3278E+02  0.2057E+03
     -0.062  0.6373E+02  0.2092E+03
     -0.008  0.3707E+02  0.2112E+03
      0.047  0.8021E+01  0.2116E+03
      0.101  0.2504E+02  0.2130E+03
      0.156  0.1823E+02  0.2140E+03
      0.211  0.1338E+02  0.2147E+03
      0.265  0.1735E+02  0.2157E+03
      0.320  0.2541E+02  0.2171E+03
      0.374  0.2931E+02  0.2186E+03
      0.429  0.1551E+02  0.2195E+03
      0.483  0.1470E+02  0.2203E+03
      0.538  0.3557E+02  0.2222E+03
      0.592  0.2167E+02  0.2234E+03
      0.647  0.1849E+02  0.2244E+03
      0.701  0.2297E+02  0.2257E+03
      0.756  0.1724E+02  0.2266E+03
      0.810  0.1405E+02  0.2274E+03
      0.865  0.7509E+01  0.2278E+03
      0.919  0.1698E+02  0.2287E+03
      0.974  0.2276E+02  0.2300E+03
      1.028  0.2224E+02  0.2312E+03
      1.083  0.2259E+02  0.2324E+03
      1.137  0.3192E+02  0.2341E+03
      1.192  0.2647E+02  0.2356E+03
      1.246  0.2289E+02  0.2368E+03
      1.301  0.3076E+02  0.2385E+03
      1.355  0.2201E+02  0.2397E+03
      1.410  0.3916E+02  0.2418E+03
      1.464  0.5981E+02  0.2451E+03
      1.519  0.7932E+02  0.2494E+03
      1.574  0.9310E+02  0.2545E+03
      1.628  0.1002E+03  0.2600E+03
      1.683  0.6203E+02  0.2634E+03
      1.737  0.5878E+02  0.2666E+03
      1.792  0.4549E+02  0.2690E+03
      1.846  0.4927E+02  0.2717E+03
      1.901  0.1965E+02  0.2728E+03
      1.955  0.2355E+02  0.2741E+03
      2.010  0.2908E+02  0.2757E+03
      2.064  0.4439E+02  0.2781E+03
      2.119  0.8632E+02  0.2828E+03
      2.173  0.1179E+03  0.2892E+03
      2.228  0.1213E+03  0.2958E+03
      2.282  0.1212E+03  0.3024E+03
      2.337  0.1114E+03  0.3085E+03
      2.391  0.9350E+02  0.3136E+03
      2.446  0.8878E+02  0.3184E+03
      2.500  0.7376E+02  0.3225E+03
      2.555  0.2922E+02  0.3241E+03
      2.609  0.4377E+02  0.3264E+03
      2.664  0.5053E+02  0.3292E+03
      2.718  0.7228E+02  0.3331E+03
      2.773  0.7672E+02  0.3373E+03
      2.827  0.9302E+02  0.3424E+03
      2.882  0.9292E+02  0.3475E+03
      2.936  0.9510E+02  0.3526E+03
      2.991  0.1121E+03  0.3588E+03
      3.046  0.1064E+03  0.3646E+03
      3.100  0.6899E+02  0.3683E+03
      3.155  0.7065E+02  0.3722E+03
      3.209  0.8405E+02  0.3768E+03
      3.264  0.8995E+02  0.3817E+03
      3.318  0.8657E+02  0.3864E+03
      3.373  0.1020E+03  0.3919E+03
      3.427  0.9702E+02  0.3972E+03
      3.482  0.9011E+02  0.4021E+03
      3.536  0.7939E+02  0.4065E+03
      3.591  0.8817E+02  0.4113E+03
      3.645  0.7451E+02  0.4153E+03
      3.700  0.7002E+02  0.4192E+03
      3.754  0.7641E+02  0.4233E+03
      3.809  0.7846E+02  0.4276E+03
      3.863  0.7734E+02  0.4318E+03
      3.918  0.7635E+02  0.4360E+03
      3.972  0.8086E+02  0.4404E+03
      4.027  0.7489E+02  0.4445E+03
      4.081  0.5740E+02  0.4476E+03
      4.136  0.6485E+02  0.4511E+03
      4.190  0.7900E+02  0.4554E+03
      4.245  0.7335E+02  0.4594E+03
      4.299  0.6222E+02  0.4628E+03
      4.354  0.7866E+02  0.4671E+03
      4.408  0.8788E+02  0.4719E+03
      4.463  0.5079E+02  0.4747E+03
      4.518  0.7573E+02  0.4788E+03
      4.572  0.5707E+02  0.4819E+03
      4.627  0.5943E+02  0.4852E+03
      4.681  0.5315E+02  0.4881E+03
      4.736  0.3832E+02  0.4901E+03
      4.790  0.2455E+02  0.4915E+03
      4.845  0.3257E+02  0.4933E+03
      4.899  0.2498E+02  0.4946E+03
      4.954  0.4024E+02  0.4968E+03
      5.008  0.4868E+02  0.4995E+03
      5.063  0.3742E+02  0.5015E+03
      5.117  0.2487E+02  0.5029E+03
      5.172  0.1444E+02  0.5037E+03
      5.226  0.4576E+01  0.5039E+03
      5.281  0.1037E+02  0.5045E+03
      5.335  0.2409E+02  0.5058E+03
      5.390  0.1316E+02  0.5065E+03
      5.444  0.1179E+02  0.5071E+03
      5.499  0.2709E+02  0.5086E+03
      5.553  0.1086E+02  0.5092E+03
      5.608  0.3065E+02  0.5109E+03
      5.662  0.1127E+02  0.5115E+03
      5.717  0.7245E+00  0.5115E+03
      5.771  0.3905E+01  0.5117E+03
      5.826  0.2475E-01  0.5118E+03
      5.881  0.4561E+01  0.5120E+03
      5.935  0.0000E+00  0.5120E+03
      5.990  0.0000E+00  0.5120E+03
      6.044  0.2545E-15  0.5120E+03
      6.099  0.1286E+01  0.5121E+03
      6.153  0.1308E+02  0.5128E+03
      6.208  0.1685E+02  0.5137E+03
      6.262  0.1071E+02  0.5143E+03
      6.317  0.2240E+02  0.5155E+03
      6.371  0.1977E+02  0.5166E+03
      6.426  0.1818E+02  0.5176E+03
      6.480  0.1928E+02  0.5186E+03
      6.535  0.2559E+02  0.5200E+03
      6.589  0.3327E+02  0.5218E+03
      6.644  0.1134E+02  0.5225E+03
      6.698  0.1283E+02  0.5232E+03
      6.753  0.3601E+02  0.5251E+03
      6.807  0.3482E+02  0.5270E+03
      6.862  0.2979E+02  0.5286E+03
      6.916  0.3791E+02  0.5307E+03
      6.971  0.3951E+02  0.5329E+03
      7.025  0.4469E+02  0.5353E+03
      7.080  0.4527E+02  0.5378E+03
      7.134  0.2816E+02  0.5393E+03
      7.189  0.1663E+02  0.5402E+03
      7.243  0.4192E+02  0.5425E+03
      7.298  0.6202E+02  0.5459E+03
      7.353  0.7040E+02  0.5497E+03
      7.407  0.7855E+02  0.5540E+03
      7.462  0.7072E+02  0.5578E+03
      7.516  0.1059E+03  0.5636E+03
      7.571  0.9138E+02  0.5686E+03
      7.625  0.8644E+02  0.5733E+03
      7.680  0.7418E+02  0.5774E+03
      7.734  0.9297E+02  0.5824E+03
      7.789  0.1007E+03  0.5879E+03
      7.843  0.9028E+02  0.5928E+03
      7.898  0.1056E+03  0.5986E+03
      7.952  0.8402E+02  0.6032E+03
      8.007  0.8487E+02  0.6078E+03
      8.061  0.9061E+02  0.6127E+03
      8.116  0.8302E+02  0.6173E+03
      8.170  0.9435E+02  0.6224E+03
      8.225  0.7747E+02  0.6266E+03
      8.279  0.8521E+02  0.6313E+03
      8.334  0.9146E+02  0.6363E+03
      8.388  0.6829E+02  0.6400E+03
      8.443  0.4581E+02  0.6425E+03
      8.497  0.1389E+02  0.6433E+03
      8.552  0.6179E+01  0.6436E+03
      8.606  0.7576E+01  0.6440E+03
      8.661  0.0000E+00  0.6440E+03
      8.715  0.0000E+00  0.6440E+03
      8.770  0.0000E+00  0.6440E+03
      8.825  0.0000E+00  0.6440E+03
      8.879  0.0000E+00  0.6440E+03
      8.934  0.0000E+00  0.6440E+03
      8.988  0.0000E+00  0.6440E+03
      9.043  0.0000E+00  0.6440E+03
      9.097  0.0000E+00  0.6440E+03
      9.152  0.0000E+00  0.6440E+03
      9.206  0.0000E+00  0.6440E+03
      9.261  0.0000E+00  0.6440E+03
      9.315  0.0000E+00  0.6440E+03
