 vasp.5.4.4.18Apr17-6-g9f103f2a35 (build Nov 08 2017 09:05:29) complex          
  
 executed on          Intel_17.33 date 2020.07.18  20:44:48
 running on   32 total cores
 distrk:  each k-point on   32 cores,    1 groups
 distr:  one band on NCORES_PER_BAND=  16 cores,    2 groups


--------------------------------------------------------------------------------------------------------


 INCAR:
 POTCAR:   PAW_PBE Si 05Jan2001                   

 ----------------------------------------------------------------------------- 
|                                                                             |
|           W    W    AA    RRRRR   N    N  II  N    N   GGGG   !!!           |
|           W    W   A  A   R    R  NN   N  II  NN   N  G    G  !!!           |
|           W    W  A    A  R    R  N N  N  II  N N  N  G       !!!           |
|           W WW W  AAAAAA  RRRRR   N  N N  II  N  N N  G  GGG   !            |
|           WW  WW  A    A  R   R   N   NN  II  N   NN  G    G                |
|           W    W  A    A  R    R  N    N  II  N    N   GGGG   !!!           |
|                                                                             |
|      For optimal performance we recommend to set                            |
|        NCORE= 4 - approx SQRT( number of cores)                             |
|      NCORE specifies how many cores store one orbital (NPAR=cpu/NCORE).     |
|      This setting can  greatly improve the performance of VASP for DFT.     |
|      The default,   NCORE=1            might be grossly inefficient         |
|      on modern multi-core architectures or massively parallel machines.     |
|      Do your own testing !!!!                                               |
|      Unfortunately you need to use the default for GW and RPA calculations. |
|      (for HF NCORE is supported but not extensively tested yet)             |
|                                                                             |
 ----------------------------------------------------------------------------- 

 POTCAR:   PAW_PBE Si 05Jan2001                   
   VRHFIN =Si: s2p2                                                             
   LEXCH  = PE                                                                  
   EATOM  =   103.0669 eV,    7.5752 Ry                                         
                                                                                
   TITEL  = PAW_PBE Si 05Jan2001                                                
   LULTRA =        F    use ultrasoft PP ?                                      
   IUNSCR =        1    unscreen: 0-lin 1-nonlin 2-no                           
   RPACOR =    1.500    partial core radius                                     
   POMASS =   28.085; ZVAL   =    4.000    mass and valenz                      
   RCORE  =    1.900    outmost cutoff radius                                   
   RWIGS  =    2.480; RWIGS  =    1.312    wigner-seitz radius (au A)           
   ENMAX  =  245.345; ENMIN  =  184.009 eV                                      
   ICORE  =        2    local potential                                         
   LCOR   =        T    correct aug charges                                     
   LPAW   =        T    paw PP                                                  
   EAUG   =  322.069                                                            
   DEXC   =    -.007                                                            
   RMAX   =    2.944    core radius for proj-oper                               
   RAUG   =    1.300    factor for augmentation sphere                          
   RDEP   =    1.993    radius for radial grids                                 
   QCUT   =   -4.246; QGAM   =    8.493    optimization parameters              
                                                                                
   Description                                                                  
     l     E      TYP  RCUT    TYP  RCUT                                        
     0   .000     23  1.900                                                     
     0   .000     23  1.900                                                     
     1   .000     23  1.900                                                     
     1   .000     23  1.900                                                     
     2   .000      7  1.900                                                     
  local pseudopotential read in
  partial core-charges read in
  atomic valenz-charges read in
  non local Contribution for L=           0  read in
    real space projection operators read in
  non local Contribution for L=           0  read in
    real space projection operators read in
  non local Contribution for L=           1  read in
    real space projection operators read in
  non local Contribution for L=           1  read in
    real space projection operators read in
    PAW grid and wavefunctions read in
 
   number of l-projection  operators is LMAX  =           4
   number of lm-projection operators is LMMAX =           8
 

 ----------------------------------------------------------------------------- 
|                                                                             |
|  ADVICE TO THIS USER RUNNING 'VASP/VAMP'   (HEAR YOUR MASTER'S VOICE ...):  |
|                                                                             |
|      You have a (more or less) 'large supercell' and for larger cells       |
|      it might be more efficient to use real space projection operators      |
|      So try LREAL= Auto  in the INCAR   file.                               |
|      Mind: If you want to do a very accurate calculations keep the          |
|      reciprocal projection scheme          (i.e. LREAL=.FALSE.)             |
|                                                                             |
 ----------------------------------------------------------------------------- 

 PAW_PBE Si 05Jan2001                   :
 energy of atom  1       EATOM= -103.0669
 kinetic energy error for atom=    0.0006 (will be added to EATOM!!)
 
 
 POSCAR: kk                                      
  positions in direct lattice
  No initial velocities read in
 exchange correlation table for  LEXCH =        8
   RHO(1)=    0.500       N(1)  =     2000
   RHO(2)=  100.500       N(2)  =     4000
 


--------------------------------------------------------------------------------------------------------


 ion  position               nearest neighbor table
   1  0.993  0.005  0.001-  77 2.30  68 2.32 113 2.36  65 2.37
   2  0.252  0.015  1.000-  66 2.16  65 2.27 114 2.37  78 2.61
   3  0.503  0.992  1.000-  79 2.22  66 2.35  67 2.49 115 2.53
   4  0.752  0.993  0.008-  80 2.20  68 2.23  67 2.40 116 2.51
   5  0.007  0.248  0.996-  69 2.23 117 2.32  65 2.34  72 2.51
   6  0.254  0.255  0.993- 118 2.32  70 2.38  69 2.40  66 2.41
   7  0.496  0.255  0.999-  71 2.38  67 2.40 119 2.42  70 2.43
   8  0.753  0.259  0.003-  72 2.26  71 2.41 120 2.45  68 2.65
   9  0.999  0.499  1.000-  73 2.22  76 2.23 121 2.39  69 2.48
  10  0.248  0.497  0.013-  74 2.28  73 2.37  70 2.40 122 2.59
  11  0.508  0.494  0.004-  71 2.24  75 2.31  74 2.34 123 2.42
  12  0.741  0.502  0.999- 124 2.25  75 2.26  72 2.31  76 2.46
  13  0.007  0.742  0.997-  80 2.30 125 2.32  73 2.33  77 2.33
  14  0.255  0.743  0.001-  78 2.30  74 2.30 126 2.40  77 2.58
  15  0.492  0.757  0.000- 127 2.25  79 2.26  78 2.26  75 2.51
  16  0.754  0.749  0.003-  80 2.34  76 2.41  79 2.48 128 2.51
  17  0.995  0.001  0.254-  93 2.34  84 2.44  81 2.53  65 2.59
  18  0.252  0.988  0.252-  82 2.20  94 2.37  81 2.41  66 2.48
  19  0.499  0.006  0.254-  83 2.27  67 2.40  82 2.61  95 2.61
  20  0.743  0.995  0.261-  83 2.09  84 2.27  68 2.41  96 2.44
  21  0.998  0.249  0.248-  88 2.26  81 2.33  69 2.38  85 2.48
  22  0.244  0.240  0.256-  85 2.22  70 2.26  82 2.32  86 2.38
  23  0.501  0.248  0.257-  87 2.34  83 2.45  86 2.47  71 2.51
  24  0.749  0.239  0.260-  84 2.24  88 2.40  72 2.46  87 2.47
  25  0.998  0.495  0.239-  92 2.27  85 2.31  73 2.34  89 2.53
  26  0.256  0.495  0.249-  90 2.31  86 2.35  89 2.47  74 2.48
  27  0.495  0.504  0.259-  87 2.29  91 2.32  90 2.35  75 2.41
  28  0.751  0.494  0.244-  88 2.26  76 2.39  92 2.46  91 2.47
  29  0.991  0.745  0.252-  96 2.22  89 2.40  93 2.46  77 2.51
  30  0.250  0.749  0.252-  94 2.22  90 2.33  93 2.39  78 2.43
  31  0.495  0.743  0.249-  94 2.21  91 2.34  95 2.46  79 2.48
  32  0.753  0.744  0.252-  95 2.20  92 2.40  96 2.49  80 2.65
  33  0.000  0.000  0.507-  97 2.31  81 2.34 109 2.39 100 2.48
  34  0.247  1.000  0.495-  97 2.29  82 2.30 110 2.39  98 2.48
  35  0.501  0.002  0.495- 111 2.29  98 2.32  99 2.34  83 2.40
  36  0.748  0.000  0.495- 100 2.23  84 2.29 112 2.29  99 2.32
  37  0.006  0.249  0.500- 101 2.26  97 2.32  85 2.42 104 2.42
  38  0.246  0.245  0.505- 102 2.27  98 2.35 101 2.37  86 2.42
  39  0.499  0.250  0.508- 103 2.24 102 2.37  99 2.43  87 2.46
  40  0.748  0.256  0.513- 104 2.27 103 2.38 100 2.57  88 2.65
  41  0.998  0.500  0.501- 105 2.24  89 2.33 108 2.37 101 2.42
  42  0.252  0.503  0.500- 106 2.25  90 2.41 102 2.51 105 2.65
  43  0.494  0.487  0.508- 106 2.28 103 2.30  91 2.30 107 2.58
  44  0.755  0.498  0.500- 104 2.21 108 2.31 107 2.33  92 2.40
  45  0.995  0.742  0.509- 105 2.18 112 2.47 109 2.48  93 2.56
  46  0.251  0.737  0.499- 106 2.24 109 2.41  94 2.44 110 2.60
  47  0.499  0.741  0.491- 107 2.34  95 2.40 110 2.50 111 2.58
  48  0.742  0.738  0.511- 108 2.24 111 2.32  96 2.34 112 2.46
  49  1.000  0.008  0.739- 113 2.26  97 2.27 125 2.43 116 2.46
  50  0.245  0.010  0.752- 114 2.29  98 2.41 126 2.41 113 2.54
  51  0.485  0.006  0.755- 114 2.20 115 2.34 127 2.37  99 2.46
  52  0.758  1.000  0.747- 116 2.27 128 2.31 100 2.38 115 2.63
  53  0.999  0.250  0.751- 101 2.33 120 2.34 113 2.34 117 2.41
  54  0.254  0.260  0.742- 118 2.27 102 2.33 117 2.37 114 2.47
  55  0.498  0.259  0.742- 103 2.19 119 2.24 115 2.27 118 2.31
  56  0.754  0.250  0.751- 120 2.25 116 2.30 119 2.42 104 2.45
  57  0.980  0.502  0.756- 124 2.34 117 2.42 105 2.42 121 2.53
  58  0.260  0.498  0.747- 118 2.36 106 2.36 122 2.38 121 2.53
  59  0.485  0.502  0.754- 122 2.21 107 2.41 119 2.52 123 2.57
  60  0.747  0.506  0.746- 108 2.28 123 2.38 124 2.39 120 2.47
  61  0.004  0.755  0.751- 109 2.29 125 2.30 121 2.37 128 2.53
  62  0.245  0.752  0.758- 122 2.24 110 2.28 125 2.31 126 2.37
  63  0.488  0.759  0.755- 126 2.24 123 2.37 127 2.46 111 2.54
  64  0.749  0.756  0.746- 128 2.22 112 2.28 124 2.34 127 2.45
  65  0.073  0.063  0.049-   2 2.27   5 2.34   1 2.37  17 2.59
  66  0.317  0.065  0.056-   2 2.16   3 2.35   6 2.41  18 2.48
  67  0.563  0.065  0.064-   4 2.40  19 2.40   7 2.40   3 2.49
  68  0.810  0.050  0.071-   4 2.23   1 2.32  20 2.41   8 2.65
  69  0.065  0.303  0.060-   5 2.23  21 2.38   6 2.40   9 2.48
  70  0.304  0.307  0.078-  22 2.26   6 2.38  10 2.40   7 2.43
  71  0.563  0.317  0.058-  11 2.24   7 2.38   8 2.41  23 2.51
  72  0.809  0.319  0.066-   8 2.26  12 2.31  24 2.46   5 2.51
  73  0.062  0.558  0.054-   9 2.22  13 2.33  25 2.34  10 2.37
  74  0.323  0.561  0.053-  10 2.28  14 2.30  11 2.34  26 2.48
  75  0.563  0.558  0.069-  12 2.26  11 2.31  27 2.41  15 2.51
  76  0.822  0.558  0.055-   9 2.23  28 2.39  16 2.41  12 2.46
  77  0.051  0.824  0.054-   1 2.30  13 2.33  29 2.51  14 2.58
  78  0.313  0.808  0.060-  15 2.26  14 2.30  30 2.43   2 2.61
  79  0.558  0.816  0.052-   3 2.22  15 2.26  16 2.48  31 2.48
  80  0.827  0.820  0.042-   4 2.20  13 2.30  16 2.34  32 2.65
  81  0.063  0.065  0.322-  21 2.33  33 2.34  18 2.41  17 2.53
  82  0.294  0.057  0.314-  18 2.20  34 2.30  22 2.32  19 2.61
  83  0.577  0.055  0.305-  20 2.09  19 2.27  35 2.40  23 2.45
  84  0.802  0.062  0.314-  24 2.24  20 2.27  36 2.29  17 2.44
  85  0.069  0.313  0.309-  22 2.22  25 2.31  37 2.42  21 2.48
  86  0.306  0.310  0.313-  26 2.35  22 2.38  38 2.42  23 2.47
  87  0.555  0.323  0.313-  27 2.29  23 2.34  39 2.46  24 2.47
  88  0.819  0.315  0.303-  21 2.26  28 2.26  24 2.40  40 2.65
  89  0.061  0.556  0.317-  41 2.33  29 2.40  26 2.47  25 2.53
  90  0.310  0.564  0.309-  26 2.31  30 2.33  27 2.35  42 2.41
  91  0.557  0.559  0.327-  43 2.30  27 2.32  31 2.34  28 2.47
  92  0.820  0.553  0.311-  25 2.27  44 2.40  32 2.40  28 2.46
  93  0.061  0.816  0.306-  17 2.34  30 2.39  29 2.46  45 2.56
  94  0.320  0.800  0.306-  31 2.21  30 2.22  18 2.37  46 2.44
  95  0.579  0.800  0.301-  32 2.20  47 2.40  31 2.46  19 2.61
  96  0.816  0.802  0.327-  29 2.22  48 2.34  20 2.44  32 2.49
  97  0.067  0.066  0.559-  49 2.27  34 2.29  33 2.31  37 2.32
  98  0.318  0.059  0.562-  35 2.32  38 2.35  50 2.41  34 2.48
  99  0.563  0.058  0.561-  36 2.32  35 2.34  39 2.43  51 2.46
 100  0.805  0.054  0.560-  36 2.23  52 2.38  33 2.48  40 2.57
 101  0.058  0.309  0.567-  37 2.26  53 2.33  38 2.37  41 2.42
 102  0.312  0.305  0.559-  38 2.27  54 2.33  39 2.37  42 2.51
 103  0.560  0.305  0.568-  55 2.19  39 2.24  43 2.30  40 2.38
 104  0.815  0.323  0.558-  44 2.21  40 2.27  37 2.42  56 2.45
 105  0.042  0.570  0.565-  45 2.18  41 2.24  57 2.42  42 2.65
 106  0.314  0.560  0.560-  46 2.24  42 2.25  43 2.28  58 2.36
 107  0.571  0.557  0.565-  44 2.33  47 2.34  59 2.41  43 2.58
 108  0.810  0.561  0.566-  48 2.24  60 2.28  44 2.31  41 2.37
 109  0.061  0.812  0.569-  61 2.29  33 2.39  46 2.41  45 2.48
 110  0.303  0.812  0.578-  62 2.28  34 2.39  47 2.50  46 2.60
 111  0.561  0.821  0.553-  35 2.29  48 2.32  63 2.54  47 2.58
 112  0.800  0.819  0.566-  64 2.28  36 2.29  48 2.46  45 2.47
 113  0.044  0.066  0.814-  49 2.26  53 2.34   1 2.36  50 2.54
 114  0.310  0.065  0.813-  51 2.20  50 2.29   2 2.37  54 2.47
 115  0.550  0.079  0.801-  55 2.27  51 2.34   3 2.53  52 2.63
 116  0.805  0.069  0.810-  52 2.27  56 2.30  49 2.46   4 2.51
 117  0.067  0.312  0.813-   5 2.32  54 2.37  53 2.41  57 2.42
 118  0.315  0.311  0.809-  54 2.27  55 2.31   6 2.32  58 2.36
 119  0.563  0.304  0.808-  55 2.24  56 2.42   7 2.42  59 2.52
 120  0.814  0.310  0.810-  56 2.25  53 2.34   8 2.45  60 2.47
 121  0.059  0.568  0.810-  61 2.37   9 2.39  57 2.53  58 2.53
 122  0.310  0.575  0.808-  59 2.21  62 2.24  58 2.38  10 2.59
 123  0.559  0.571  0.813-  63 2.37  60 2.38  11 2.42  59 2.57
 124  0.795  0.572  0.821-  12 2.25  57 2.34  64 2.34  60 2.39
 125  0.062  0.816  0.813-  61 2.30  62 2.31  13 2.32  49 2.43
 126  0.311  0.819  0.812-  63 2.24  62 2.37  14 2.40  50 2.41
 127  0.556  0.819  0.822-  15 2.25  51 2.37  64 2.45  63 2.46
 128  0.804  0.818  0.805-  64 2.22  52 2.31  16 2.51  61 2.53
 
  LATTYP: Found a face centered cubic cell.
 ALAT       =    21.8746673814
  
  Lattice vectors:
  
 A1 = (   0.0000000000,  10.9373336907,  10.9373336907)
 A2 = (  10.9373336907,   0.0000000000,  10.9373336907)
 A3 = (  10.9373336907,  10.9373336907,   0.0000000000)


Analysis of symmetry for initial positions (statically):
=====================================================================
 Subroutine PRICEL returns:
 Original cell was already a primitive cell.
 

 Routine SETGRP: Setting up the symmetry group for a 
 face centered cubic supercell.


 Subroutine GETGRP returns: Found  1 space group operations
 (whereof  1 operations were pure point group operations)
 out of a pool of 48 trial point group operations.


The static configuration has the point symmetry C_1 .


Analysis of symmetry for dynamics (positions and initial velocities):
=====================================================================
 Subroutine PRICEL returns:
 Original cell was already a primitive cell.
 

 Routine SETGRP: Setting up the symmetry group for a 
 face centered cubic supercell.


 Subroutine GETGRP returns: Found  1 space group operations
 (whereof  1 operations were pure point group operations)
 out of a pool of 48 trial point group operations.


The dynamic configuration has the point symmetry C_1 .


 Subroutine INISYM returns: Found  1 space group operations
 (whereof  1 operations are pure point group operations),
 and found     1 'primitive' translations

 
 
 KPOINTS: KPOINTS File, automatically generated by

Automatic generation of k-mesh.
Space group operators:
 irot       det(A)        alpha          n_x          n_y          n_z        tau_x        tau_y        tau_z
    1     1.000000     0.000001     1.000000     0.000000     0.000000     0.000000     0.000000     0.000000
 
 Subroutine IBZKPT returns following result:
 ===========================================
 
 Found      8 irreducible k-points:
 
 Following reciprocal coordinates:
            Coordinates               Weight
  0.000000  0.000000  0.000000      1.000000
  0.500000  0.000000  0.000000      1.000000
  0.000000  0.500000  0.000000      1.000000
  0.500000  0.500000  0.000000      1.000000
  0.000000  0.000000  0.500000      1.000000
  0.500000  0.000000  0.500000      1.000000
  0.000000  0.500000  0.500000      1.000000
  0.500000  0.500000  0.500000      1.000000
 
 Following cartesian coordinates:
            Coordinates               Weight
  0.000000  0.000000  0.000000      1.000000
 -0.022857  0.022857  0.022857      1.000000
  0.022857 -0.022857  0.022857      1.000000
  0.000000  0.000000  0.045715      1.000000
  0.022857  0.022857 -0.022857      1.000000
  0.000000  0.045715  0.000000      1.000000
  0.045715  0.000000  0.000000      1.000000
  0.022857  0.022857  0.022857      1.000000
 


--------------------------------------------------------------------------------------------------------




 Dimension of arrays:
   k-points           NKPTS =      8   k-points in BZ     NKDIM =      8   number of bands    NBANDS=    322
   number of dos      NEDOS =    301   number of ions     NIONS =    128
   non local maximal  LDIM  =      4   non local SUM 2l+1 LMDIM =      8
   total plane-waves  NPLWV = ******
   max r-space proj   IRMAX =      1   max aug-charges    IRDMAX= 176811
   dimension x,y,z NGX =   120 NGY =  120 NGZ =  120
   dimension x,y,z NGXF=   240 NGYF=  240 NGZF=  240
   support grid    NGXF=   480 NGYF=  480 NGZF=  480
   ions per type =             128
   NGX,Y,Z   is equivalent  to a cutoff of  12.90, 12.90, 12.90 a.u.
   NGXF,Y,Z  is equivalent  to a cutoff of  25.80, 25.80, 25.80 a.u.

 SYSTEM =  potpaw_PBE@./ARUN.APL1ZEROSTATE         
 POSCAR =  kk                                      

 Startparameter for this run:
   NWRITE =      2    write-flag & timer
   PREC   = accura    normal or accurate (medium, high low for compatibility)
   ISTART =      0    job   : 0-new  1-cont  2-samecut
   ICHARG =      2    charge: 1-file 2-atom 10-const
   ISPIN  =      1    spin polarized calculation?
   LNONCOLLINEAR =      F non collinear calculations
   LSORBIT =      F    spin-orbit coupling
   INIWAV =      1    electr: 0-lowe 1-rand  2-diag
   LASPH  =      F    aspherical Exc in radial PAW
   METAGGA=      F    non-selfconsistent MetaGGA calc.

 Electronic Relaxation 1
   ENCUT  =  500.0 eV  36.75 Ry    6.06 a.u.  28.20 28.20 28.20*2*pi/ulx,y,z
   ENINI  =  500.0     initial cutoff
   ENAUG  =  322.1 eV  augmentation charge cutoff
   NELM   =    120;   NELMIN=  4; NELMDL= -5     # of ELM steps 
   EDIFF  = 0.1E-07   stopping-criterion for ELM
   LREAL  =      F    real-space projection
   NLSPLINE    = F    spline interpolate recip. space projectors
   LCOMPAT=      F    compatible to vasp.4.4
   GGA_COMPAT  = T    GGA compatible to vasp.4.4-vasp.4.6
   LMAXPAW     = -100 max onsite density
   LMAXMIX     =    2 max onsite mixed and CHGCAR
   VOSKOWN=      0    Vosko Wilk Nusair interpolation
   ROPT   =    0.00000
 Ionic relaxation
   EDIFFG = 0.1E-06   stopping-criterion for IOM
   NSW    =      0    number of steps for IOM
   NBLOCK =      1;   KBLOCK =      1    inner block; outer block 
   IBRION =     -1    ionic relax: 0-MD 1-quasi-New 2-CG
   NFREE  =      0    steps in history (QN), initial steepest desc. (CG)
   ISIF   =      2    stress and relaxation
   IWAVPR =     10    prediction:  0-non 1-charg 2-wave 3-comb
   ISYM   =      2    0-nonsym 1-usesym 2-fastsym
   LCORR  =      T    Harris-Foulkes like correction to forces

   POTIM  = 0.5000    time-step for ionic-motion
   TEIN   =    0.0    initial temperature
   TEBEG  =    0.0;   TEEND  =   0.0 temperature during run
   SMASS  =  -3.00    Nose mass-parameter (am)
   estimated Nose-frequenzy (Omega)   =  0.10E-29 period in steps =****** mass=  -0.547E-26a.u.
   SCALEE = 1.0000    scale energy and forces
   NPACO  =    256;   APACO  = 16.0  distance and # of slots for P.C.
   PSTRESS=    0.0 pullay stress

  Mass of Ions in am
   POMASS =  28.09
  Ionic Valenz
   ZVAL   =   4.00
  Atomic Wigner-Seitz radii
   RWIGS  =  -1.00
  virtual crystal weights 
   VCA    =   1.00
   NELECT =     512.0000    total number of electrons
   NUPDOWN=      -1.0000    fix difference up-down

 DOS related values:
   EMIN   =  10.00;   EMAX   =-10.00  energy-range for DOS
   EFERMI =   0.00
   ISMEAR =     0;   SIGMA  =   0.01  broadening in eV -4-tet -1-fermi 0-gaus

 Electronic relaxation 2 (details)
   IALGO  =     38    algorithm
   LDIAG  =      T    sub-space diagonalisation (order eigenvalues)
   LSUBROT=      F    optimize rotation matrix (better conditioning)
   TURBO    =      0    0=normal 1=particle mesh
   IRESTART =      0    0=no restart 2=restart with 2 vectors
   NREBOOT  =      0    no. of reboots
   NMIN     =      0    reboot dimension
   EREF     =   0.00    reference energy to select bands
   IMIX   =      4    mixing-type and parameters
     AMIX     =   0.40;   BMIX     =  1.00
     AMIX_MAG =   1.60;   BMIX_MAG =  1.00
     AMIN     =   0.10
     WC   =   100.;   INIMIX=   1;  MIXPRE=   1;  MAXMIX= -45

 Intra band minimization:
   WEIMIN = 0.0000     energy-eigenvalue tresh-hold
   EBREAK =  0.78E-11  absolut break condition
   DEPER  =   0.30     relativ break condition  

   TIME   =   0.40     timestep for ELM

  volume/ion in A,a.u.               =      20.44       137.96
  Fermi-wavevector in a.u.,A,eV,Ry     =   0.950408  1.796010 12.289804  0.903275
  Thomas-Fermi vector in A             =   2.078782
 
 Write flags
   LWAVE        =      F    write WAVECAR
   LDOWNSAMPLE  =      F    k-point downsampling of WAVECAR
   LCHARG       =      F    write CHGCAR
   LVTOT        =      F    write LOCPOT, total local potential
   LVHAR        =      F    write LOCPOT, Hartree potential only
   LELF         =      F    write electronic localiz. function (ELF)
   LORBIT       =      0    0 simple, 1 ext, 2 COOP (PROOUT), +10 PAW based schemes


 Dipole corrections
   LMONO  =      F    monopole corrections only (constant potential shift)
   LDIPOL =      F    correct potential (dipole corrections)
   IDIPOL =      0    1-x, 2-y, 3-z, 4-all directions 
   EPSILON=  1.0000000 bulk dielectric constant

 Exchange correlation treatment:
   GGA     =    --    GGA type
   LEXCH   =     8    internal setting for exchange type
   VOSKOWN=      0    Vosko Wilk Nusair interpolation
   LHFCALC =     F    Hartree Fock is set to
   LHFONE  =     F    Hartree Fock one center treatment
   AEXX    =    0.0000 exact exchange contribution

 Linear response parameters
   LEPSILON=     F    determine dielectric tensor
   LRPA    =     F    only Hartree local field effects (RPA)
   LNABLA  =     F    use nabla operator in PAW spheres
   LVEL    =     F    velocity operator in full k-point grid
   LINTERFAST=   F  fast interpolation
   KINTER  =     0    interpolate to denser k-point grid
   CSHIFT  =0.1000    complex shift for real part using Kramers Kronig
   OMEGAMAX=  -1.0    maximum frequency
   DEG_THRESHOLD= 0.2000000E-02 threshold for treating states as degnerate
   RTIME   =   -0.100 relaxation time in fs
  (WPLASMAI=    0.000 imaginary part of plasma frequency in eV, 0.658/RTIME)
   DFIELD  = 0.0000000 0.0000000 0.0000000 field for delta impulse in time
 
 Orbital magnetization related:
   ORBITALMAG=     F  switch on orbital magnetization
   LCHIMAG   =     F  perturbation theory with respect to B field
   DQ        =  0.001000  dq finite difference perturbation B field
   LLRAUG    =     F  two centre corrections for induced B field



--------------------------------------------------------------------------------------------------------


 Static calculation
 charge density and potential will be updated during run
 non-spin polarized calculation
 Variant of blocked Davidson
 Davidson routine will perform the subspace rotation
 perform sub-space diagonalisation
    after iterative eigenvector-optimisation
 modified Broyden-mixing scheme, WC =      100.0
 initial mixing is a Kerker type mixing with AMIX =  0.4000 and BMIX =      1.0000
 Hartree-type preconditioning will be used
 using additional bands           66
 reciprocal scheme for non local part
 use partial core corrections
 calculate Harris-corrections to forces 
   (improved forces if not selfconsistent)
 use gradient corrections 
 use of overlap-Matrix (Vanderbilt PP)
 Gauss-broadening in eV      SIGMA  =   0.01


--------------------------------------------------------------------------------------------------------


  energy-cutoff  :      500.00
  volume of cell :     2616.76
      direct lattice vectors                 reciprocal lattice vectors
     0.000000000 10.937333691 10.937333691    -0.045714981  0.045714981  0.045714981
    10.937333691  0.000000000 10.937333691     0.045714981 -0.045714981  0.045714981
    10.937333691 10.937333691  0.000000000     0.045714981  0.045714981 -0.045714981

  length of vectors
    15.467725642 15.467725642 15.467725642     0.079180669  0.079180669  0.079180669


 
 k-points in units of 2pi/SCALE and weight: KPOINTS File, automatically generated by
   0.00000000  0.00000000  0.00000000       0.125
  -0.02285749  0.02285749  0.02285749       0.125
   0.02285749 -0.02285749  0.02285749       0.125
   0.00000000  0.00000000  0.04571498       0.125
   0.02285749  0.02285749 -0.02285749       0.125
   0.00000000  0.04571498  0.00000000       0.125
   0.04571498  0.00000000  0.00000000       0.125
   0.02285749  0.02285749  0.02285749       0.125
 
 k-points in reciprocal lattice and weights: KPOINTS File, automatically generated by
   0.00000000  0.00000000  0.00000000       0.125
   0.50000000  0.00000000  0.00000000       0.125
   0.00000000  0.50000000  0.00000000       0.125
   0.50000000  0.50000000  0.00000000       0.125
   0.00000000  0.00000000  0.50000000       0.125
   0.50000000  0.00000000  0.50000000       0.125
   0.00000000  0.50000000  0.50000000       0.125
   0.50000000  0.50000000  0.50000000       0.125
 
 position of ions in fractional coordinates (direct lattice) 
   0.99278031  0.00521085  0.00072409
   0.25172908  0.01450042  0.99983834
   0.50295265  0.99213825  0.99964975
   0.75242249  0.99262492  0.00843972
   0.00669674  0.24819008  0.99611470
   0.25405991  0.25506754  0.99252314
   0.49575203  0.25520607  0.99894372
   0.75341302  0.25876576  0.00297645
   0.99897412  0.49919823  0.99979615
   0.24809228  0.49716554  0.01257819
   0.50778394  0.49436950  0.00412445
   0.74133373  0.50188523  0.99902995
   0.00732908  0.74164462  0.99684199
   0.25451707  0.74308009  0.00149062
   0.49173437  0.75662090  0.00010826
   0.75421155  0.74857233  0.00314025
   0.99462201  0.00116444  0.25383777
   0.25247619  0.98796142  0.25188948
   0.49917234  0.00567735  0.25406322
   0.74260705  0.99499298  0.26131353
   0.99793054  0.24926871  0.24831445
   0.24449732  0.24039054  0.25597286
   0.50135394  0.24844588  0.25727785
   0.74904793  0.23938789  0.25987397
   0.99849621  0.49480605  0.23916241
   0.25632166  0.49521607  0.24912366
   0.49500360  0.50442239  0.25895349
   0.75104328  0.49387036  0.24400616
   0.99109488  0.74548587  0.25231380
   0.24964461  0.74863385  0.25249366
   0.49499397  0.74334935  0.24895703
   0.75253821  0.74368975  0.25183656
   0.00019039  0.00043315  0.50725434
   0.24739447  0.99979889  0.49489569
   0.50117380  0.00187560  0.49496104
   0.74752393  0.00049893  0.49549188
   0.00605452  0.24900632  0.50036489
   0.24585502  0.24510277  0.50507722
   0.49864185  0.25002142  0.50791840
   0.74774415  0.25588988  0.51259488
   0.99818643  0.50031344  0.50117342
   0.25197316  0.50347845  0.49982972
   0.49350568  0.48705190  0.50825997
   0.75544532  0.49844771  0.50027468
   0.99528120  0.74165810  0.50894273
   0.25117056  0.73726249  0.49892098
   0.49896817  0.74109368  0.49088789
   0.74238708  0.73775223  0.51103056
   0.99974237  0.00771528  0.73854309
   0.24476428  0.00973900  0.75189010
   0.48467922  0.00559260  0.75539349
   0.75763544  0.99983507  0.74727122
   0.99883736  0.25047757  0.75092733
   0.25356736  0.26029020  0.74198631
   0.49752194  0.25892780  0.74154477
   0.75382433  0.25012061  0.75143470
   0.98004305  0.50157791  0.75642758
   0.25950725  0.49825187  0.74698973
   0.48477708  0.50239240  0.75391361
   0.74742421  0.50609163  0.74615939
   0.00363048  0.75521176  0.75087534
   0.24510706  0.75151073  0.75805367
   0.48834632  0.75921457  0.75472083
   0.74933350  0.75624796  0.74614450
   0.07321595  0.06286686  0.04908260
   0.31685264  0.06450934  0.05581257
   0.56282156  0.06510350  0.06396605
   0.80982284  0.04964262  0.07074454
   0.06471465  0.30272899  0.05986646
   0.30377188  0.30726939  0.07758454
   0.56305640  0.31694160  0.05836696
   0.80855767  0.31931603  0.06597354
   0.06214898  0.55765403  0.05395575
   0.32334855  0.56104976  0.05304966
   0.56259272  0.55780582  0.06879918
   0.82236392  0.55846574  0.05541197
   0.05078346  0.82359669  0.05427234
   0.31286312  0.80834105  0.06012956
   0.55840481  0.81642057  0.05245663
   0.82660779  0.82042224  0.04241236
   0.06273305  0.06545662  0.32206737
   0.29445972  0.05742452  0.31371881
   0.57720323  0.05538622  0.30528024
   0.80177642  0.06246354  0.31442914
   0.06932221  0.31303870  0.30911796
   0.30606815  0.30969880  0.31346833
   0.55481944  0.32315917  0.31348656
   0.81938988  0.31486210  0.30330022
   0.06052942  0.55564711  0.31664815
   0.30975056  0.56419340  0.30937873
   0.55665031  0.55890746  0.32660078
   0.81958506  0.55349047  0.31061497
   0.06083409  0.81636294  0.30633041
   0.32003365  0.80047748  0.30580735
   0.57907683  0.80036083  0.30140682
   0.81614712  0.80237141  0.32679260
   0.06651544  0.06563183  0.55855999
   0.31767631  0.05922527  0.56176034
   0.56349462  0.05839839  0.56122020
   0.80536499  0.05445747  0.56037571
   0.05829203  0.30906806  0.56657545
   0.31167682  0.30522861  0.55893733
   0.56040192  0.30512519  0.56834270
   0.81450782  0.32345346  0.55765541
   0.04226410  0.56960110  0.56464535
   0.31366281  0.55987895  0.56013598
   0.57084172  0.55720757  0.56450457
   0.81038446  0.56085027  0.56552961
   0.06135286  0.81154817  0.56930903
   0.30327095  0.81160980  0.57768786
   0.56064167  0.82069434  0.55336136
   0.80017144  0.81920364  0.56552421
   0.04396179  0.06610960  0.81402905
   0.31034487  0.06484385  0.81274058
   0.54985239  0.07932024  0.80065652
   0.80511622  0.06857358  0.81045374
   0.06660339  0.31203542  0.81269099
   0.31521661  0.31141130  0.80886679
   0.56303625  0.30378043  0.80791243
   0.81375158  0.31015543  0.80980326
   0.05913218  0.56806713  0.81035406
   0.31027609  0.57456026  0.80756192
   0.55921564  0.57137981  0.81345531
   0.79522425  0.57169126  0.82097445
   0.06214121  0.81608869  0.81339665
   0.31095974  0.81900118  0.81183294
   0.55593917  0.81873664  0.82208702
   0.80437695  0.81768878  0.80509486
 
 position of ions in cartesian coordinates  (Angst):
   0.06491243 10.86628917 10.91536241
  11.09416150 13.68881046  2.91184093
  21.78485006 16.43446394 16.35230812
  10.94897799  8.32180389 19.08616583
  13.60937661 10.96808328  2.78778219
  13.64531553 13.63429476  5.56849683
  13.71705468 16.34798617  8.21347932
   2.86276194  8.27288405 11.07053712
  16.39500171 21.86121746 16.38601091
   5.57523734  2.85103996  8.15113350
   5.45219469  5.59891290 10.96088656
  16.41601011 19.03493829 13.59750061
  19.01440817 10.98295407  8.19177529
   8.14361822  2.80004146 10.91105295
   8.27659938  5.37944699 13.65367823
   8.22173132  8.28340940 16.43644876
   2.78904417 13.65482120 10.89124866
  13.56066307  5.51641569 13.56708008
   2.84086929  8.23838875  5.52170953
  13.74064359 10.98021443 19.00471141
   5.44223312 13.63059733 13.64103437
   5.42889210  5.47380929  5.30338025
   5.53126922  8.29740902  8.20081082
   5.46059358 11.03491547 10.81085244
   8.02765793 13.53668532 16.33274517
   8.14109200  5.52822409  8.21981886
   8.34929667  8.24628022 10.93105549
   8.07040162 10.88318775 13.61603588
  10.91326790 13.59957565 18.99356319
  10.94966557  5.49205378 10.91850462
  10.85318602  8.13684029 13.54417408
  10.88840353 10.98518201 16.36474449
   5.55274744  5.55009228  0.00681983
  16.34797334  8.11867513 13.64096986
   5.43406813 10.89505907  5.50201915
   5.42481693 13.59527872  8.18137563
   8.19612294  5.53887802  2.78968544
   8.20496894  8.21319654  5.36976922
   8.28984073 11.00908534  8.18838007
   8.40517422 13.78474847 10.97708024
  10.95359593 16.39899894 16.38959310
  10.97351632  8.22271902  8.26262640
  10.88605808 10.95664518 10.72468543
  10.92336013 13.73422873 13.71424652
  13.67823855 16.45219907 18.99748467
  13.52055118  8.20400146 10.81082208
  13.47459356 10.82638600 13.56297021
  13.65835411 13.70904693 16.18877752
   8.16207684 19.01220815 11.01890048
   8.33019165 10.90074151  2.78358725
   8.32315877 13.56308902  5.36226648
  19.10868447 16.45966628 19.22204142
  10.95269951 19.13776027 13.66417427
  10.96223267 10.88870277  5.62023166
  10.94250237 13.55208609  8.27354324
  10.95434468 16.46352037 10.98048089
  13.75922586 18.99235874 16.20498293
  13.61962291 11.00839329  8.28786431
  13.74063802 13.54797341 10.79700202
  13.69628723 16.33582224 13.71012107
  16.47257728  8.25228197  8.29971085
  16.51060964 10.97190370 10.90034140
  16.55841669 13.59584024 13.64498973
  16.43216758 16.35654183 16.46704672
   1.22442864  1.33762009  1.48838316
   1.31600084  4.07596375  4.17108324
   1.41167670  6.85538518  6.86782591
   1.31671458  9.63105930  9.40026056
   3.96582753  1.36258526  4.01885378
   4.20927581  4.17102240  6.68316231
   4.10487499  6.79671474  9.62483182
   4.21404056  9.56503961 12.33593099
   6.68938025  1.26987621  6.77899232
   6.71661028  4.11679290  9.67295944
   6.85338805  6.90574395 12.25417272
   6.71418530  9.60052775 15.10259471
   9.60154657  1.14903035  9.56338746
   9.49875291  4.07954544 12.26298414
   9.50319980  6.68119535 15.03692388
   9.43710991  9.50476335 18.01411698
   4.23847920  4.20869061  1.40205328
   4.05931847  6.65185158  3.84867541
   3.94472942  9.65201619  6.91884181
   4.12220108 12.20831271  9.45248084
   6.80473500  4.13912644  4.18200892
   6.81578684  6.77607716  6.73484864
   6.96320673  9.49695238  9.60274495
   6.76104760 12.27923627 12.40569249
   9.54058431  4.12531696  6.73932837
   9.55454985  6.77162357  9.55861666
   9.68509911  9.66041194 12.20122759
   9.45100955 12.36137490 15.01778527
  12.27927177  4.01580069  9.59419664
  12.09980630  6.84503180 12.25540413
  12.05040041  9.63014345 15.08736995
  12.35004355 12.50071312 17.70227717
   6.82699425  6.83665860  1.44533879
   6.79192687  9.61869221  4.12229838
   6.77697533 12.30138136  6.80185143
   6.72463556 14.93756168  9.40416507
   9.57720524  6.83438410  4.01793980
   9.45167124  9.52219742  6.74730056
   9.55340976 12.34545656  9.46655880
   9.63698180 15.00780716 12.44626226
  12.40563191  6.63797112  6.69217386
  12.24997696  9.55702889  9.55421769
  12.26853997 12.41766122 12.33785147
  12.31959265 15.04883134 14.99765182
  15.10289594  6.89775954  9.54720980
  15.19521206  9.63534046 12.19382277
  15.02850571 12.18422286 15.10813283
  15.14523061 14.93706899 17.71164563
   9.62637014  9.38413217  1.20388754
   9.59843376 12.28356024  4.10356424
   9.62459946 14.77096660  6.88147093
   9.61421507 17.67002779  9.55583688
  12.30150803  9.61713596  4.14129898
  12.25285526 12.29447517  6.85363854
  12.15895581 14.99452326  9.48066328
  12.24936196 17.75736110 12.29254607
  15.07625251  9.50986115  6.85988806
  15.11673148 12.22616730  9.67775047
  15.14640381 15.01336018 12.36569971
  15.23204958 17.67690457 14.95041107
  17.82222496  9.57604970  9.60549349
  17.83697692 12.28035812 12.35875958
  17.94623598 15.07193230 15.03528808
  17.74892617 17.60333019 17.74107416
 


--------------------------------------------------------------------------------------------------------


 k-point  1 :   0.0000 0.0000 0.0000  plane waves:   66299
 k-point  2 :   0.5000 0.0000 0.0000  plane waves:   66394
 k-point  3 :   0.0000 0.5000 0.0000  plane waves:   66394
 k-point  4 :   0.5000 0.5000 0.0000  plane waves:   66552
 k-point  5 :   0.0000 0.0000 0.5000  plane waves:   66394
 k-point  6 :   0.5000 0.0000 0.5000  plane waves:   66552
 k-point  7 :   0.0000 0.5000 0.5000  plane waves:   66552
 k-point  8 :   0.5000 0.5000 0.5000  plane waves:   66394

 maximum and minimum number of plane-waves per node :      4207     4110

 maximum number of plane-waves:     66552
 maximum index in each direction: 
   IXMAX=   28   IYMAX=   28   IZMAX=   28
   IXMIN=  -28   IYMIN=  -28   IZMIN=  -28


 parallel 3D FFT for wavefunctions:
    minimum data exchange during FFTs selected (reduces bandwidth)
 parallel 3D FFT for charge:
    minimum data exchange during FFTs selected (reduces bandwidth)


 total amount of memory used by VASP MPI-rank0   221701. kBytes
=======================================================================

   base      :      30000. kBytes
   nonl-proj :      10690. kBytes
   fftplans  :      66746. kBytes
   grid      :      26864. kBytes
   one-center:         24. kBytes
   wavefun   :      87377. kBytes
 
     INWAV:  cpu time    0.0001: real time    0.0002
 Broyden mixing: mesh for mixing (old mesh)
   NGX = 57   NGY = 57   NGZ = 57
  (NGX  =240   NGY  =240   NGZ  =240)
  gives a total of 185193 points

 initial charge density was supplied:
 charge density of overlapping atoms calculated
 number of electron     512.0000000 magnetization 
 keeping initial charge density in first step


--------------------------------------------------------------------------------------------------------


 Maximum index for augmentation-charges         5609 (set IRDMAX)


--------------------------------------------------------------------------------------------------------


 First call to EWALD:  gamma=   0.129
 Maximum number of real-space cells 3x 3x 3
 Maximum number of reciprocal cells 3x 3x 3

    FEWALD:  cpu time    0.0059: real time    0.0059


--------------------------------------- Iteration      1(   1)  ---------------------------------------


    POTLOK:  cpu time    0.4874: real time    0.4959
    SETDIJ:  cpu time    0.5149: real time    0.5150
     EDDAV:  cpu time   69.8363: real time   69.8505
       DOS:  cpu time    0.0028: real time    0.0028
    --------------------------------------------
      LOOP:  cpu time   70.8415: real time   70.8642

 eigenvalue-minimisations  :  5152
 total energy-change (2. order) : 0.1382812E+04  (-0.1908191E+05)
 number of electron     512.0000000 magnetization 
 augmentation part      512.0000000 magnetization 

 Free energy of the ion-electron system (eV)
  ---------------------------------------------------
  alpha Z        PSCENC =       210.77028614
  Ewald energy   TEWEN  =    -14470.79212086
  -Hartree energ DENC   =      -757.75117621
  -exchange      EXHF   =         0.00000000
  -V(xc)+E(xc)   XCENC  =     -1195.34230227
  PAW double counting   =      4221.13331941    -1969.18571412
  entropy T*S    EENTRO =        -0.00244627
  eigenvalues    EBANDS =      2151.50128884
  atomic energy  EATOM  =     13192.48085998
  Solvation  Ediel_sol  =         0.00000000
  ---------------------------------------------------
  free energy    TOTEN  =      1382.81199464 eV

  energy without entropy =     1382.81444091  energy(sigma->0) =     1382.81321777


--------------------------------------------------------------------------------------------------------




--------------------------------------- Iteration      1(   2)  ---------------------------------------


     EDDAV:  cpu time   79.6315: real time   79.6570
       DOS:  cpu time    0.0012: real time    0.0012
    --------------------------------------------
      LOOP:  cpu time   79.6327: real time   79.6581

 eigenvalue-minimisations  :  6120
 total energy-change (2. order) :-0.1920611E+04  (-0.1826187E+04)
 number of electron     512.0000000 magnetization 
 augmentation part      512.0000000 magnetization 

 Free energy of the ion-electron system (eV)
  ---------------------------------------------------
  alpha Z        PSCENC =       210.77028614
  Ewald energy   TEWEN  =    -14470.79212086
  -Hartree energ DENC   =      -757.75117621
  -exchange      EXHF   =         0.00000000
  -V(xc)+E(xc)   XCENC  =     -1195.34230227
  PAW double counting   =      4221.13331941    -1969.18571412
  entropy T*S    EENTRO =        -0.00000000
  eigenvalues    EBANDS =       230.88815137
  atomic energy  EATOM  =     13192.48085998
  Solvation  Ediel_sol  =         0.00000000
  ---------------------------------------------------
  free energy    TOTEN  =      -537.79869655 eV

  energy without entropy =     -537.79869655  energy(sigma->0) =     -537.79869655


--------------------------------------------------------------------------------------------------------




--------------------------------------- Iteration      1(   3)  ---------------------------------------


     EDDAV:  cpu time   81.5472: real time   81.5769
       DOS:  cpu time    0.0010: real time    0.0010
    --------------------------------------------
      LOOP:  cpu time   81.5482: real time   81.5779

 eigenvalue-minimisations  :  6304
 total energy-change (2. order) :-0.1494488E+03  (-0.1465290E+03)
 number of electron     512.0000000 magnetization 
 augmentation part      512.0000000 magnetization 

 Free energy of the ion-electron system (eV)
  ---------------------------------------------------
  alpha Z        PSCENC =       210.77028614
  Ewald energy   TEWEN  =    -14470.79212086
  -Hartree energ DENC   =      -757.75117621
  -exchange      EXHF   =         0.00000000
  -V(xc)+E(xc)   XCENC  =     -1195.34230227
  PAW double counting   =      4221.13331941    -1969.18571412
  entropy T*S    EENTRO =        -0.00000000
  eigenvalues    EBANDS =        81.43934069
  atomic energy  EATOM  =     13192.48085998
  Solvation  Ediel_sol  =         0.00000000
  ---------------------------------------------------
  free energy    TOTEN  =      -687.24750723 eV

  energy without entropy =     -687.24750723  energy(sigma->0) =     -687.24750723


--------------------------------------------------------------------------------------------------------




--------------------------------------- Iteration      1(   4)  ---------------------------------------


     EDDAV:  cpu time   80.3814: real time   80.4116
       DOS:  cpu time    0.0010: real time    0.0010
    --------------------------------------------
      LOOP:  cpu time   80.3824: real time   80.4127

 eigenvalue-minimisations  :  6184
 total energy-change (2. order) :-0.4159466E+01  (-0.4125369E+01)
 number of electron     512.0000000 magnetization 
 augmentation part      512.0000000 magnetization 

 Free energy of the ion-electron system (eV)
  ---------------------------------------------------
  alpha Z        PSCENC =       210.77028614
  Ewald energy   TEWEN  =    -14470.79212086
  -Hartree energ DENC   =      -757.75117621
  -exchange      EXHF   =         0.00000000
  -V(xc)+E(xc)   XCENC  =     -1195.34230227
  PAW double counting   =      4221.13331941    -1969.18571412
  entropy T*S    EENTRO =        -0.00000000
  eigenvalues    EBANDS =        77.27987421
  atomic energy  EATOM  =     13192.48085998
  Solvation  Ediel_sol  =         0.00000000
  ---------------------------------------------------
  free energy    TOTEN  =      -691.40697372 eV

  energy without entropy =     -691.40697372  energy(sigma->0) =     -691.40697372


--------------------------------------------------------------------------------------------------------




--------------------------------------- Iteration      1(   5)  ---------------------------------------


     EDDAV:  cpu time   81.5507: real time   81.5827
       DOS:  cpu time    0.0010: real time    0.0010
    CHARGE:  cpu time    3.1958: real time    3.1963
    MIXING:  cpu time    0.0353: real time    0.0353
    --------------------------------------------
      LOOP:  cpu time   84.7829: real time   84.8155

 eigenvalue-minimisations  :  6312
 total energy-change (2. order) :-0.1471165E+00  (-0.1466861E+00)
 number of electron     511.9999998 magnetization 
 augmentation part      -30.1738545 magnetization 

 Broyden mixing:
  rms(total) = 0.23961E+01    rms(broyden)= 0.23961E+01
  rms(prec ) = 0.29052E+01
  weight for this iteration     100.00

 Free energy of the ion-electron system (eV)
  ---------------------------------------------------
  alpha Z        PSCENC =       210.77028614
  Ewald energy   TEWEN  =    -14470.79212086
  -Hartree energ DENC   =      -757.75117621
  -exchange      EXHF   =         0.00000000
  -V(xc)+E(xc)   XCENC  =     -1195.34230227
  PAW double counting   =      4221.13331941    -1969.18571412
  entropy T*S    EENTRO =        -0.00000000
  eigenvalues    EBANDS =        77.13275774
  atomic energy  EATOM  =     13192.48085998
  Solvation  Ediel_sol  =         0.00000000
  ---------------------------------------------------
  free energy    TOTEN  =      -691.55409019 eV

  energy without entropy =     -691.55409019  energy(sigma->0) =     -691.55409019


--------------------------------------------------------------------------------------------------------




--------------------------------------- Iteration      1(   6)  ---------------------------------------


    POTLOK:  cpu time    0.4906: real time    0.4914
    SETDIJ:  cpu time    0.5101: real time    0.5101
     EDDAV:  cpu time   77.3308: real time   77.3483
       DOS:  cpu time    0.0010: real time    0.0010
    CHARGE:  cpu time    3.1861: real time    3.1897
    MIXING:  cpu time    0.0485: real time    0.0485
    --------------------------------------------
      LOOP:  cpu time   81.5670: real time   81.5890

 eigenvalue-minimisations  :  5904
 total energy-change (2. order) : 0.8451931E+01  (-0.5873610E+00)
 number of electron     511.9999998 magnetization 
 augmentation part      -29.8363808 magnetization 

 Broyden mixing:
  rms(total) = 0.14240E+01    rms(broyden)= 0.14240E+01
  rms(prec ) = 0.17163E+01
  weight for this iteration     100.00

 eigenvalues of (default mixing * dielectric matrix)
  average eigenvalue GAMMA=   2.4313
  2.4313

 Free energy of the ion-electron system (eV)
  ---------------------------------------------------
  alpha Z        PSCENC =       210.77028614
  Ewald energy   TEWEN  =    -14470.79212086
  -Hartree energ DENC   =      -853.05157280
  -exchange      EXHF   =         0.00000000
  -V(xc)+E(xc)   XCENC  =     -1180.69892797
  PAW double counting   =      4465.48369855    -2220.29827713
  entropy T*S    EENTRO =        -0.00000000
  eigenvalues    EBANDS =       173.00389474
  atomic energy  EATOM  =     13192.48085998
  Solvation  Ediel_sol  =         0.00000000
  ---------------------------------------------------
  free energy    TOTEN  =      -683.10215935 eV

  energy without entropy =     -683.10215935  energy(sigma->0) =     -683.10215935


--------------------------------------------------------------------------------------------------------




--------------------------------------- Iteration      1(   7)  ---------------------------------------


    POTLOK:  cpu time    0.4789: real time    0.4932
    SETDIJ:  cpu time    0.5081: real time    0.5088
     EDDAV:  cpu time   77.2996: real time   77.3210
       DOS:  cpu time    0.0012: real time    0.0012
    CHARGE:  cpu time    3.1922: real time    3.1927
    MIXING:  cpu time    0.0511: real time    0.0511
    --------------------------------------------
      LOOP:  cpu time   81.5312: real time   81.5680

 eigenvalue-minimisations  :  5896
 total energy-change (2. order) : 0.3514812E+01  (-0.1132239E+01)
 number of electron     511.9999998 magnetization 
 augmentation part      -29.3823790 magnetization 

 Broyden mixing:
  rms(total) = 0.15693E+00    rms(broyden)= 0.15693E+00
  rms(prec ) = 0.20589E+00
  weight for this iteration     100.00

 eigenvalues of (default mixing * dielectric matrix)
  average eigenvalue GAMMA=   2.0904
  2.0904  2.0904

 Free energy of the ion-electron system (eV)
  ---------------------------------------------------
  alpha Z        PSCENC =       210.77028614
  Ewald energy   TEWEN  =    -14470.79212086
  -Hartree energ DENC   =     -1003.39513801
  -exchange      EXHF   =         0.00000000
  -V(xc)+E(xc)   XCENC  =     -1156.80748171
  PAW double counting   =      4784.72155376    -2548.05244330
  entropy T*S    EENTRO =        -0.00000000
  eigenvalues    EBANDS =       311.48713682
  atomic energy  EATOM  =     13192.48085998
  Solvation  Ediel_sol  =         0.00000000
  ---------------------------------------------------
  free energy    TOTEN  =      -679.58734718 eV

  energy without entropy =     -679.58734718  energy(sigma->0) =     -679.58734718


--------------------------------------------------------------------------------------------------------




--------------------------------------- Iteration      1(   8)  ---------------------------------------


    POTLOK:  cpu time    0.4914: real time    0.4925
    SETDIJ:  cpu time    0.5085: real time    0.5085
     EDDAV:  cpu time   76.3991: real time   76.4212
       DOS:  cpu time    0.0011: real time    0.0011
    CHARGE:  cpu time    3.2056: real time    3.2059
    MIXING:  cpu time    0.0499: real time    0.0499
    --------------------------------------------
      LOOP:  cpu time   80.6555: real time   80.6791

 eigenvalue-minimisations  :  5808
 total energy-change (2. order) :-0.5272584E-01  (-0.1088951E+00)
 number of electron     511.9999998 magnetization 
 augmentation part      -29.4499196 magnetization 

 Broyden mixing:
  rms(total) = 0.63696E-01    rms(broyden)= 0.63696E-01
  rms(prec ) = 0.79000E-01
  weight for this iteration     100.00

 eigenvalues of (default mixing * dielectric matrix)
  average eigenvalue GAMMA=   2.0048
  2.6792  1.6677  1.6677

 Free energy of the ion-electron system (eV)
  ---------------------------------------------------
  alpha Z        PSCENC =       210.77028614
  Ewald energy   TEWEN  =    -14470.79212086
  -Hartree energ DENC   =      -996.98494754
  -exchange      EXHF   =         0.00000000
  -V(xc)+E(xc)   XCENC  =     -1156.89605994
  PAW double counting   =      4737.98450582    -2499.85935008
  entropy T*S    EENTRO =        -0.00000000
  eigenvalues    EBANDS =       303.65675346
  atomic energy  EATOM  =     13192.48085998
  Solvation  Ediel_sol  =         0.00000000
  ---------------------------------------------------
  free energy    TOTEN  =      -679.64007302 eV

  energy without entropy =     -679.64007302  energy(sigma->0) =     -679.64007302


--------------------------------------------------------------------------------------------------------




--------------------------------------- Iteration      1(   9)  ---------------------------------------


    POTLOK:  cpu time    0.4869: real time    0.4899
    SETDIJ:  cpu time    0.5102: real time    0.5103
     EDDAV:  cpu time   78.6444: real time   78.6666
       DOS:  cpu time    0.0011: real time    0.0011
    CHARGE:  cpu time    3.2094: real time    3.2099
    MIXING:  cpu time    0.0466: real time    0.0466
    --------------------------------------------
      LOOP:  cpu time   82.8985: real time   82.9245

 eigenvalue-minimisations  :  6032
 total energy-change (2. order) :-0.2297090E-01  (-0.1137942E-01)
 number of electron     511.9999998 magnetization 
 augmentation part      -29.4555809 magnetization 

 Broyden mixing:
  rms(total) = 0.29127E-01    rms(broyden)= 0.29127E-01
  rms(prec ) = 0.33850E-01
  weight for this iteration     100.00

 eigenvalues of (default mixing * dielectric matrix)
  average eigenvalue GAMMA=   1.7753
  2.5965  1.8148  1.8148  0.8752

 Free energy of the ion-electron system (eV)
  ---------------------------------------------------
  alpha Z        PSCENC =       210.77028614
  Ewald energy   TEWEN  =    -14470.79212086
  -Hartree energ DENC   =     -1003.76157646
  -exchange      EXHF   =         0.00000000
  -V(xc)+E(xc)   XCENC  =     -1155.70805268
  PAW double counting   =      4740.96374680    -2502.91804803
  entropy T*S    EENTRO =        -0.00000000
  eigenvalues    EBANDS =       309.30186119
  atomic energy  EATOM  =     13192.48085998
  Solvation  Ediel_sol  =         0.00000000
  ---------------------------------------------------
  free energy    TOTEN  =      -679.66304393 eV

  energy without entropy =     -679.66304393  energy(sigma->0) =     -679.66304393


--------------------------------------------------------------------------------------------------------




--------------------------------------- Iteration      1(  10)  ---------------------------------------


    POTLOK:  cpu time    0.4920: real time    0.4943
    SETDIJ:  cpu time    0.5094: real time    0.5099
     EDDAV:  cpu time   78.5417: real time   78.5666
       DOS:  cpu time    0.0010: real time    0.0010
    CHARGE:  cpu time    3.2060: real time    3.2066
    MIXING:  cpu time    0.0443: real time    0.0443
    --------------------------------------------
      LOOP:  cpu time   82.7944: real time   82.8227

 eigenvalue-minimisations  :  6024
 total energy-change (2. order) :-0.2423598E-02  (-0.8748826E-03)
 number of electron     511.9999998 magnetization 
 augmentation part      -29.4654106 magnetization 

 Broyden mixing:
  rms(total) = 0.12101E-01    rms(broyden)= 0.12101E-01
  rms(prec ) = 0.14415E-01
  weight for this iteration     100.00

 eigenvalues of (default mixing * dielectric matrix)
  average eigenvalue GAMMA=   1.8657
  2.7051  2.7051  1.5068  1.5068  0.9046

 Free energy of the ion-electron system (eV)
  ---------------------------------------------------
  alpha Z        PSCENC =       210.77028614
  Ewald energy   TEWEN  =    -14470.79212086
  -Hartree energ DENC   =     -1002.59356520
  -exchange      EXHF   =         0.00000000
  -V(xc)+E(xc)   XCENC  =     -1155.88303200
  PAW double counting   =      4733.83826206    -2495.61431325
  entropy T*S    EENTRO =        -0.00000000
  eigenvalues    EBANDS =       308.12815560
  atomic energy  EATOM  =     13192.48085998
  Solvation  Ediel_sol  =         0.00000000
  ---------------------------------------------------
  free energy    TOTEN  =      -679.66546752 eV

  energy without entropy =     -679.66546752  energy(sigma->0) =     -679.66546752


--------------------------------------------------------------------------------------------------------




--------------------------------------- Iteration      1(  11)  ---------------------------------------


    POTLOK:  cpu time    0.4902: real time    0.4913
    SETDIJ:  cpu time    0.5075: real time    0.5077
     EDDAV:  cpu time   76.2024: real time   76.2216
       DOS:  cpu time    0.0010: real time    0.0010
    CHARGE:  cpu time    3.2179: real time    3.2182
    MIXING:  cpu time    0.0343: real time    0.0343
    --------------------------------------------
      LOOP:  cpu time   80.4533: real time   80.4741

 eigenvalue-minimisations  :  5784
 total energy-change (2. order) :-0.1655580E-02  (-0.2722528E-03)
 number of electron     511.9999998 magnetization 
 augmentation part      -29.4684555 magnetization 

 Broyden mixing:
  rms(total) = 0.40573E-02    rms(broyden)= 0.40573E-02
  rms(prec ) = 0.57001E-02
  weight for this iteration     100.00

 eigenvalues of (default mixing * dielectric matrix)
  average eigenvalue GAMMA=   1.7662
  2.8395  1.9655  1.9655  1.7424  1.2144  0.8697

 Free energy of the ion-electron system (eV)
  ---------------------------------------------------
  alpha Z        PSCENC =       210.77028614
  Ewald energy   TEWEN  =    -14470.79212086
  -Hartree energ DENC   =     -1002.44663088
  -exchange      EXHF   =         0.00000000
  -V(xc)+E(xc)   XCENC  =     -1155.90158851
  PAW double counting   =      4729.00296852    -2490.66667888
  entropy T*S    EENTRO =        -0.00000000
  eigenvalues    EBANDS =       307.88578139
  atomic energy  EATOM  =     13192.48085998
  Solvation  Ediel_sol  =         0.00000000
  ---------------------------------------------------
  free energy    TOTEN  =      -679.66712310 eV

  energy without entropy =     -679.66712310  energy(sigma->0) =     -679.66712310


--------------------------------------------------------------------------------------------------------




--------------------------------------- Iteration      1(  12)  ---------------------------------------


    POTLOK:  cpu time    0.4882: real time    0.4895
    SETDIJ:  cpu time    0.5067: real time    0.5067
     EDDAV:  cpu time   79.2582: real time   79.2841
       DOS:  cpu time    0.0010: real time    0.0010
    CHARGE:  cpu time    3.2136: real time    3.2154
    MIXING:  cpu time    0.0485: real time    0.0485
    --------------------------------------------
      LOOP:  cpu time   83.5161: real time   83.5452

 eigenvalue-minimisations  :  6080
 total energy-change (2. order) :-0.3976206E-04  (-0.4659733E-04)
 number of electron     511.9999998 magnetization 
 augmentation part      -29.4664520 magnetization 

 Broyden mixing:
  rms(total) = 0.18306E-02    rms(broyden)= 0.18306E-02
  rms(prec ) = 0.21888E-02
  weight for this iteration     100.00

 eigenvalues of (default mixing * dielectric matrix)
  average eigenvalue GAMMA=   1.8379
  3.1842  2.7051  1.7624  1.7624  0.8917  1.2798  1.2798

 Free energy of the ion-electron system (eV)
  ---------------------------------------------------
  alpha Z        PSCENC =       210.77028614
  Ewald energy   TEWEN  =    -14470.79212086
  -Hartree energ DENC   =     -1003.08214162
  -exchange      EXHF   =         0.00000000
  -V(xc)+E(xc)   XCENC  =     -1155.82955089
  PAW double counting   =      4730.43107229    -2492.14187655
  entropy T*S    EENTRO =        -0.00000000
  eigenvalues    EBANDS =       308.49630864
  atomic energy  EATOM  =     13192.48085998
  Solvation  Ediel_sol  =         0.00000000
  ---------------------------------------------------
  free energy    TOTEN  =      -679.66716287 eV

  energy without entropy =     -679.66716287  energy(sigma->0) =     -679.66716287


--------------------------------------------------------------------------------------------------------




--------------------------------------- Iteration      1(  13)  ---------------------------------------


    POTLOK:  cpu time    0.4856: real time    0.4883
    SETDIJ:  cpu time    0.5067: real time    0.5070
     EDDAV:  cpu time   76.1134: real time   76.1366
       DOS:  cpu time    0.0011: real time    0.0011
    CHARGE:  cpu time    3.2076: real time    3.2079
    MIXING:  cpu time    0.0514: real time    0.0513
    --------------------------------------------
      LOOP:  cpu time   80.3658: real time   80.3923

 eigenvalue-minimisations  :  5784
 total energy-change (2. order) :-0.3247190E-04  (-0.1238583E-04)
 number of electron     511.9999998 magnetization 
 augmentation part      -29.4663237 magnetization 

 Broyden mixing:
  rms(total) = 0.63502E-03    rms(broyden)= 0.63500E-03
  rms(prec ) = 0.82377E-03
  weight for this iteration     100.00

 eigenvalues of (default mixing * dielectric matrix)
  average eigenvalue GAMMA=   1.7768
  3.1562  2.5732  1.9276  1.9276  1.3798  1.3798  0.9349  0.9349

 Free energy of the ion-electron system (eV)
  ---------------------------------------------------
  alpha Z        PSCENC =       210.77028614
  Ewald energy   TEWEN  =    -14470.79212086
  -Hartree energ DENC   =     -1003.08552812
  -exchange      EXHF   =         0.00000000
  -V(xc)+E(xc)   XCENC  =     -1155.84044681
  PAW double counting   =      4729.86710513    -2491.56727663
  entropy T*S    EENTRO =        -0.00000000
  eigenvalues    EBANDS =       308.49992583
  atomic energy  EATOM  =     13192.48085998
  Solvation  Ediel_sol  =         0.00000000
  ---------------------------------------------------
  free energy    TOTEN  =      -679.66719534 eV

  energy without entropy =     -679.66719534  energy(sigma->0) =     -679.66719534


--------------------------------------------------------------------------------------------------------




--------------------------------------- Iteration      1(  14)  ---------------------------------------


    POTLOK:  cpu time    0.4864: real time    0.4888
    SETDIJ:  cpu time    0.5075: real time    0.5075
     EDDAV:  cpu time   78.9987: real time   79.0174
       DOS:  cpu time    0.0010: real time    0.0010
    CHARGE:  cpu time    3.2143: real time    3.2148
    MIXING:  cpu time    0.0537: real time    0.0537
    --------------------------------------------
      LOOP:  cpu time   83.2616: real time   83.2833

 eigenvalue-minimisations  :  6064
 total energy-change (2. order) :-0.2913874E-05  (-0.9785946E-06)
 number of electron     511.9999998 magnetization 
 augmentation part      -29.4662468 magnetization 

 Broyden mixing:
  rms(total) = 0.21267E-03    rms(broyden)= 0.21262E-03
  rms(prec ) = 0.28732E-03
  weight for this iteration     100.00

 eigenvalues of (default mixing * dielectric matrix)
  average eigenvalue GAMMA=   1.7697
  3.2114  2.6034  2.2126  1.6849  1.6849  1.2979  1.2979  1.0091  0.9255

 Free energy of the ion-electron system (eV)
  ---------------------------------------------------
  alpha Z        PSCENC =       210.77028614
  Ewald energy   TEWEN  =    -14470.79212086
  -Hartree energ DENC   =     -1003.12607825
  -exchange      EXHF   =         0.00000000
  -V(xc)+E(xc)   XCENC  =     -1155.83382933
  PAW double counting   =      4730.00253727    -2491.70519541
  entropy T*S    EENTRO =        -0.00000000
  eigenvalues    EBANDS =       308.53634220
  atomic energy  EATOM  =     13192.48085998
  Solvation  Ediel_sol  =         0.00000000
  ---------------------------------------------------
  free energy    TOTEN  =      -679.66719825 eV

  energy without entropy =     -679.66719825  energy(sigma->0) =     -679.66719825


--------------------------------------------------------------------------------------------------------




--------------------------------------- Iteration      1(  15)  ---------------------------------------


    POTLOK:  cpu time    0.4887: real time    0.4897
    SETDIJ:  cpu time    0.5046: real time    0.5046
     EDDAV:  cpu time   79.0633: real time   79.0867
       DOS:  cpu time    0.0010: real time    0.0010
    CHARGE:  cpu time    3.2253: real time    3.2259
    MIXING:  cpu time    0.0284: real time    0.0284
    --------------------------------------------
      LOOP:  cpu time   83.3114: real time   83.3364

 eigenvalue-minimisations  :  6072
 total energy-change (2. order) :-0.4477946E-05  (-0.2227593E-06)
 number of electron     511.9999998 magnetization 
 augmentation part      -29.4660861 magnetization 

 Broyden mixing:
  rms(total) = 0.67522E-04    rms(broyden)= 0.67359E-04
  rms(prec ) = 0.88514E-04
  weight for this iteration     100.00

 eigenvalues of (default mixing * dielectric matrix)
  average eigenvalue GAMMA=   1.7164
  3.2546  2.6125  2.1183  1.7236  1.7236  1.4160  1.4160  1.0712  0.9139  0.9139

 Free energy of the ion-electron system (eV)
  ---------------------------------------------------
  alpha Z        PSCENC =       210.77028614
  Ewald energy   TEWEN  =    -14470.79212086
  -Hartree energ DENC   =     -1003.15671412
  -exchange      EXHF   =         0.00000000
  -V(xc)+E(xc)   XCENC  =     -1155.83175657
  PAW double counting   =      4730.09518588    -2491.80066394
  entropy T*S    EENTRO =        -0.00000000
  eigenvalues    EBANDS =       308.56772076
  atomic energy  EATOM  =     13192.48085998
  Solvation  Ediel_sol  =         0.00000000
  ---------------------------------------------------
  free energy    TOTEN  =      -679.66720273 eV

  energy without entropy =     -679.66720273  energy(sigma->0) =     -679.66720273


--------------------------------------------------------------------------------------------------------




--------------------------------------- Iteration      1(  16)  ---------------------------------------


    POTLOK:  cpu time    0.4879: real time    0.4899
    SETDIJ:  cpu time    0.5105: real time    0.5106
     EDDAV:  cpu time   78.9309: real time   78.9465
       DOS:  cpu time    0.0010: real time    0.0010
    CHARGE:  cpu time    3.1673: real time    3.1677
    MIXING:  cpu time    0.0461: real time    0.0461
    --------------------------------------------
      LOOP:  cpu time   83.1438: real time   83.1617

 eigenvalue-minimisations  :  6048
 total energy-change (2. order) : 0.4545764E-06  (-0.2100981E-07)
 number of electron     511.9999998 magnetization 
 augmentation part      -29.4660859 magnetization 

 Broyden mixing:
  rms(total) = 0.35588E-04    rms(broyden)= 0.35279E-04
  rms(prec ) = 0.46895E-04
  weight for this iteration     100.00

 eigenvalues of (default mixing * dielectric matrix)
  average eigenvalue GAMMA=   1.7171
  3.2894  2.6296  2.0941  2.0941  1.4922  1.4922  1.4187  1.4187  0.9086  1.0255
  1.0255

 Free energy of the ion-electron system (eV)
  ---------------------------------------------------
  alpha Z        PSCENC =       210.77028614
  Ewald energy   TEWEN  =    -14470.79212086
  -Hartree energ DENC   =     -1003.15549609
  -exchange      EXHF   =         0.00000000
  -V(xc)+E(xc)   XCENC  =     -1155.83183701
  PAW double counting   =      4730.08804292    -2491.79314711
  entropy T*S    EENTRO =        -0.00000000
  eigenvalues    EBANDS =       308.56620975
  atomic energy  EATOM  =     13192.48085998
  Solvation  Ediel_sol  =         0.00000000
  ---------------------------------------------------
  free energy    TOTEN  =      -679.66720228 eV

  energy without entropy =     -679.66720228  energy(sigma->0) =     -679.66720228


--------------------------------------------------------------------------------------------------------




--------------------------------------- Iteration      1(  17)  ---------------------------------------


    POTLOK:  cpu time    0.4891: real time    0.4904
    SETDIJ:  cpu time    0.5063: real time    0.5065
     EDDAV:  cpu time   68.8458: real time   68.8560
       DOS:  cpu time    0.0017: real time    0.0017
    CHARGE:  cpu time    3.1850: real time    3.1858
    MIXING:  cpu time    0.0408: real time    0.0408
    --------------------------------------------
      LOOP:  cpu time   73.0687: real time   73.0813

 eigenvalue-minimisations  :  5040
 total energy-change (2. order) : 0.1758654E-06  (-0.4136115E-08)
 number of electron     511.9999998 magnetization 
 augmentation part      -29.4660919 magnetization 

 Broyden mixing:
  rms(total) = 0.15320E-04    rms(broyden)= 0.14590E-04
  rms(prec ) = 0.18286E-04
  weight for this iteration     100.00

 eigenvalues of (default mixing * dielectric matrix)
  average eigenvalue GAMMA=   1.6934
  3.2818  2.6132  2.2585  1.8612  1.7061  1.7061  1.4164  1.4164  0.9235  0.9883
  1.0748  1.0748

 Free energy of the ion-electron system (eV)
  ---------------------------------------------------
  alpha Z        PSCENC =       210.77028614
  Ewald energy   TEWEN  =    -14470.79212086
  -Hartree energ DENC   =     -1003.15435477
  -exchange      EXHF   =         0.00000000
  -V(xc)+E(xc)   XCENC  =     -1155.83186418
  PAW double counting   =      4730.08851988    -2491.79344624
  entropy T*S    EENTRO =        -0.00000000
  eigenvalues    EBANDS =       308.56491795
  atomic energy  EATOM  =     13192.48085998
  Solvation  Ediel_sol  =         0.00000000
  ---------------------------------------------------
  free energy    TOTEN  =      -679.66720210 eV

  energy without entropy =     -679.66720210  energy(sigma->0) =     -679.66720210


--------------------------------------------------------------------------------------------------------




--------------------------------------- Iteration      1(  18)  ---------------------------------------


    POTLOK:  cpu time    0.4874: real time    0.4905
    SETDIJ:  cpu time    0.5081: real time    0.5081
     EDDAV:  cpu time   51.6714: real time   51.6859
       DOS:  cpu time    0.0015: real time    0.0015
    CHARGE:  cpu time    3.1659: real time    3.1665
    MIXING:  cpu time    0.0464: real time    0.0464
    --------------------------------------------
      LOOP:  cpu time   55.8807: real time   55.8989

 eigenvalue-minimisations  :  3312
 total energy-change (2. order) :-0.1595454E-06  (-0.9460273E-09)
 number of electron     511.9999998 magnetization 
 augmentation part      -29.4660871 magnetization 

 Broyden mixing:
  rms(total) = 0.73578E-05    rms(broyden)= 0.56832E-05
  rms(prec ) = 0.74772E-05
  weight for this iteration     100.00
  WARNING: grid for Broyden might be to small

 eigenvalues of (default mixing * dielectric matrix)
  average eigenvalue GAMMA=   1.7188
  3.3025  2.7051  2.3913  2.3181  1.7857  1.7857  1.3120  1.3120  0.9198  1.0028
  1.0219  1.2438  1.2438

 Free energy of the ion-electron system (eV)
  ---------------------------------------------------
  alpha Z        PSCENC =       210.77028614
  Ewald energy   TEWEN  =    -14470.79212086
  -Hartree energ DENC   =     -1003.15534160
  -exchange      EXHF   =         0.00000000
  -V(xc)+E(xc)   XCENC  =     -1155.83175040
  PAW double counting   =      4730.09363028    -2491.79865479
  entropy T*S    EENTRO =        -0.00000000
  eigenvalues    EBANDS =       308.56588898
  atomic energy  EATOM  =     13192.48085998
  Solvation  Ediel_sol  =         0.00000000
  ---------------------------------------------------
  free energy    TOTEN  =      -679.66720226 eV

  energy without entropy =     -679.66720226  energy(sigma->0) =     -679.66720226


--------------------------------------------------------------------------------------------------------




--------------------------------------- Iteration      1(  19)  ---------------------------------------


    POTLOK:  cpu time    0.4879: real time    0.4909
    SETDIJ:  cpu time    0.5081: real time    0.5082
     EDDAV:  cpu time   50.8195: real time   50.8291
       DOS:  cpu time    0.0011: real time    0.0011
    CHARGE:  cpu time    3.1785: real time    3.1789
    MIXING:  cpu time    0.0382: real time    0.0382
    --------------------------------------------
      LOOP:  cpu time   55.0334: real time   55.0464

 eigenvalue-minimisations  :  3224
 total energy-change (2. order) : 0.3068635E-07  (-0.2195758E-09)
 number of electron     511.9999998 magnetization 
 augmentation part      -29.4660876 magnetization 

 Broyden mixing:
  rms(total) = 0.52758E-05    rms(broyden)= 0.24484E-05
  rms(prec ) = 0.32877E-05
  weight for this iteration     100.00
  WARNING: grid for Broyden might be to small

 eigenvalues of (default mixing * dielectric matrix)
  average eigenvalue GAMMA=   1.6849
  3.3235  2.7182  2.3207  2.2435  1.8117  1.8117  1.3849  1.3849  1.2907  1.2907
  0.9287  0.9287  1.0753  1.0753

 Free energy of the ion-electron system (eV)
  ---------------------------------------------------
  alpha Z        PSCENC =       210.77028614
  Ewald energy   TEWEN  =    -14470.79212086
  -Hartree energ DENC   =     -1003.15521511
  -exchange      EXHF   =         0.00000000
  -V(xc)+E(xc)   XCENC  =     -1155.83175802
  PAW double counting   =      4730.09364677    -2491.79864343
  entropy T*S    EENTRO =        -0.00000000
  eigenvalues    EBANDS =       308.56574230
  atomic energy  EATOM  =     13192.48085998
  Solvation  Ediel_sol  =         0.00000000
  ---------------------------------------------------
  free energy    TOTEN  =      -679.66720223 eV

  energy without entropy =     -679.66720223  energy(sigma->0) =     -679.66720223


--------------------------------------------------------------------------------------------------------




--------------------------------------- Iteration      1(  20)  ---------------------------------------


    POTLOK:  cpu time    0.4866: real time    0.4894
    SETDIJ:  cpu time    0.5107: real time    0.5109
     EDDAV:  cpu time   50.5248: real time   50.5322
       DOS:  cpu time    0.0010: real time    0.0010
    CHARGE:  cpu time    3.1620: real time    3.1625
    MIXING:  cpu time    0.0505: real time    0.0505
    --------------------------------------------
      LOOP:  cpu time   54.7354: real time   54.7464

 eigenvalue-minimisations  :  3192
 total energy-change (2. order) :-0.1224726E-07  (-0.3690142E-10)
 number of electron     511.9999998 magnetization 
 augmentation part      -29.4660871 magnetization 

 Broyden mixing:
  rms(total) = 0.48367E-05    rms(broyden)= 0.12469E-05
  rms(prec ) = 0.17601E-05
  weight for this iteration     100.00
  WARNING: grid for Broyden might be to small

 eigenvalues of (default mixing * dielectric matrix)
  average eigenvalue GAMMA=   1.7128
  3.2493  2.7364  2.5424  2.5424  1.8899  1.8899  1.6330  1.2444  1.2444  1.2924
  1.2924  1.2847  0.9123  0.9793  0.9583

 Free energy of the ion-electron system (eV)
  ---------------------------------------------------
  alpha Z        PSCENC =       210.77028614
  Ewald energy   TEWEN  =    -14470.79212086
  -Hartree energ DENC   =     -1003.15533844
  -exchange      EXHF   =         0.00000000
  -V(xc)+E(xc)   XCENC  =     -1155.83174350
  PAW double counting   =      4730.09392524    -2491.79893118
  entropy T*S    EENTRO =        -0.00000000
  eigenvalues    EBANDS =       308.56586038
  atomic energy  EATOM  =     13192.48085998
  Solvation  Ediel_sol  =         0.00000000
  ---------------------------------------------------
  free energy    TOTEN  =      -679.66720224 eV

  energy without entropy =     -679.66720224  energy(sigma->0) =     -679.66720224


--------------------------------------------------------------------------------------------------------




--------------------------------------- Iteration      1(  21)  ---------------------------------------


    POTLOK:  cpu time    0.4873: real time    0.4903
    SETDIJ:  cpu time    0.5056: real time    0.5057
     EDDAV:  cpu time   49.6918: real time   49.7044
       DOS:  cpu time    0.0010: real time    0.0010
    --------------------------------------------
      LOOP:  cpu time   50.6857: real time   50.7014

 eigenvalue-minimisations  :  3120
 total energy-change (2. order) : 0.5835318E-08  (-0.1343131E-10)
 number of electron     511.9999998 magnetization 
 augmentation part      -29.4660871 magnetization 

 Free energy of the ion-electron system (eV)
  ---------------------------------------------------
  alpha Z        PSCENC =       210.77028614
  Ewald energy   TEWEN  =    -14470.79212086
  -Hartree energ DENC   =     -1003.15523502
  -exchange      EXHF   =         0.00000000
  -V(xc)+E(xc)   XCENC  =     -1155.83175152
  PAW double counting   =      4730.09380789    -2491.79880997
  entropy T*S    EENTRO =        -0.00000000
  eigenvalues    EBANDS =       308.56576112
  atomic energy  EATOM  =     13192.48085998
  Solvation  Ediel_sol  =         0.00000000
  ---------------------------------------------------
  free energy    TOTEN  =      -679.66720223 eV

  energy without entropy =     -679.66720223  energy(sigma->0) =     -679.66720223


--------------------------------------------------------------------------------------------------------




 average (electrostatic) potential at core
  the test charge radii are     0.9892
  (the norm of the test charge is              1.0000)
       1 -83.6368       2 -83.5538       3 -83.5210       4 -83.6245       5 -83.4695
       6 -83.6533       7 -83.6086       8 -83.5240       9 -83.5254      10 -83.7130
      11 -83.4051      12 -83.5781      13 -83.5722      14 -83.4929      15 -83.3507
      16 -83.5475      17 -83.5882      18 -83.6185      19 -83.5364      20 -83.5118
      21 -83.5302      22 -83.6049      23 -83.5621      24 -83.5989      25 -83.5047
      26 -83.5645      27 -83.3697      28 -83.5225      29 -83.4493      30 -83.4437
      31 -83.4863      32 -83.5095      33 -83.5143      34 -83.6001      35 -83.4356
      36 -83.5781      37 -83.6380      38 -83.5203      39 -83.4643      40 -83.6822
      41 -83.5393      42 -83.4873      43 -83.4309      44 -83.5441      45 -83.3937
      46 -83.4232      47 -83.4283      48 -83.3849      49 -83.5345      50 -83.6032
      51 -83.3797      52 -83.5141      53 -83.4682      54 -83.5504      55 -83.3807
      56 -83.6194      57 -83.5068      58 -83.4870      59 -83.4340      60 -83.4564
      61 -83.3462      62 -83.4848      63 -83.3548      64 -83.5223      65 -83.6398
      66 -83.5340      67 -83.5424      68 -83.6031      69 -83.5854      70 -83.6666
      71 -83.4381      72 -83.5845      73 -83.6816      74 -83.5519      75 -83.4794
      76 -83.5626      77 -83.6126      78 -83.4697      79 -83.4801      80 -83.5598
      81 -83.5418      82 -83.6924      83 -83.4309      84 -83.5924      85 -83.5159
      86 -83.6331      87 -83.4728      88 -83.5100      89 -83.5406      90 -83.4405
      91 -83.4960      92 -83.5282      93 -83.4740      94 -83.5319      95 -83.4747
      96 -83.4577      97 -83.5270      98 -83.6307      99 -83.4544     100 -83.6365
     101 -83.5540     102 -83.5084     103 -83.4665     104 -83.5954     105 -83.4357
     106 -83.3494     107 -83.4617     108 -83.4455     109 -83.4291     110 -83.5637
     111 -83.3581     112 -83.4454     113 -83.5157     114 -83.4532     115 -83.4349
     116 -83.6363     117 -83.5580     118 -83.5768     119 -83.6116     120 -83.5055
     121 -83.4528     122 -83.5250     123 -83.3922     124 -83.5490     125 -83.4874
     126 -83.3891     127 -83.3728     128 -83.4080
 
 
 
 E-fermi :   5.8941     XC(G=0):  -9.3324     alpha+bet :-11.7321


 k-point     1 :       0.0000    0.0000    0.0000
  band No.  band energies     occupation 
      1      -6.2971      2.00000
      2      -5.6967      2.00000
      3      -5.6629      2.00000
      4      -5.6124      2.00000
      5      -5.5635      2.00000
      6      -5.5396      2.00000
      7      -5.4729      2.00000
      8      -5.4600      2.00000
      9      -5.3807      2.00000
     10      -5.3216      2.00000
     11      -5.2805      2.00000
     12      -5.2766      2.00000
     13      -5.1235      2.00000
     14      -5.0925      2.00000
     15      -5.0491      2.00000
     16      -4.5640      2.00000
     17      -4.4769      2.00000
     18      -4.4357      2.00000
     19      -4.4223      2.00000
     20      -4.3685      2.00000
     21      -4.3243      2.00000
     22      -4.2976      2.00000
     23      -4.2601      2.00000
     24      -4.2153      2.00000
     25      -4.1899      2.00000
     26      -4.1505      2.00000
     27      -4.1042      2.00000
     28      -4.0481      2.00000
     29      -4.0047      2.00000
     30      -3.9562      2.00000
     31      -3.8932      2.00000
     32      -3.8711      2.00000
     33      -3.8420      2.00000
     34      -3.7807      2.00000
     35      -3.7599      2.00000
     36      -3.7441      2.00000
     37      -3.7281      2.00000
     38      -3.7004      2.00000
     39      -3.6536      2.00000
     40      -3.6125      2.00000
     41      -3.6010      2.00000
     42      -3.5893      2.00000
     43      -3.5466      2.00000
     44      -3.5309      2.00000
     45      -3.5200      2.00000
[...]
   -.436E+01 0.807E+01 0.327E+01   0.451E+01 -.720E+01 -.289E+01   0.116E+01 -.219E+01 -.151E+01   -.141E-05 0.210E-06 0.188E-06
   -.143E+01 -.130E+02 -.232E+01   0.172E+01 0.124E+02 0.215E+01   -.866E+00 0.301E+01 -.230E+00   -.161E-06 -.205E-05 0.762E-06
   -.123E+02 0.981E+01 0.520E+01   0.112E+02 -.864E+01 -.555E+01   0.306E+01 -.149E+01 0.611E+00   -.120E-05 0.887E-06 0.611E-06
   0.187E-01 -.159E+02 -.461E+01   0.238E+00 0.145E+02 0.413E+01   -.476E+00 0.395E+01 -.561E-01   -.337E-06 -.169E-05 -.118E-05
   -.321E+01 -.326E+01 0.957E+01   0.297E+01 0.276E+01 -.903E+01   0.305E+00 0.195E+01 -.304E+01   0.146E-06 0.182E-06 0.268E-05
   0.793E+01 0.351E+01 0.628E+01   -.702E+01 -.338E+01 -.652E+01   -.223E+01 -.725E+00 -.558E+00   -.879E-06 0.302E-06 0.677E-06
   0.965E+01 -.112E+02 -.944E+01   -.965E+01 0.107E+02 0.810E+01   0.633E-01 0.267E+01 0.343E+01   0.530E-06 -.151E-05 -.157E-06
   -.629E+01 0.143E+02 0.457E+01   0.534E+01 -.133E+02 -.451E+01   0.438E+01 -.319E+01 -.176E+01   -.873E-06 0.195E-05 0.110E-05
   0.879E+01 -.394E+01 -.925E+01   -.833E+01 0.361E+01 0.909E+01   -.141E+01 0.141E+01 0.841E+00   -.104E-05 -.143E-05 -.151E-05
   -.441E+01 0.370E+01 0.555E+01   0.362E+01 -.363E+01 -.444E+01   0.121E+01 -.120E+01 -.278E+01   -.711E-06 0.353E-06 0.934E-06
   0.466E+01 -.205E+01 -.225E+01   -.408E+01 0.254E+01 0.264E+01   -.837E+00 0.672E+00 -.175E+00   -.954E-06 -.268E-06 -.419E-06
   0.419E+01 -.244E+01 -.698E-01   -.371E+01 0.189E+01 0.507E-01   -.895E+00 0.206E+01 -.427E+00   -.116E-05 0.111E-06 -.591E-07
   -.317E+01 -.506E+01 0.119E+02   0.302E+01 0.437E+01 -.108E+02   0.987E+00 0.128E+01 -.344E+01   0.126E-06 0.703E-07 -.270E-06
   0.633E+01 0.220E+01 -.613E+01   -.581E+01 -.217E+01 0.621E+01   -.145E+01 -.781E+00 0.460E+00   -.440E-06 -.270E-06 -.131E-05
   -.917E+00 0.590E+01 0.740E+01   0.110E+01 -.553E+01 -.706E+01   0.345E+00 0.464E+00 -.523E+00   0.304E-06 0.668E-06 0.124E-05
   0.695E+00 -.825E+01 -.127E+02   -.594E+00 0.731E+01 0.113E+02   -.125E+01 0.858E+00 0.210E+01   0.600E-07 -.640E-06 -.193E-05
   -.426E+01 0.671E+01 0.354E+01   0.358E+01 -.675E+01 -.258E+01   0.115E+01 -.102E+01 -.170E+01   0.137E-06 0.309E-05 -.292E-06
   0.516E+00 -.411E+00 0.159E+01   -.245E+00 -.176E+00 -.132E+01   -.962E-01 0.124E+01 -.144E+01   0.102E-05 -.799E-06 0.140E-05
   -.137E+02 -.426E+00 -.206E+01   0.122E+02 0.685E+00 0.182E+01   0.380E+01 0.581E-01 -.174E+00   -.473E-06 -.539E-06 -.104E-05
   -.631E+01 0.135E+02 -.595E+00   0.582E+01 -.121E+02 0.569E+00   0.268E+01 -.355E+01 -.130E+01   0.121E-05 0.414E-06 0.140E-05
   -.234E+00 0.605E+01 0.349E-02   -.421E+00 -.468E+01 0.420E-01   0.119E+01 -.318E+01 -.109E+01   0.233E-05 -.849E-06 0.831E-07
   0.137E+01 0.200E+01 0.712E-01   -.167E+01 -.141E+01 -.355E+00   0.427E+00 -.857E+00 0.785E-01   0.381E-06 0.344E-06 0.106E-06
   0.724E+01 0.722E+00 0.595E+01   -.665E+01 -.896E+00 -.501E+01   -.462E+00 -.568E+00 -.167E+01   0.862E-07 0.339E-07 0.620E-06
   -.177E+01 -.702E+00 0.212E+01   0.154E+01 0.156E+00 -.198E+01   0.136E+01 0.362E+00 -.363E+00   -.175E-05 -.599E-06 0.339E-06
   -.739E+00 0.153E+01 -.106E+02   0.920E+00 -.690E+00 0.974E+01   0.157E+01 0.653E+00 0.322E+01   0.997E-06 -.240E-06 -.371E-06
   -.456E+01 -.128E+01 -.786E+01   0.422E+01 0.161E+01 0.706E+01   0.101E+01 0.167E+00 0.185E+01   -.402E-06 -.877E-06 -.137E-05
   -.263E+00 0.989E+01 -.337E+01   0.604E+00 -.953E+01 0.309E+01   0.100E+01 -.199E+00 0.186E+01   0.105E-05 0.140E-05 0.336E-06
   0.126E+02 -.269E+01 -.113E+02   -.111E+02 0.228E+01 0.105E+02   -.197E+01 0.239E+00 0.244E+01   0.392E-05 0.195E-05 -.221E-05
   0.450E+01 -.550E+01 0.282E+01   -.382E+01 0.447E+01 -.265E+01   -.119E+01 0.317E+01 -.116E+01   0.163E-05 -.479E-06 0.334E-06
   0.591E+01 -.145E+02 -.502E+01   -.496E+01 0.128E+02 0.505E+01   -.179E+01 0.463E+01 0.453E-01   -.295E-06 0.389E-06 -.623E-06
   -.747E+01 0.665E+00 0.259E+01   0.730E+01 -.119E+01 -.238E+01   0.616E+00 0.140E+01 -.767E+00   -.165E-06 0.104E-05 -.722E-06
   -.780E+00 0.645E+00 0.117E+01   0.196E+01 -.109E+01 -.942E+00   -.113E+01 -.480E+00 -.165E+01   -.150E-05 0.193E-05 -.216E-06
   0.321E+01 -.175E+01 0.134E+00   -.242E+01 0.157E+01 -.269E+00   -.153E+01 0.771E+00 0.204E+00   -.111E-05 -.630E-06 -.144E-05
   0.826E+01 0.770E+01 -.228E+01   -.775E+01 -.647E+01 0.182E+01   -.176E+01 -.172E+01 0.528E+00   0.363E-06 0.145E-05 0.801E-06
   0.962E+01 0.292E+01 -.648E+01   -.913E+01 -.263E+01 0.608E+01   -.287E+01 -.145E+01 0.962E+00   0.109E-05 0.274E-07 -.188E-05
   0.245E+01 0.474E+01 0.131E+02   -.264E+01 -.494E+01 -.125E+02   -.208E+00 0.552E+00 -.268E+01   0.315E-06 0.503E-07 0.183E-05
   0.742E+01 0.141E+01 -.328E+01   -.751E+01 -.687E+00 0.321E+01   -.181E+01 -.278E+00 -.502E-01   -.217E-06 -.211E-05 -.225E-06
   0.652E-01 -.893E+01 -.403E+00   0.202E+00 0.772E+01 0.308E+00   -.271E+00 0.253E+01 0.153E+01   0.440E-07 -.806E-07 -.123E-05
   -.579E+01 0.737E+01 0.805E+01   0.493E+01 -.645E+01 -.733E+01   0.265E+01 -.189E+01 -.793E+00   0.101E-05 -.178E-06 0.639E-06
   0.309E+01 -.171E+02 -.132E+01   -.294E+01 0.159E+02 0.149E+01   -.897E+00 0.360E+01 -.642E+00   0.259E-05 -.270E-05 0.228E-05
   -.577E+01 -.448E+01 0.640E+01   0.548E+01 0.388E+01 -.583E+01   0.205E+00 0.226E+01 -.250E+00   0.349E-06 -.517E-06 0.118E-05
   0.370E+00 0.475E+01 -.341E+01   0.353E+00 -.423E+01 0.316E+01   -.653E+00 -.141E+01 0.336E+00   0.834E-06 0.238E-05 -.755E-06
   -.983E+01 0.248E+00 0.297E+01   0.956E+01 -.477E+00 -.210E+01   0.110E+01 0.195E+00 -.588E-01   -.220E-05 0.181E-05 0.172E-05
   -.851E+01 -.102E+02 -.577E+01   0.845E+01 0.958E+01 0.512E+01   0.205E+01 0.122E+01 0.189E+01   -.207E-05 -.183E-05 -.199E-05
   -.105E+02 -.103E+01 0.346E+01   0.989E+01 0.152E+01 -.338E+01   0.253E+01 0.192E+00 0.623E+00   -.551E-06 -.111E-05 -.368E-06
   0.101E+02 0.212E+01 0.203E+00   -.934E+01 -.212E+01 -.249E-02   -.167E+01 0.179E+00 -.376E+00   0.503E-07 0.115E-05 0.999E-06
   -.546E+01 -.351E+01 0.965E+01   0.427E+01 0.368E+01 -.836E+01   0.137E+01 0.446E+00 -.372E+01   0.429E-06 -.128E-05 -.929E-06
   0.542E+01 0.517E+01 0.498E+01   -.528E+01 -.494E+01 -.468E+01   -.763E+00 -.582E+00 -.121E+01   0.106E-06 0.104E-05 0.415E-06
   -.110E+01 0.235E+01 -.120E+01   0.268E+00 -.150E+01 0.104E+01   -.516E+00 -.138E+01 0.573E+00   -.159E-06 -.146E-06 -.176E-05
   -.531E+01 0.311E+01 -.384E+01   0.429E+01 -.263E+01 0.288E+01   0.132E+01 -.874E+00 0.131E+01   -.308E-06 0.697E-06 -.504E-07
   -.522E+01 0.638E+01 0.191E+01   0.464E+01 -.516E+01 -.142E+01   0.156E+01 -.161E+01 -.126E+01   0.260E-06 0.248E-06 -.330E-06
   0.888E+01 0.514E+00 -.465E+01   -.784E+01 -.463E+00 0.360E+01   -.235E+01 -.105E+01 0.149E+01   0.190E-06 -.181E-06 -.119E-05
   -.358E+01 -.905E+01 -.447E+00   0.373E+01 0.838E+01 0.200E+00   0.841E+00 0.337E+01 0.117E+01   0.613E-06 0.398E-06 0.994E-06
 -----------------------------------------------------------------------------------------------
   0.635E+00 -.484E+00 -.369E+00   0.122E-12 -.142E-13 -.151E-12   -.635E+00 0.484E+00 0.369E+00   0.617E-06 -.794E-06 -.913E-06
 
 
 POSITION                                       TOTAL-FORCE (eV/Angst)
 -----------------------------------------------------------------------------------
      0.06491     10.86629     10.91536        -0.346056     -0.130315      0.369906
     11.09416     13.68881      2.91184        -2.897164     -0.640260     -1.905091
     21.78485     16.43446     16.35231         1.126120     -1.190381      1.963823
     10.94898      8.32180     19.08617         0.050960     -2.539795      0.659985
     13.60938     10.96808      2.78778         0.025447     -1.200713     -1.295014
     13.64532     13.63429      5.56850         0.308284      0.478867     -0.875597
     13.71705     16.34799      8.21348        -0.441242      0.055888     -0.246812
      2.86276      8.27288     11.07054        -1.738188     -0.826414     -1.659480
     16.39500     21.86122     16.38601        -2.345532     -0.017986     -0.243986
      5.57524      2.85104      8.15113        -1.373073     -1.137221      0.070219
      5.45219      5.59891     10.96089         0.056576     -1.273661      0.746768
     16.41601     19.03494     13.59750         0.714992      1.361579      0.712027
     19.01441     10.98295      8.19178         0.338454     -0.385115      0.445718
      8.14362      2.80004     10.91105         0.665198     -1.656731     -0.138064
      8.27660      5.37945     13.65368        -1.163487      1.122744     -0.874757
      8.22173      8.28341     16.43645        -0.692784     -1.408752     -0.186067
      2.78904     13.65482     10.89125        -0.005771     -0.260432      0.940796
     13.56066      5.51642     13.56708        -0.952116     -1.697592     -0.448463
      2.84087      8.23839      5.52171        -1.432184     -0.767262     -1.521302
     13.74064     10.98021     19.00471        -3.140431      1.865537      1.452471
      5.44223     13.63060     13.64103        -0.242874      1.088301      1.179010
      5.42889      5.47381      5.30338         0.007478      0.953304      0.552174
      5.53127      8.29741      8.20081        -0.781995     -1.025215     -0.252601
      5.46059     11.03492     10.81085         1.238850     -1.596882      1.353098
      8.02766     13.53669     16.33275         0.805637      1.322409      1.135673
      8.14109      5.52822      8.21982        -0.062519     -1.285726     -0.343175
      8.34930      8.24628     10.93106        -0.427317     -0.673832      0.353566
      8.07040     10.88319     13.61604         1.260210     -0.303533      0.623365
     10.91327     13.59958     18.99356        -0.943098      0.863824      1.841742
     10.94967      5.49205     10.91850        -1.061625     -1.660574     -0.545681
     10.85319      8.13684     13.54417        -0.823676      0.928713      2.196010
     10.88840     10.98518     16.36474        -1.361368      1.027755      1.997728
      5.55275      5.55009      0.00682        -0.367638     -0.870463     -0.841694
     16.34797      8.11868     13.64097         0.295356      1.470107      0.104796
      5.43407     10.89506      5.50202        -0.266069     -0.120156      0.706125
      5.42482     13.59528      8.18138         0.004948     -0.425099     -0.806534
      8.19612      5.53888      2.78969        -0.247577     -1.511926     -0.328978
      8.20497      8.21320      5.36977        -0.715371     -0.770295     -0.031794
      8.28984     11.00909      8.18838        -1.739449     -1.100518     -0.801635
      8.40517     13.78475     10.97708        -2.397859     -1.131049     -0.611228
     10.95360     16.39900     16.38959        -0.757288     -0.454026     -0.921219
     10.97352      8.22272      8.26263        -0.832226     -1.246921     -1.957055
     10.88606     10.95665     10.72469         0.688673      0.979912      1.637198
     10.92336     13.73423     13.71425         0.316923     -1.184544      0.666984
     13.67824     16.45220     18.99748         1.612116     -1.994650      2.008589
     13.52055      8.20400     10.81082         1.777714     -0.463901      1.412496
     13.47459     10.82639     13.56297         1.424822      0.398921      0.800899
     13.65835     13.70905     16.18878         1.170297     -0.373108      1.652103
      8.16208     19.01221     11.01890         0.384844      0.238532     -1.610556
      8.33019     10.90074      2.78359        -0.526126     -0.745328     -1.284750
      8.32316     13.56309      5.36227        -1.696692      0.837096      1.469467
     19.10868     16.45967     19.22204         0.116454     -2.145366     -1.337040
     10.95270     19.13776     13.66417         0.170911      0.211697     -0.000770
     10.96223     10.88870      5.62023        -0.771190     -0.136198     -1.395388
     10.94250     13.55209      8.27354         0.530395      0.499480     -1.243261
     10.95434     16.46352     10.98048        -0.375543     -1.642044     -0.283905
     13.75923     18.99236     16.20498        -0.106130      0.799194      1.193535
     13.61962     11.00839      8.28786         0.876909     -0.970292     -0.737114
     13.74064     13.54797     10.79700        -1.146931      2.120651      1.829948
     13.69629     16.33582     13.71012         0.299355      0.614729     -1.028324
     16.47258      8.25228      8.29971         0.075048     -0.665464     -1.317277
     16.51061     10.97190     10.90034         0.753493     -0.194851      0.802494
     16.55842     13.59584     13.64499        -1.209192      0.620501      1.586739
     16.43217     16.35654     16.46705         0.347594     -0.914632     -1.420454
      1.22443      1.33762      1.48838         1.603143      0.191417     -1.388226
      1.31600      4.07596      4.17108         1.810237      1.681904      0.841596
      1.41168      6.85539      6.86783        -0.174299     -0.073467     -0.624637
      1.31671      9.63106      9.40026         2.104449      0.245807      1.609709
      3.96583      1.36259      4.01885         1.196462      0.679476      1.435186
      4.20928      4.17102      6.68316        -1.118667     -0.784912      1.472729
      4.10487      6.79671      9.62483        -0.302863      1.381964     -0.847892
      4.21404      9.56504     12.33593        -0.435909      1.533481      0.150570
      6.68938      1.26988      6.77899         0.960446      1.309089      0.843937
      6.71661      4.11679      9.67296         1.033482      0.951639     -0.728233
      6.85339      6.90574     12.25417         1.614606     -0.591652      0.047184
      6.71419      9.60053     15.10259         1.311648     -1.322593     -1.126718
      9.60155      1.14903      9.56339        -0.583345      2.326099     -0.396663
      9.49875      4.07955     12.26298         1.905324     -0.314617      0.262535
      9.50320      6.68120     15.03692        -0.218784      2.530658     -0.540223
      9.43711      9.50476     18.01412         0.060679      1.441740     -2.497485
      4.23848      4.20869      1.40205        -1.317451     -0.592734     -0.804576
      4.05932      6.65185      3.84868         0.068070      2.142889      2.099412
      3.94473      9.65202      6.91884         3.430148     -2.143238     -1.698465
      4.12220     12.20831      9.45248        -0.949286      1.077141      0.673886
      6.80473      4.13913      4.18201         0.425141     -1.132212     -1.666787
      6.81579      6.77608      6.73485        -0.259903      1.166254      0.209476
      6.96321      9.49695      9.60274        -0.411952      1.514685     -0.446088
      6.76105     12.27924     12.40569         0.843051      0.579877     -2.252425
      9.54058      4.12532      6.73933        -0.920198     -0.747290      0.540689
      9.55455      6.77162      9.55862         0.531290      0.833615     -0.182823
      9.68510      9.66041     12.20123        -1.150893     -0.086900      0.683083
      9.45101     12.36137     15.01779         0.471085     -1.059655     -0.741132
     12.27927      4.01580      9.59420         0.174898      0.652036     -1.165943
     12.09981      6.84503     12.25540         2.380108      0.316466     -0.416525
     12.05040      9.63014     15.08737         2.185938     -2.133097     -1.321736
     12.35004     12.50071     17.70228         0.536862     -1.810509     -1.040247
      6.82699      6.83666      1.44534         0.125766     -0.268526     -0.205007
      6.79193      9.61869      4.12230         0.126024     -0.741645     -0.725040
      6.77698     12.30138      6.80185         1.126882     -0.184521     -0.224719
      6.72464     14.93756      9.40417         1.751488      1.489956      2.385411
      9.57721      6.83438      4.01794         0.667411      0.500068      1.050829
      9.45167      9.52220      6.74730         1.342114      0.168924      1.579901
      9.55341     12.34546      9.46656        -0.507773     -0.170246      1.701062
      9.63698     15.00781     12.44626        -0.512114      2.131270     -0.987487
     12.40563      6.63797      6.69217        -0.842766      2.943511      0.078018
     12.24998      9.55703      9.55422         0.444147      0.881618     -0.558490
     12.26854     12.41766     12.33785         0.045091     -0.926369     -1.427608
     12.31959     15.04883     14.99765        -0.748409      0.591554      0.068697
     15.10290      6.89776      9.54721        -1.257711     -0.488328      0.069989
     15.19521      9.63534     12.19382        -2.381154     -1.154188      0.554310
     15.02851     12.18422     15.10813        -0.390302      0.345940     -2.109389
     15.14523     14.93707     17.71165        -1.905590      0.444624     -0.117733
      9.62637      9.38413      1.20389        -0.003213      1.320285      1.440013
      9.59843     12.28356      4.10356         1.786784     -0.961992     -0.069447
      9.62460     14.77097      6.88147        -0.743954      2.399357     -0.465585
      9.61422     17.67003      9.55584        -0.085373      1.656413      0.325500
     12.30151      9.61714      4.14130         0.070913     -0.888285      0.085334
     12.25286     12.29448      6.85364         0.831105     -0.034014      0.807505
     12.15896     14.99452      9.48066         1.990081      0.559009      1.236101
     12.24936     17.75736     12.29255         1.938972      0.681337      0.702819
     15.07625      9.50986      6.85989        -0.899234      0.179207     -0.175223
     15.11673     12.22617      9.67775         0.178293      0.616761     -2.427498
     15.14640     15.01336     12.36570        -0.625790     -0.351377     -0.902012
     15.23205     17.67690     14.95041        -1.348883     -0.528101      0.406613
     17.82222      9.57605      9.60549         0.302482     -0.389216      0.344718
     17.83698     12.28036     12.35876         0.978498     -0.400350     -0.760577
     17.94624     15.07193     15.03529        -1.306982     -1.001905      0.443712
     17.74893     17.60333     17.74107         0.993406      2.695352      0.921726
 -----------------------------------------------------------------------------------
    total drift:                               -0.000011      0.000012      0.000002


--------------------------------------------------------------------------------------------------------



  FREE ENERGIE OF THE ION-ELECTRON SYSTEM (eV)
  ---------------------------------------------------
  free  energy   TOTEN  =      -679.66720223 eV

  energy  without entropy=     -679.66720223  energy(sigma->0) =     -679.66720223
 


--------------------------------------------------------------------------------------------------------


    POTLOK:  cpu time    0.9932: real time    0.9943


--------------------------------------------------------------------------------------------------------


     LOOP+:  cpu time 1707.2665: real time 1707.8007
    4ORBIT:  cpu time    0.0000: real time    0.0000

 total amount of memory used by VASP MPI-rank0   221701. kBytes
=======================================================================

   base      :      30000. kBytes
   nonl-proj :      10690. kBytes
   fftplans  :      66746. kBytes
   grid      :      26864. kBytes
   one-center:         24. kBytes
   wavefun   :      87377. kBytes
 
  
  
 General timing and accounting informations for this job:
 ========================================================
  
                  Total CPU time used (sec):     1731.427
                            User time (sec):     1730.467
                          System time (sec):        0.960
                         Elapsed time (sec):     1732.998
  
                   Maximum memory used (kb):      338396.
                   Average memory used (kb):           0.
  
                          Minor page faults:       167304
                          Major page faults:            0
                 Voluntary context switches:         1383
