<?xml version="1.0" encoding="ISO-8859-1"?>
<modeling>
 <generator>
  <i name="program" type="string">vasp </i>
  <i name="version" type="string">5.4.4.18Apr17-6-g9f103f2a35  </i>
  <i name="subversion" type="string">(build Nov 08 2017 09:05:29) complex            parallel </i>
  <i name="platform" type="string">Intel_17.33 </i>
  <i name="date" type="string">2020 07 18 </i>
  <i name="time" type="string">20:44:48 </i>
 </generator>
 <incar>
  <i type="string" name="SYSTEM">potpaw_PBE@./ARUN.APL1ZEROSTATE</i>
  <i type="string" name="PREC">accurate</i>
  <i type="string" name="ALGO">Normal</i>
  <i type="int" name="NSIM">     4</i>
  <i type="logical" name="ADDGRID"> T  </i>
  <i type="int" name="NELM">   120</i>
  <i type="int" name="NELMIN">     4</i>
  <i name="EDIFF">      0.00000001</i>
  <i type="int" name="NSW">     0</i>
  <i type="int" name="ISYM">     2</i>
  <i name="ENMAX">    500.00000000</i>
  <i type="logical" name="LREAL"> F  </i>
  <i type="logical" name="LPLANE"> T  </i>
  <i type="int" name="ISMEAR">     0</i>
  <i name="SIGMA">      0.01000000</i>
  <i type="logical" name="LWAVE"> F  </i>
  <i type="logical" name="LCHARG"> F  </i>
  <i type="logical" name="LELF"> F  </i>
  <i type="logical" name="LAECHG"> F  </i>
  <v type="int" name="KPOINT_BSE">    -1     0     0     0</v>
  <i type="int" name="NELM">   120</i>
 </incar>
 <structure name="primitive_cell" >
  <crystal>
   <varray name="basis" >
    <v>       0.00000000      10.93733369      10.93733369 </v>
    <v>      10.93733369       0.00000000      10.93733369 </v>
    <v>      10.93733369      10.93733369       0.00000000 </v>
   </varray>
   <i name="volume">   2616.76295363 </i>
   <varray name="rec_basis" >
    <v>      -0.04571498       0.04571498       0.04571498 </v>
    <v>       0.04571498      -0.04571498       0.04571498 </v>
    <v>       0.04571498       0.04571498      -0.04571498 </v>
   </varray>
  </crystal>
  <varray name="positions" >
   <v>      -0.00721969       0.00521085       0.00072409 </v>
   <v>       0.05078346      -0.17640331       0.05427234 </v>
   <v>      -0.19017716       0.04964262       0.07074454 </v>
   <v>       0.04396179       0.06610960      -0.18597095 </v>
   <v>       0.07321595       0.06286686       0.04908260 </v>
   <v>      -0.24757751      -0.00737508       0.00843972 </v>
   <v>      -0.24658698       0.25876576       0.00297645 </v>
   <v>      -0.00116264       0.25047757      -0.24907267 </v>
   <v>       0.00669674       0.24819008      -0.00388530 </v>
   <v>       0.24476428       0.00973900      -0.24810990 </v>
   <v>      -0.00537799       0.00116444       0.25383777 </v>
   <v>      -0.25739295      -0.00500702       0.26131353 </v>
   <v>      -0.00890512      -0.25451413       0.25231380 </v>
   <v>      -0.00025763       0.00771528      -0.26145691 </v>
   <v>       0.00732908      -0.25835538      -0.00315801 </v>
   <v>       0.25451707      -0.25691991       0.00149062 </v>
   <v>       0.25172908       0.01450042      -0.00016166 </v>
   <v>      -0.17339221      -0.17957776       0.04241236 </v>
   <v>      -0.18624842       0.31015543      -0.19019674 </v>
   <v>       0.06083409      -0.18363706       0.30633041 </v>
   <v>       0.06214121      -0.18391131      -0.18660335 </v>
   <v>      -0.19822358       0.06246354       0.31442914 </v>
   <v>       0.06660339       0.31203542      -0.18730901 </v>
   <v>      -0.19488378       0.06857358      -0.18954626 </v>
   <v>       0.31095974      -0.18099882      -0.18816706 </v>
   <v>      -0.19144233       0.31931603       0.06597354 </v>
   <v>       0.31034487       0.06484385      -0.18725942 </v>
   <v>       0.31286312      -0.19165895       0.06012956 </v>
   <v>      -0.18385288      -0.19762859       0.32679260 </v>
   <v>      -0.24617567       0.25012061      -0.24856530 </v>
   <v>      -0.25095207       0.23938789       0.25987397 </v>
   <v>       0.24510706      -0.24848927      -0.24194633 </v>
   <v>      -0.24746179      -0.25631025       0.25183656 </v>
   <v>       0.24964461      -0.25136615       0.25249366 </v>
   <v>       0.25356736       0.26029020      -0.25801369 </v>
   <v>      -0.42279677       0.05538622       0.30528024 </v>
   <v>       0.06471465       0.30272899       0.05986646 </v>
   <v>      -0.43717844       0.06510350       0.06396605 </v>
   <v>      -0.43694360       0.31694160       0.05836696 </v>
   <v>       0.05829203       0.30906806      -0.43342455 </v>
   <v>       0.06651544       0.06563183      -0.44144001 </v>
   <v>       0.31685264       0.06450934       0.05581257 </v>
   <v>       0.31767631       0.05922527      -0.43823966 </v>
   <v>       0.06052942      -0.44435289       0.31664815 </v>
   <v>       0.32334855      -0.43895024       0.05304966 </v>
   <v>       0.06214898      -0.44234597       0.05395575 </v>
   <v>       0.06273305       0.06545662       0.32206737 </v>
   <v>       0.48467922       0.00559260      -0.24460651 </v>
   <v>      -0.01995695      -0.49842209      -0.24357242 </v>
   <v>      -0.24236456      -0.00016493      -0.25272878 </v>
   <v>       0.00363048      -0.24478824      -0.24912466 </v>
   <v>      -0.25247607       0.00049893       0.49549188 </v>
   <v>       0.49917234       0.00567735       0.25406322 </v>
   <v>      -0.24578845      -0.25142767       0.00314025 </v>
   <v>      -0.49864606       0.24844588       0.25727785 </v>
   <v>       0.48834632      -0.24078543      -0.24527917 </v>
   <v>       0.24585502       0.24510277      -0.49492278 </v>
   <v>      -0.00206946       0.24926871       0.24831445 </v>
   <v>       0.00605452       0.24900632      -0.49963511 </v>
   <v>      -0.25866627      -0.49811477      -0.00097005 </v>
   <v>       0.49575203       0.25520607      -0.00105628 </v>
   <v>       0.49173437      -0.24337910       0.00010826 </v>
   <v>       0.25247619      -0.01203858       0.25188948 </v>
   <v>      -0.25257579      -0.49390837      -0.25384061 </v>
   <v>       0.24809228       0.49716554       0.01257819 </v>
   <v>       0.25405991       0.25506754      -0.00747686 </v>
   <v>       0.24739447      -0.00020111       0.49489569 </v>
   <v>      -0.00150379       0.49480605       0.23916241 </v>
   <v>      -0.00471880      -0.25834190      -0.49105727 </v>
   <v>       0.25632166       0.49521607       0.24912366 </v>
   <v>      -0.25761292      -0.26224777      -0.48896944 </v>
   <v>      -0.42092317      -0.19963917       0.30140682 </v>
   <v>       0.30327095      -0.18839020      -0.42231214 </v>
   <v>      -0.18061012       0.31486210       0.30330022 </v>
   <v>      -0.43696375       0.30378043      -0.19208757 </v>
   <v>       0.31027609      -0.42543974      -0.19243808 </v>
   <v>       0.31167682       0.30522861      -0.44106267 </v>
   <v>      -0.18549218       0.32345346      -0.44234459 </v>
   <v>      -0.44406083      -0.18126336      -0.17791298 </v>
   <v>       0.30975056      -0.43580660       0.30937873 </v>
   <v>       0.32003365      -0.19952252       0.30580735 </v>
   <v>       0.31521661       0.31141130      -0.19113321 </v>
   <v>      -0.19982856      -0.18079636      -0.43447579 </v>
   <v>      -0.44518056       0.32315917       0.31348656 </v>
   <v>      -0.20477575      -0.42830874      -0.17902555 </v>
   <v>      -0.18041494      -0.44650953       0.31061497 </v>
   <v>      -0.19562305      -0.18231122      -0.19490514 </v>
   <v>      -0.49221606       0.49436950       0.00412445 </v>
   <v>       0.00019039       0.00043315      -0.49274566 </v>
   <v>      -0.49882620       0.00187560       0.49496104 </v>
   <v>      -0.00102588       0.49919823      -0.00020385 </v>
   <v>      -0.49704735      -0.00786175      -0.00035025 </v>
   <v>      -0.00181357      -0.49968656      -0.49882658 </v>
   <v>      -0.19463501       0.05445747      -0.43962429 </v>
   <v>      -0.17763608      -0.44153426       0.05541197 </v>
   <v>      -0.43935833      -0.17930566      -0.44663864 </v>
   <v>      -0.43740728      -0.44219418       0.06879918 </v>
   <v>      -0.18961554      -0.43914973      -0.43447039 </v>
   <v>      -0.43650538       0.05839839      -0.43877980 </v>
   <v>       0.06135286      -0.18845183      -0.43069097 </v>
   <v>      -0.45014761       0.07932024      -0.19934348 </v>
   <v>       0.04226410      -0.43039890      -0.43535465 </v>
   <v>      -0.44159519      -0.18357943       0.05245663 </v>
   <v>      -0.44078436      -0.42862019      -0.18654469 </v>
   <v>       0.05913218      -0.43193287      -0.18964594 </v>
   <v>      -0.25225585       0.25588988      -0.48740512 </v>
   <v>      -0.24895672       0.49387036       0.24400616 </v>
   <v>      -0.24455468       0.49844771      -0.49972532 </v>
   <v>       0.49499397      -0.25665065       0.24895703 </v>
   <v>       0.48477708      -0.49760760      -0.24608639 </v>
   <v>       0.49864185       0.25002142      -0.49208160 </v>
   <v>       0.25117056      -0.26273751       0.49892098 </v>
   <v>       0.49896817      -0.25890632       0.49088789 </v>
   <v>       0.49752194       0.25892780      -0.25845523 </v>
   <v>       0.49500360      -0.49557761       0.25895349 </v>
   <v>       0.25197316      -0.49652155       0.49982972 </v>
   <v>       0.25950725       0.49825187      -0.25301027 </v>
   <v>       0.29445972       0.05742452       0.31371881 </v>
   <v>       0.30606815       0.30969880       0.31346833 </v>
   <v>       0.30377188       0.30726939       0.07758454 </v>
   <v>       0.06932221       0.31303870       0.30911796 </v>
   <v>       0.24449732       0.24039054       0.25597286 </v>
   <v>      -0.25066650      -0.24375204      -0.25385550 </v>
   <v>      -0.42915828      -0.44279243      -0.43549543 </v>
   <v>      -0.43959808       0.30512519      -0.43165730 </v>
   <v>       0.31366281      -0.44012105      -0.43986402 </v>
   <v>      -0.44334969      -0.44109254       0.32660078 </v>
   <v>       0.49350568       0.48705190      -0.49174003 </v>
  </varray>
 </structure>
 <varray name="primitive_index" >
  <v type="int" >        1 </v>
  <v type="int" >       77 </v>
  <v type="int" >       68 </v>
  <v type="int" >      113 </v>
  <v type="int" >       65 </v>
  <v type="int" >        4 </v>
  <v type="int" >        8 </v>
  <v type="int" >       53 </v>
  <v type="int" >        5 </v>
  <v type="int" >       50 </v>
  <v type="int" >       17 </v>
  <v type="int" >       20 </v>
  <v type="int" >       29 </v>
  <v type="int" >       49 </v>
  <v type="int" >       13 </v>
  <v type="int" >       14 </v>
  <v type="int" >        2 </v>
  <v type="int" >       80 </v>
  <v type="int" >      120 </v>
  <v type="int" >       93 </v>
  <v type="int" >      125 </v>
  <v type="int" >       84 </v>
  <v type="int" >      117 </v>
  <v type="int" >      116 </v>
  <v type="int" >      126 </v>
  <v type="int" >       72 </v>
  <v type="int" >      114 </v>
  <v type="int" >       78 </v>
  <v type="int" >       96 </v>
  <v type="int" >       56 </v>
  <v type="int" >       24 </v>
  <v type="int" >       62 </v>
  <v type="int" >       32 </v>
  <v type="int" >       30 </v>
  <v type="int" >       54 </v>
  <v type="int" >       83 </v>
  <v type="int" >       69 </v>
  <v type="int" >       67 </v>
  <v type="int" >       71 </v>
  <v type="int" >      101 </v>
  <v type="int" >       97 </v>
  <v type="int" >       66 </v>
  <v type="int" >       98 </v>
  <v type="int" >       89 </v>
  <v type="int" >       74 </v>
  <v type="int" >       73 </v>
  <v type="int" >       81 </v>
  <v type="int" >       51 </v>
  <v type="int" >       57 </v>
  <v type="int" >       52 </v>
  <v type="int" >       61 </v>
  <v type="int" >       36 </v>
  <v type="int" >       19 </v>
  <v type="int" >       16 </v>
  <v type="int" >       23 </v>
  <v type="int" >       63 </v>
  <v type="int" >       38 </v>
  <v type="int" >       21 </v>
  <v type="int" >       37 </v>
  <v type="int" >       12 </v>
  <v type="int" >        7 </v>
  <v type="int" >       15 </v>
  <v type="int" >       18 </v>
  <v type="int" >       60 </v>
  <v type="int" >       10 </v>
  <v type="int" >        6 </v>
  <v type="int" >       34 </v>
  <v type="int" >       25 </v>
  <v type="int" >       45 </v>
  <v type="int" >       26 </v>
  <v type="int" >       48 </v>
  <v type="int" >       95 </v>
  <v type="int" >      110 </v>
  <v type="int" >       88 </v>
  <v type="int" >      119 </v>
  <v type="int" >      122 </v>
  <v type="int" >      102 </v>
  <v type="int" >      104 </v>
  <v type="int" >      127 </v>
  <v type="int" >       90 </v>
  <v type="int" >       94 </v>
  <v type="int" >      118 </v>
  <v type="int" >      112 </v>
  <v type="int" >       87 </v>
  <v type="int" >      124 </v>
  <v type="int" >       92 </v>
  <v type="int" >      128 </v>
  <v type="int" >       11 </v>
  <v type="int" >       33 </v>
  <v type="int" >       35 </v>
  <v type="int" >        9 </v>
  <v type="int" >        3 </v>
  <v type="int" >       41 </v>
  <v type="int" >      100 </v>
  <v type="int" >       76 </v>
  <v type="int" >      111 </v>
  <v type="int" >       75 </v>
  <v type="int" >      108 </v>
  <v type="int" >       99 </v>
  <v type="int" >      109 </v>
  <v type="int" >      115 </v>
  <v type="int" >      105 </v>
  <v type="int" >       79 </v>
  <v type="int" >      123 </v>
  <v type="int" >      121 </v>
  <v type="int" >       40 </v>
  <v type="int" >       28 </v>
  <v type="int" >       44 </v>
  <v type="int" >       31 </v>
  <v type="int" >       59 </v>
  <v type="int" >       39 </v>
  <v type="int" >       46 </v>
  <v type="int" >       47 </v>
  <v type="int" >       55 </v>
  <v type="int" >       27 </v>
  <v type="int" >       42 </v>
  <v type="int" >       58 </v>
  <v type="int" >       82 </v>
  <v type="int" >       86 </v>
  <v type="int" >       70 </v>
  <v type="int" >       85 </v>
  <v type="int" >       22 </v>
  <v type="int" >       64 </v>
  <v type="int" >      107 </v>
  <v type="int" >      103 </v>
  <v type="int" >      106 </v>
  <v type="int" >       91 </v>
  <v type="int" >       43 </v>
 </varray>
 <kpoints>
  <generation param="Gamma">
   <v type="int" name="divisions">       2        2        2 </v>
   <v name="usershift">      0.00000000       0.00000000       0.00000000 </v>
   <v name="genvec1">      0.50000000       0.00000000       0.00000000 </v>
   <v name="genvec2">      0.00000000       0.50000000       0.00000000 </v>
   <v name="genvec3">      0.00000000       0.00000000       0.50000000 </v>
   <v name="shift">      0.00000000       0.00000000       0.00000000 </v>
  </generation>
  <varray name="kpointlist" >
   <v>       0.00000000       0.00000000       0.00000000 </v>
   <v>       0.50000000       0.00000000       0.00000000 </v>
   <v>       0.00000000       0.50000000       0.00000000 </v>
   <v>       0.50000000       0.50000000       0.00000000 </v>
   <v>       0.00000000       0.00000000       0.50000000 </v>
   <v>       0.50000000       0.00000000       0.50000000 </v>
   <v>       0.00000000       0.50000000       0.50000000 </v>
   <v>       0.50000000       0.50000000       0.50000000 </v>
  </varray>
  <varray name="weights" >
   <v>       0.12500000 </v>
   <v>       0.12500000 </v>
   <v>       0.12500000 </v>
   <v>       0.12500000 </v>
   <v>       0.12500000 </v>
   <v>       0.12500000 </v>
   <v>       0.12500000 </v>
   <v>       0.12500000 </v>
  </varray>
 </kpoints>
 <parameters>
  <separator name="general" >
   <i type="string" name="SYSTEM">potpaw_PBE@./ARUN.APL1ZEROSTATE</i>
   <i type="logical" name="LCOMPAT"> F  </i>
  </separator>
  <separator name="electronic" >
   <i type="string" name="PREC">accura</i>
   <i name="ENMAX">    500.00000000</i>
   <i name="ENAUG">    322.06900000</i>
   <i name="EDIFF">      0.00000001</i>
   <i type="int" name="IALGO">    38</i>
   <i type="int" name="IWAVPR">    10</i>
   <i type="int" name="NBANDS">   322</i>
   <i name="NELECT">    512.00000000</i>
   <i type="int" name="TURBO">     0</i>
   <i type="int" name="IRESTART">     0</i>
   <i type="int" name="NREBOOT">     0</i>
   <i type="int" name="NMIN">     0</i>
   <i name="EREF">      0.00000000</i>
   <separator name="electronic smearing" >
    <i type="int" name="ISMEAR">     0</i>
    <i name="SIGMA">      0.01000000</i>
    <i name="KSPACING">      0.50000000</i>
    <i type="logical" name="KGAMMA"> T  </i>
   </separator>
   <separator name="electronic projectors" >
    <i type="logical" name="LREAL"> F  </i>
    <v name="ROPT">      0.00000000</v>
    <i type="int" name="LMAXPAW">  -100</i>
    <i type="int" name="LMAXMIX">     2</i>
    <i type="logical" name="NLSPLINE"> F  </i>
   </separator>
   <separator name="electronic startup" >
    <i type="int" name="ISTART">     0</i>
    <i type="int" name="ICHARG">     2</i>
    <i type="int" name="INIWAV">     1</i>
   </separator>
   <separator name="electronic spin" >
    <i type="int" name="ISPIN">     1</i>
    <i type="logical" name="LNONCOLLINEAR"> F  </i>
    <v name="MAGMOM">      1.00000000      1.00000000      1.00000000      1.00000000      1.00000000      1.00000000      1.00000000      1.00000000      1.00000000      1.00000000      1.00000000      1.00000000      1.00000000      1.00000000      1.00000000      1.00000000      1.00000000      1.00000000      1.00000000      1.00000000
      1.00000000      1.00000000      1.00000000      1.00000000      1.00000000      1.00000000      1.00000000      1.00000000      1.00000000      1.00000000      1.00000000      1.00000000      1.00000000      1.00000000      1.00000000      1.00000000      1.00000000      1.00000000      1.00000000      1.00000000
      1.00000000      1.00000000      1.00000000      1.00000000      1.00000000      1.00000000      1.00000000      1.00000000      1.00000000      1.00000000      1.00000000      1.00000000      1.00000000      1.00000000      1.00000000      1.00000000      1.00000000      1.00000000      1.00000000      1.00000000
      1.00000000      1.00000000      1.00000000      1.00000000      1.00000000      1.00000000      1.00000000      1.00000000      1.00000000      1.00000000      1.00000000      1.00000000      1.00000000      1.00000000      1.00000000      1.00000000      1.00000000      1.00000000      1.00000000      1.00000000
      1.00000000      1.00000000      1.00000000      1.00000000      1.00000000      1.00000000      1.00000000      1.00000000      1.00000000      1.00000000      1.00000000      1.00000000      1.00000000      1.00000000      1.00000000      1.00000000      1.00000000      1.00000000      1.00000000      1.00000000
      1.00000000      1.00000000      1.00000000      1.00000000      1.00000000      1.00000000      1.00000000      1.00000000      1.00000000      1.00000000      1.00000000      1.00000000      1.00000000      1.00000000      1.00000000      1.00000000      1.00000000      1.00000000      1.00000000      1.00000000
      1.00000000      1.00000000      1.00000000      1.00000000      1.00000000      1.00000000      1.00000000      1.00000000</v>
    <i name="NUPDOWN">     -1.00000000</i>
    <i type="logical" name="LSORBIT"> F  </i>
    <v name="SAXIS">      0.00000000      0.00000000      1.00000000</v>
    <i type="logical" name="LSPIRAL"> F  </i>
    <v name="QSPIRAL">      0.00000000      0.00000000      0.00000000</v>
    <i type="logical" name="LZEROZ"> F  </i>
   </separator>
   <separator name="electronic exchange-correlation" >
    <i type="logical" name="LASPH"> F  </i>
    <i type="logical" name="LMETAGGA"> F  </i>
   </separator>
   <separator name="electronic convergence" >
    <i type="int" name="NELM">   120</i>
    <i type="int" name="NELMDL">    -5</i>
    <i type="int" name="NELMIN">     4</i>
    <i name="ENINI">    500.00000000</i>
    <separator name="electronic convergence detail" >
     <i type="logical" name="LDIAG"> T  </i>
     <i type="logical" name="LSUBROT"> F  </i>
     <i name="WEIMIN">      0.00000000</i>
     <i name="EBREAK">      0.00000000</i>
     <i name="DEPER">      0.30000000</i>
     <i type="int" name="NRMM">     4</i>
     <i name="TIME">      0.40000000</i>
    </separator>
   </separator>
   <separator name="electronic mixer" >
    <i name="AMIX">      0.40000000</i>
    <i name="BMIX">      1.00000000</i>
    <i name="AMIN">      0.10000000</i>
    <i name="AMIX_MAG">      1.60000000</i>
    <i name="BMIX_MAG">      1.00000000</i>
    <separator name="electronic mixer details" >
     <i type="int" name="IMIX">     4</i>
     <i type="logical" name="MIXFIRST"> F  </i>
     <i type="int" name="MAXMIX">   -45</i>
     <i name="WC">    100.00000000</i>
     <i type="int" name="INIMIX">     1</i>
     <i type="int" name="MIXPRE">     1</i>
     <i type="int" name="MREMOVE">     5</i>
    </separator>
   </separator>
   <separator name="electronic dipolcorrection" >
    <i type="logical" name="LDIPOL"> F  </i>
    <i type="logical" name="LMONO"> F  </i>
    <i type="int" name="IDIPOL">     0</i>
    <i name="EPSILON">      1.00000000</i>
    <v name="DIPOL">   -100.00000000   -100.00000000   -100.00000000</v>
    <i name="EFIELD">      0.00000000</i>
   </separator>
  </separator>
  <separator name="grids" >
   <i type="int" name="NGX">   120</i>
   <i type="int" name="NGY">   120</i>
   <i type="int" name="NGZ">   120</i>
   <i type="int" name="NGXF">   240</i>
   <i type="int" name="NGYF">   240</i>
   <i type="int" name="NGZF">   240</i>
   <i type="logical" name="ADDGRID"> T  </i>
  </separator>
  <separator name="ionic" >
   <i type="int" name="NSW">     0</i>
   <i type="int" name="IBRION">    -1</i>
   <i type="int" name="MDALGO">     0</i>
   <i type="int" name="ISIF">     2</i>
   <i name="PSTRESS">      0.00000000</i>
   <i name="EDIFFG">      0.00000010</i>
   <i type="int" name="NFREE">     0</i>
   <i name="POTIM">      0.50000000</i>
   <i name="SMASS">     -3.00000000</i>
   <i name="SCALEE">      1.00000000</i>
  </separator>
  <separator name="ionic md" >
   <i name="TEBEG">      0.00010000</i>
   <i name="TEEND">      0.00010000</i>
   <i type="int" name="NBLOCK">     1</i>
   <i type="int" name="KBLOCK">     1</i>
   <i type="int" name="NPACO">   256</i>
   <i name="APACO">     16.00000000</i>
  </separator>
  <separator name="symmetry" >
   <i type="int" name="ISYM">     2</i>
   <i name="SYMPREC">      0.00001000</i>
  </separator>
  <separator name="dos" >
   <i type="int" name="LORBIT">     0</i>
   <v name="RWIGS">     -1.00000000</v>
   <i type="int" name="NEDOS">   301</i>
   <i name="EMIN">     10.00000000</i>
   <i name="EMAX">    -10.00000000</i>
   <i name="EFERMI">      0.00000000</i>
  </separator>
  <separator name="writing" >
   <i type="int" name="NWRITE">     2</i>
   <i type="logical" name="LWAVE"> F  </i>
   <i type="logical" name="LDOWNSAMPLE"> F  </i>
   <i type="logical" name="LCHARG"> F  </i>
   <i type="logical" name="LPARD"> F  </i>
   <i type="logical" name="LVTOT"> F  </i>
   <i type="logical" name="LVHAR"> F  </i>
   <i type="logical" name="LELF"> F  </i>
   <i type="logical" name="LOPTICS"> F  </i>
   <v name="STM">      0.00000000      0.00000000      0.00000000      0.00000000      0.00000000      0.00000000      0.00000000</v>
  </separator>
  <separator name="performance" >
   <i type="int" name="NPAR">     2</i>
   <i type="int" name="NSIM">     4</i>
   <i type="int" name="NBLK">    -1</i>
   <i type="logical" name="LPLANE"> T  </i>
   <i type="logical" name="LSCALAPACK"> T  </i>
   <i type="logical" name="LSCAAWARE"> F  </i>
   <i type="logical" name="LSCALU"> F  </i>
   <i type="logical" name="LASYNC"> F  </i>
   <i type="logical" name="LORBITALREAL"> F  </i>
  </separator>
  <separator name="miscellaneous" >
   <i type="int" name="IDIOT">     3</i>
   <i type="int" name="ISPECIAL">     0</i>
   <i type="logical" name="LMUSIC"> F  </i>
   <v name="POMASS">     28.08500000</v>
   <v name="DARWINR">      0.00000000</v>
   <v name="DARWINV">      1.00000000</v>
   <i type="logical" name="LCORR"> T  </i>
  </separator>
  <i type="logical" name="GGA_COMPAT"> T  </i>
  <i type="logical" name="LBERRY"> F  </i>
  <i type="int" name="ICORELEVEL">     0</i>
  <i type="logical" name="LDAU"> F  </i>
  <i type="int" name="I_CONSTRAINED_M">     0</i>
  <separator name="electronic exchange-correlation" >
   <i type="string" name="GGA">--</i>
   <i type="int" name="VOSKOWN">     0</i>
   <i type="logical" name="LHFCALC"> F  </i>
   <i type="string" name="PRECFOCK"></i>
   <i type="logical" name="LSYMGRAD"> F  </i>
   <i type="logical" name="LHFONE"> F  </i>
   <i type="logical" name="LRHFCALC"> F  </i>
   <i type="logical" name="LTHOMAS"> F  </i>
   <i type="logical" name="LMODELHF"> F  </i>
   <i name="ENCUT4O">     -1.00000000</i>
   <i type="int" name="EXXOEP">     0</i>
   <i type="int" name="FOURORBIT">     0</i>
   <i name="AEXX">      0.00000000</i>
   <i name="HFALPHA">      0.00000000</i>
   <i name="MCALPHA">      0.00000000</i>
   <i name="ALDAX">      1.00000000</i>
   <i name="AGGAX">      1.00000000</i>
   <i name="ALDAC">      1.00000000</i>
   <i name="AGGAC">      1.00000000</i>
   <i type="int" name="NKREDX">     1</i>
   <i type="int" name="NKREDY">     1</i>
   <i type="int" name="NKREDZ">     1</i>
   <i type="logical" name="SHIFTRED"> F  </i>
   <i type="logical" name="ODDONLY"> F  </i>
   <i type="logical" name="EVENONLY"> F  </i>
   <i type="int" name="LMAXFOCK">     0</i>
   <i type="int" name="NMAXFOCKAE">     0</i>
   <i type="logical" name="LFOCKAEDFT"> F  </i>
   <i name="HFSCREEN">      0.00000000</i>
   <i name="HFSCREENC">      0.00000000</i>
   <i type="int" name="NBANDSGWLOW">     0</i>
  </separator>
  <separator name="vdW DFT" >
   <i type="logical" name="LUSE_VDW"> F  </i>
   <i name="Zab_VDW">     -0.84910000</i>
   <i name="PARAM1">      0.12340000</i>
   <i name="PARAM2">      1.00000000</i>
   <i name="PARAM3">      0.00000000</i>
  </separator>
  <separator name="model GW" >
   <i type="int" name="MODEL_GW">     0</i>
   <i name="MODEL_EPS0">     12.26607635</i>
   <i name="MODEL_ALPHA">      1.00000000</i>
  </separator>
  <separator name="linear response parameters" >
   <i type="logical" name="LEPSILON"> F  </i>
   <i type="logical" name="LRPA"> F  </i>
   <i type="logical" name="LNABLA"> F  </i>
   <i type="logical" name="LVEL"> F  </i>
   <i type="int" name="KINTER">     0</i>
   <i name="CSHIFT">      0.10000000</i>
   <i name="OMEGAMAX">     -1.00000000</i>
   <i name="DEG_THRESHOLD">      0.00200000</i>
   <i name="RTIME">     -0.10000000</i>
   <i name="WPLASMAI">      0.00000000</i>
   <v name="DFIELD">      0.00000000      0.00000000      0.00000000</v>
   <v name="WPLASMA">      0.00000000      0.00000000      0.00000000      0.00000000      0.00000000      0.00000000      0.00000000      0.00000000      0.00000000</v>
  </separator>
  <separator name="orbital magnetization" >
   <i type="logical" name="NUCIND"> F  </i>
   <v name="MAGPOS">      0.00000000      0.00000000      0.00000000</v>
   <i type="logical" name="LNICSALL"> T  </i>
   <i type="logical" name="ORBITALMAG"> F  </i>
   <i type="logical" name="LMAGBLOCH"> F  </i>
   <i type="logical" name="LCHIMAG"> F  </i>
   <i type="logical" name="LGAUGE"> T  </i>
   <i type="int" name="MAGATOM">     0</i>
   <v name="MAGDIPOL">      0.00000000      0.00000000      0.00000000</v>
   <v name="AVECCONST">      0.00000000      0.00000000      0.00000000</v>
  </separator>
  <separator name="response functions" >
   <i type="logical" name="LADDER"> F  </i>
   <i type="logical" name="LRPAFORCE"> F  </i>
   <i type="logical" name="LFXC"> F  </i>
   <i type="logical" name="LHARTREE"> T  </i>
   <i type="int" name="IBSE">     0</i>
   <v type="int" name="KPOINT">    -1     0     0     0</v>
   <i type="logical" name="LTCTE"> F  </i>
   <i type="logical" name="LTETE"> F  </i>
   <i type="logical" name="LTRIPLET"> F  </i>
   <i type="logical" name="LFXCEPS"> F  </i>
   <i type="logical" name="LFXHEG"> F  </i>
   <i type="int" name="NATURALO">     2</i>
   <i type="logical" name="L2ORDER"> F  </i>
   <i type="logical" name="LMP2LT"> F  </i>
   <i type="logical" name="LUSEW"> F  </i>
   <i name="ENCUTGW">     -2.00000000</i>
   <i name="ENCUTGWSOFT">     -2.00000000</i>
   <i name="ENCUTLF">     -1.00000000</i>
   <i type="int" name="LMAXMP2">    -1</i>
   <i name="SCISSOR">      0.00000000</i>
   <i type="int" name="NOMEGA">     0</i>
   <i type="int" name="NOMEGAR">     0</i>
   <i type="int" name="NBANDSGW">    -1</i>
   <i type="int" name="NBANDSO">    -1</i>
   <i type="int" name="NBANDSV">    -1</i>
   <i type="int" name="NELM">   120</i>
   <i type="int" name="NELMHF">     1</i>
   <i type="int" name="DIM">     3</i>
   <i type="int" name="ANTIRES">     0</i>
   <i name="OMEGAMAX">    -30.00000000</i>
   <i name="OMEGAMIN">    -30.00000000</i>
   <i name="OMEGATL">   -200.00000000</i>
   <i type="int" name="OMEGAGRID">   140</i>
   <i name="CSHIFT">     -0.10000000</i>
   <i type="logical" name="SELFENERGY"> F  </i>
   <i type="logical" name="LSPECTRAL"> F  </i>
   <i type="logical" name="LSPECTRALGW"> F  </i>
   <i type="logical" name="LSINGLES"> F  </i>
   <i type="logical" name="LFERMIGW"> F  </i>
   <i type="logical" name="ODDONLYGW"> F  </i>
   <i type="logical" name="EVENONLYGW"> F  </i>
   <i type="int" name="NKREDLFX">     1</i>
   <i type="int" name="NKREDLFY">     1</i>
   <i type="int" name="NKREDLFZ">     1</i>
   <i type="int" name="MAXMEM">  2800</i>
   <i type="int" name="TELESCOPE">     0</i>
   <i type="int" name="TAUPAR">     1</i>
   <i type="int" name="OMEGAPAR">    -1</i>
   <i name="LAMBDA">      1.00000000</i>
  </separator>
  <separator name="External order field" >
   <i name="OFIELD_KAPPA">      0.00000000</i>
   <v name="OFIELD_K">      0.00000000      0.00000000      0.00000000</v>
   <i name="OFIELD_Q6_NEAR">      0.00000000</i>
   <i name="OFIELD_Q6_FAR">      0.00000000</i>
   <i name="OFIELD_A">      0.00000000</i>
  </separator>
 </parameters>
 <atominfo>
  <atoms>     128 </atoms>
  <types>       1 </types>
  <array name="atoms" >
   <dimension dim="1">ion</dimension>
   <field type="string">element</field>
   <field type="int">atomtype</field>
   <set>
    <rc><c>Si</c><c>   1</c></rc>
    <rc><c>Si</c><c>   1</c></rc>
    <rc><c>Si</c><c>   1</c></rc>
    <rc><c>Si</c><c>   1</c></rc>
    <rc><c>Si</c><c>   1</c></rc>
    <rc><c>Si</c><c>   1</c></rc>
    <rc><c>Si</c><c>   1</c></rc>
    <rc><c>Si</c><c>   1</c></rc>
    <rc><c>Si</c><c>   1</c></rc>
    <rc><c>Si</c><c>   1</c></rc>
    <rc><c>Si</c><c>   1</c></rc>
    <rc><c>Si</c><c>   1</c></rc>
    <rc><c>Si</c><c>   1</c></rc>
    <rc><c>Si</c><c>   1</c></rc>
    <rc><c>Si</c><c>   1</c></rc>
    <rc><c>Si</c><c>   1</c></rc>
    <rc><c>Si</c><c>   1</c></rc>
    <rc><c>Si</c><c>   1</c></rc>
    <rc><c>Si</c><c>   1</c></rc>
    <rc><c>Si</c><c>   1</c></rc>
    <rc><c>Si</c><c>   1</c></rc>
    <rc><c>Si</c><c>   1</c></rc>
    <rc><c>Si</c><c>   1</c></rc>
    <rc><c>Si</c><c>   1</c></rc>
    <rc><c>Si</c><c>   1</c></rc>
    <rc><c>Si</c><c>   1</c></rc>
    <rc><c>Si</c><c>   1</c></rc>
    <rc><c>Si</c><c>   1</c></rc>
    <rc><c>Si</c><c>   1</c></rc>
    <rc><c>Si</c><c>   1</c></rc>
    <rc><c>Si</c><c>   1</c></rc>
    <rc><c>Si</c><c>   1</c></rc>
    <rc><c>Si</c><c>   1</c></rc>
    <rc><c>Si</c><c>   1</c></rc>
    <rc><c>Si</c><c>   1</c></rc>
    <rc><c>Si</c><c>   1</c></rc>
    <rc><c>Si</c><c>   1</c></rc>
    <rc><c>Si</c><c>   1</c></rc>
    <rc><c>Si</c><c>   1</c></rc>
    <rc><c>Si</c><c>   1</c></rc>
    <rc><c>Si</c><c>   1</c></rc>
    <rc><c>Si</c><c>   1</c></rc>
    <rc><c>Si</c><c>   1</c></rc>
    <rc><c>Si</c><c>   1</c></rc>
    <rc><c>Si</c><c>   1</c></rc>
    <rc><c>Si</c><c>   1</c></rc>
    <rc><c>Si</c><c>   1</c></rc>
    <rc><c>Si</c><c>   1</c></rc>
    <rc><c>Si</c><c>   1</c></rc>
    <rc><c>Si</c><c>   1</c></rc>
    <rc><c>Si</c><c>   1</c></rc>
    <rc><c>Si</c><c>   1</c></rc>
    <rc><c>Si</c><c>   1</c></rc>
    <rc><c>Si</c><c>   1</c></rc>
    <rc><c>Si</c><c>   1</c></rc>
    <rc><c>Si</c><c>   1</c></rc>
    <rc><c>Si</c><c>   1</c></rc>
    <rc><c>Si</c><c>   1</c></rc>
    <rc><c>Si</c><c>   1</c></rc>
    <rc><c>Si</c><c>   1</c></rc>
    <rc><c>Si</c><c>   1</c></rc>
    <rc><c>Si</c><c>   1</c></rc>
    <rc><c>Si</c><c>   1</c></rc>
    <rc><c>Si</c><c>   1</c></rc>
    <rc><c>Si</c><c>   1</c></rc>
    <rc><c>Si</c><c>   1</c></rc>
    <rc><c>Si</c><c>   1</c></rc>
    <rc><c>Si</c><c>   1</c></rc>
    <rc><c>Si</c><c>   1</c></rc>
    <rc><c>Si</c><c>   1</c></rc>
    <rc><c>Si</c><c>   1</c></rc>
    <rc><c>Si</c><c>   1</c></rc>
    <rc><c>Si</c><c>   1</c></rc>
    <rc><c>Si</c><c>   1</c></rc>
    <rc><c>Si</c><c>   1</c></rc>
    <rc><c>Si</c><c>   1</c></rc>
    <rc><c>Si</c><c>   1</c></rc>
    <rc><c>Si</c><c>   1</c></rc>
    <rc><c>Si</c><c>   1</c></rc>
    <rc><c>Si</c><c>   1</c></rc>
    <rc><c>Si</c><c>   1</c></rc>
    <rc><c>Si</c><c>   1</c></rc>
    <rc><c>Si</c><c>   1</c></rc>
    <rc><c>Si</c><c>   1</c></rc>
    <rc><c>Si</c><c>   1</c></rc>
    <rc><c>Si</c><c>   1</c></rc>
    <rc><c>Si</c><c>   1</c></rc>
    <rc><c>Si</c><c>   1</c></rc>
    <rc><c>Si</c><c>   1</c></rc>
    <rc><c>Si</c><c>   1</c></rc>
    <rc><c>Si</c><c>   1</c></rc>
    <rc><c>Si</c><c>   1</c></rc>
    <rc><c>Si</c><c>   1</c></rc>
    <rc><c>Si</c><c>   1</c></rc>
    <rc><c>Si</c><c>   1</c></rc>
    <rc><c>Si</c><c>   1</c></rc>
    <rc><c>Si</c><c>   1</c></rc>
    <rc><c>Si</c><c>   1</c></rc>
    <rc><c>Si</c><c>   1</c></rc>
    <rc><c>Si</c><c>   1</c></rc>
    <rc><c>Si</c><c>   1</c></rc>
    <rc><c>Si</c><c>   1</c></rc>
    <rc><c>Si</c><c>   1</c></rc>
    <rc><c>Si</c><c>   1</c></rc>
    <rc><c>Si</c><c>   1</c></rc>
    <rc><c>Si</c><c>   1</c></rc>
    <rc><c>Si</c><c>   1</c></rc>
    <rc><c>Si</c><c>   1</c></rc>
    <rc><c>Si</c><c>   1</c></rc>
    <rc><c>Si</c><c>   1</c></rc>
    <rc><c>Si</c><c>   1</c></rc>
    <rc><c>Si</c><c>   1</c></rc>
    <rc><c>Si</c><c>   1</c></rc>
    <rc><c>Si</c><c>   1</c></rc>
    <rc><c>Si</c><c>   1</c></rc>
    <rc><c>Si</c><c>   1</c></rc>
    <rc><c>Si</c><c>   1</c></rc>
    <rc><c>Si</c><c>   1</c></rc>
    <rc><c>Si</c><c>   1</c></rc>
    <rc><c>Si</c><c>   1</c></rc>
    <rc><c>Si</c><c>   1</c></rc>
    <rc><c>Si</c><c>   1</c></rc>
    <rc><c>Si</c><c>   1</c></rc>
    <rc><c>Si</c><c>   1</c></rc>
    <rc><c>Si</c><c>   1</c></rc>
    <rc><c>Si</c><c>   1</c></rc>
    <rc><c>Si</c><c>   1</c></rc>
    <rc><c>Si</c><c>   1</c></rc>
   </set>
  </array>
  <array name="atomtypes" >
   <dimension dim="1">type</dimension>
   <field type="int">atomspertype</field>
   <field type="string">element</field>
   <field>mass</field>
   <field>valence</field>
   <field type="string">pseudopotential</field>
   <set>
    <rc><c> 128</c><c>Si</c><c>     28.08500000</c><c>      4.00000000</c><c> PAW_PBE Si 05Jan2001                   </c></rc>
   </set>
  </array>
 </atominfo>
 <structure name="initialpos" >
  <crystal>
   <varray name="basis" >
    <v>       0.00000000      10.93733369      10.93733369 </v>
    <v>      10.93733369       0.00000000      10.93733369 </v>
    <v>      10.93733369      10.93733369       0.00000000 </v>
   </varray>
   <i name="volume">   2616.76295363 </i>
   <varray name="rec_basis" >
    <v>      -0.04571498       0.04571498       0.04571498 </v>
    <v>       0.04571498      -0.04571498       0.04571498 </v>
    <v>       0.04571498       0.04571498      -0.04571498 </v>
   </varray>
  </crystal>
  <varray name="positions" >
   <v>       0.99278031       0.00521085       0.00072409 </v>
   <v>       0.25172908       0.01450042       0.99983834 </v>
   <v>       0.50295265       0.99213825       0.99964975 </v>
   <v>       0.75242249       0.99262492       0.00843972 </v>
   <v>       0.00669674       0.24819008       0.99611470 </v>
   <v>       0.25405991       0.25506754       0.99252314 </v>
   <v>       0.49575203       0.25520607       0.99894372 </v>
   <v>       0.75341302       0.25876576       0.00297645 </v>
   <v>       0.99897412       0.49919823       0.99979615 </v>
   <v>       0.24809228       0.49716554       0.01257819 </v>
   <v>       0.50778394       0.49436950       0.00412445 </v>
   <v>       0.74133373       0.50188523       0.99902995 </v>
   <v>       0.00732908       0.74164462       0.99684199 </v>
   <v>       0.25451707       0.74308009       0.00149062 </v>
   <v>       0.49173437       0.75662090       0.00010826 </v>
   <v>       0.75421155       0.74857233       0.00314025 </v>
   <v>       0.99462201       0.00116444       0.25383777 </v>
   <v>       0.25247619       0.98796142       0.25188948 </v>
   <v>       0.49917234       0.00567735       0.25406322 </v>
   <v>       0.74260705       0.99499298       0.26131353 </v>
   <v>       0.99793054       0.24926871       0.24831445 </v>
   <v>       0.24449732       0.24039054       0.25597286 </v>
   <v>       0.50135394       0.24844588       0.25727785 </v>
   <v>       0.74904793       0.23938789       0.25987397 </v>
   <v>       0.99849621       0.49480605       0.23916241 </v>
   <v>       0.25632166       0.49521607       0.24912366 </v>
   <v>       0.49500360       0.50442239       0.25895349 </v>
   <v>       0.75104328       0.49387036       0.24400616 </v>
   <v>       0.99109488       0.74548587       0.25231380 </v>
   <v>       0.24964461       0.74863385       0.25249366 </v>
   <v>       0.49499397       0.74334935       0.24895703 </v>
   <v>       0.75253821       0.74368975       0.25183656 </v>
   <v>       0.00019039       0.00043315       0.50725434 </v>
   <v>       0.24739447       0.99979889       0.49489569 </v>
   <v>       0.50117380       0.00187560       0.49496104 </v>
   <v>       0.74752393       0.00049893       0.49549188 </v>
   <v>       0.00605452       0.24900632       0.50036489 </v>
   <v>       0.24585502       0.24510277       0.50507722 </v>
   <v>       0.49864185       0.25002142       0.50791840 </v>
   <v>       0.74774415       0.25588988       0.51259488 </v>
   <v>       0.99818643       0.50031344       0.50117342 </v>
   <v>       0.25197316       0.50347845       0.49982972 </v>
   <v>       0.49350568       0.48705190       0.50825997 </v>
   <v>       0.75544532       0.49844771       0.50027468 </v>
   <v>       0.99528120       0.74165810       0.50894273 </v>
   <v>       0.25117056       0.73726249       0.49892098 </v>
   <v>       0.49896817       0.74109368       0.49088789 </v>
   <v>       0.74238708       0.73775223       0.51103056 </v>
   <v>       0.99974237       0.00771528       0.73854309 </v>
   <v>       0.24476428       0.00973900       0.75189010 </v>
   <v>       0.48467922       0.00559260       0.75539349 </v>
   <v>       0.75763544       0.99983507       0.74727122 </v>
   <v>       0.99883736       0.25047757       0.75092733 </v>
   <v>       0.25356736       0.26029020       0.74198631 </v>
   <v>       0.49752194       0.25892780       0.74154477 </v>
   <v>       0.75382433       0.25012061       0.75143470 </v>
   <v>       0.98004305       0.50157791       0.75642758 </v>
   <v>       0.25950725       0.49825187       0.74698973 </v>
   <v>       0.48477708       0.50239240       0.75391361 </v>
   <v>       0.74742421       0.50609163       0.74615939 </v>
   <v>       0.00363048       0.75521176       0.75087534 </v>
   <v>       0.24510706       0.75151073       0.75805367 </v>
   <v>       0.48834632       0.75921457       0.75472083 </v>
   <v>       0.74933350       0.75624796       0.74614450 </v>
   <v>       0.07321595       0.06286686       0.04908260 </v>
   <v>       0.31685264       0.06450934       0.05581257 </v>
   <v>       0.56282156       0.06510350       0.06396605 </v>
   <v>       0.80982284       0.04964262       0.07074454 </v>
   <v>       0.06471465       0.30272899       0.05986646 </v>
   <v>       0.30377188       0.30726939       0.07758454 </v>
   <v>       0.56305640       0.31694160       0.05836696 </v>
   <v>       0.80855767       0.31931603       0.06597354 </v>
   <v>       0.06214898       0.55765403       0.05395575 </v>
   <v>       0.32334855       0.56104976       0.05304966 </v>
   <v>       0.56259272       0.55780582       0.06879918 </v>
   <v>       0.82236392       0.55846574       0.05541197 </v>
   <v>       0.05078346       0.82359669       0.05427234 </v>
   <v>       0.31286312       0.80834105       0.06012956 </v>
   <v>       0.55840481       0.81642057       0.05245663 </v>
   <v>       0.82660779       0.82042224       0.04241236 </v>
   <v>       0.06273305       0.06545662       0.32206737 </v>
   <v>       0.29445972       0.05742452       0.31371881 </v>
   <v>       0.57720323       0.05538622       0.30528024 </v>
   <v>       0.80177642       0.06246354       0.31442914 </v>
   <v>       0.06932221       0.31303870       0.30911796 </v>
   <v>       0.30606815       0.30969880       0.31346833 </v>
   <v>       0.55481944       0.32315917       0.31348656 </v>
   <v>       0.81938988       0.31486210       0.30330022 </v>
   <v>       0.06052942       0.55564711       0.31664815 </v>
   <v>       0.30975056       0.56419340       0.30937873 </v>
   <v>       0.55665031       0.55890746       0.32660078 </v>
   <v>       0.81958506       0.55349047       0.31061497 </v>
   <v>       0.06083409       0.81636294       0.30633041 </v>
   <v>       0.32003365       0.80047748       0.30580735 </v>
   <v>       0.57907683       0.80036083       0.30140682 </v>
   <v>       0.81614712       0.80237141       0.32679260 </v>
   <v>       0.06651544       0.06563183       0.55855999 </v>
   <v>       0.31767631       0.05922527       0.56176034 </v>
   <v>       0.56349462       0.05839839       0.56122020 </v>
   <v>       0.80536499       0.05445747       0.56037571 </v>
   <v>       0.05829203       0.30906806       0.56657545 </v>
   <v>       0.31167682       0.30522861       0.55893733 </v>
   <v>       0.56040192       0.30512519       0.56834270 </v>
   <v>       0.81450782       0.32345346       0.55765541 </v>
   <v>       0.04226410       0.56960110       0.56464535 </v>
   <v>       0.31366281       0.55987895       0.56013598 </v>
   <v>       0.57084172       0.55720757       0.56450457 </v>
   <v>       0.81038446       0.56085027       0.56552961 </v>
   <v>       0.06135286       0.81154817       0.56930903 </v>
   <v>       0.30327095       0.81160980       0.57768786 </v>
   <v>       0.56064167       0.82069434       0.55336136 </v>
   <v>       0.80017144       0.81920364       0.56552421 </v>
   <v>       0.04396179       0.06610960       0.81402905 </v>
   <v>       0.31034487       0.06484385       0.81274058 </v>
   <v>       0.54985239       0.07932024       0.80065652 </v>
   <v>       0.80511622       0.06857358       0.81045374 </v>
   <v>       0.06660339       0.31203542       0.81269099 </v>
   <v>       0.31521661       0.31141130       0.80886679 </v>
   <v>       0.56303625       0.30378043       0.80791243 </v>
   <v>       0.81375158       0.31015543       0.80980326 </v>
   <v>       0.05913218       0.56806713       0.81035406 </v>
   <v>       0.31027609       0.57456026       0.80756192 </v>
   <v>       0.55921564       0.57137981       0.81345531 </v>
   <v>       0.79522425       0.57169126       0.82097445 </v>
   <v>       0.06214121       0.81608869       0.81339665 </v>
   <v>       0.31095974       0.81900118       0.81183294 </v>
   <v>       0.55593917       0.81873664       0.82208702 </v>
   <v>       0.80437695       0.81768878       0.80509486 </v>
  </varray>
 </structure>
 <calculation>
  <scstep>
   <time name="dav">   69.84   69.85</time>
   <time name="total">   70.84   70.86</time>
   <energy>
    <i name="alphaZ">    210.77028614 </i>
    <i name="ewald"> -14470.79212086 </i>
    <i name="hartreedc">   -757.75117621 </i>
    <i name="XCdc">  -1195.34230227 </i>
    <i name="pawpsdc">   4221.13331941 </i>
    <i name="pawaedc">  -1969.18571412 </i>
    <i name="eentropy">     -0.00244627 </i>
    <i name="bandstr">   2151.50128884 </i>
    <i name="atom">  13192.48085998 </i>
    <i name="e_fr_energy">   1382.81199464 </i>
    <i name="e_wo_entrp">   1382.81444091 </i>
    <i name="e_0_energy">   1382.81321777 </i>
   </energy>
  </scstep>
  <scstep>
   <time name="dav">   79.63   79.66</time>
   <time name="total">   79.63   79.66</time>
   <energy>
    <i name="e_fr_energy">   -537.79869655 </i>
    <i name="e_wo_entrp">   -537.79869655 </i>
    <i name="e_0_energy">   -537.79869655 </i>
   </energy>
  </scstep>
  <scstep>
   <time name="dav">   81.55   81.58</time>
   <time name="total">   81.55   81.58</time>
   <energy>
    <i name="e_fr_energy">   -687.24750723 </i>
    <i name="e_wo_entrp">   -687.24750723 </i>
    <i name="e_0_energy">   -687.24750723 </i>
   </energy>
  </scstep>
  <scstep>
   <time name="dav">   80.38   80.41</time>
   <time name="total">   80.38   80.41</time>
   <energy>
    <i name="e_fr_energy">   -691.40697372 </i>
    <i name="e_wo_entrp">   -691.40697372 </i>
    <i name="e_0_energy">   -691.40697372 </i>
   </energy>
  </scstep>
  <scstep>
   <time name="dav">   81.55   81.58</time>
   <time name="total">   84.78   84.82</time>
   <energy>
    <i name="e_fr_energy">   -691.55409019 </i>
    <i name="e_wo_entrp">   -691.55409019 </i>
    <i name="e_0_energy">   -691.55409019 </i>
   </energy>
  </scstep>
  <scstep>
   <time name="dav">   77.33   77.35</time>
   <time name="total">   81.57   81.59</time>
   <energy>
    <i name="e_fr_energy">   -683.10215935 </i>
    <i name="e_wo_entrp">   -683.10215935 </i>
    <i name="e_0_energy">   -683.10215935 </i>
   </energy>
  </scstep>
  <scstep>
   <time name="dav">   77.30   77.32</time>
   <time name="total">   81.53   81.57</time>
   <energy>
    <i name="e_fr_energy">   -679.58734718 </i>
    <i name="e_wo_entrp">   -679.58734718 </i>
    <i name="e_0_energy">   -679.58734718 </i>
   </energy>
  </scstep>
  <scstep>
   <time name="dav">   76.40   76.42</time>
   <time name="total">   80.66   80.68</time>
   <energy>
    <i name="e_fr_energy">   -679.64007302 </i>
    <i name="e_wo_entrp">   -679.64007302 </i>
    <i name="e_0_energy">   -679.64007302 </i>
   </energy>
  </scstep>
  <scstep>
   <time name="dav">   78.64   78.67</time>
   <time name="total">   82.90   82.92</time>
   <energy>
    <i name="e_fr_energy">   -679.66304393 </i>
    <i name="e_wo_entrp">   -679.66304393 </i>
    <i name="e_0_energy">   -679.66304393 </i>
   </energy>
  </scstep>
  <scstep>
   <time name="dav">   78.54   78.57</time>
   <time name="total">   82.79   82.82</time>
   <energy>
    <i name="e_fr_energy">   -679.66546752 </i>
    <i name="e_wo_entrp">   -679.66546752 </i>
    <i name="e_0_energy">   -679.66546752 </i>
   </energy>
  </scstep>
  <scstep>
   <time name="dav">   76.20   76.22</time>
   <time name="total">   80.45   80.47</time>
   <energy>
    <i name="e_fr_energy">   -679.66712310 </i>
    <i name="e_wo_entrp">   -679.66712310 </i>
    <i name="e_0_energy">   -679.66712310 </i>
   </energy>
  </scstep>
  <scstep>
   <time name="dav">   79.26   79.28</time>
   <time name="total">   83.52   83.55</time>
   <energy>
    <i name="e_fr_energy">   -679.66716287 </i>
    <i name="e_wo_entrp">   -679.66716287 </i>
    <i name="e_0_energy">   -679.66716287 </i>
   </energy>
  </scstep>
  <scstep>
   <time name="dav">   76.11   76.14</time>
   <time name="total">   80.37   80.39</time>
   <energy>
    <i name="e_fr_energy">   -679.66719534 </i>
    <i name="e_wo_entrp">   -679.66719534 </i>
    <i name="e_0_energy">   -679.66719534 </i>
   </energy>
  </scstep>
  <scstep>
   <time name="dav">   79.00   79.02</time>
   <time name="total">   83.26   83.28</time>
   <energy>
    <i name="e_fr_energy">   -679.66719825 </i>
    <i name="e_wo_entrp">   -679.66719825 </i>
    <i name="e_0_energy">   -679.66719825 </i>
   </energy>
  </scstep>
  <scstep>
   <time name="dav">   79.06   79.09</time>
   <time name="total">   83.31   83.34</time>
   <energy>
    <i name="e_fr_energy">   -679.66720273 </i>
    <i name="e_wo_entrp">   -679.66720273 </i>
    <i name="e_0_energy">   -679.66720273 </i>
   </energy>
  </scstep>
  <scstep>
   <time name="dav">   78.93   78.95</time>
   <time name="total">   83.14   83.16</time>
   <energy>
    <i name="e_fr_energy">   -679.66720228 </i>
    <i name="e_wo_entrp">   -679.66720228 </i>
    <i name="e_0_energy">   -679.66720228 </i>
   </energy>
  </scstep>
  <scstep>
   <time name="dav">   68.85   68.86</time>
   <time name="total">   73.07   73.08</time>
   <energy>
    <i name="e_fr_energy">   -679.66720210 </i>
    <i name="e_wo_entrp">   -679.66720210 </i>
    <i name="e_0_energy">   -679.66720210 </i>
   </energy>
  </scstep>
  <scstep>
   <time name="dav">   51.67   51.69</time>
   <time name="total">   55.88   55.90</time>
   <energy>
    <i name="e_fr_energy">   -679.66720226 </i>
    <i name="e_wo_entrp">   -679.66720226 </i>
    <i name="e_0_energy">   -679.66720226 </i>
   </energy>
  </scstep>
  <scstep>
   <time name="dav">   50.82   50.83</time>
   <time name="total">   55.03   55.05</time>
   <energy>
    <i name="e_fr_energy">   -679.66720223 </i>
    <i name="e_wo_entrp">   -679.66720223 </i>
    <i name="e_0_energy">   -679.66720223 </i>
   </energy>
  </scstep>
  <scstep>
   <time name="dav">   50.52   50.53</time>
   <time name="total">   54.74   54.75</time>
   <energy>
    <i name="e_fr_energy">   -679.66720224 </i>
    <i name="e_wo_entrp">   -679.66720224 </i>
    <i name="e_0_energy">   -679.66720224 </i>
   </energy>
  </scstep>
  <scstep>
   <time name="dav">   49.69   49.70</time>
   <time name="total">   50.69   50.70</time>
   <energy>
    <i name="alphaZ">    210.77028614 </i>
    <i name="ewald"> -14470.79212086 </i>
    <i name="hartreedc">  -1003.15523502 </i>
    <i name="XCdc">  -1155.83175152 </i>
    <i name="pawpsdc">   4730.09380789 </i>
    <i name="pawaedc">  -2491.79880997 </i>
    <i name="eentropy">     -0.00000000 </i>
    <i name="bandstr">    308.56576112 </i>
    <i name="atom">  13192.48085998 </i>
    <i name="e_fr_energy">   -679.66720223 </i>
    <i name="e_wo_entrp">   -679.66720223 </i>
    <i name="e_0_energy">   -679.66720223 </i>
   </energy>
  </scstep>
  <structure>
   <crystal>
    <varray name="basis" >
     <v>       0.00000000      10.93733369      10.93733369 </v>
     <v>      10.93733369       0.00000000      10.93733369 </v>
     <v>      10.93733369      10.93733369       0.00000000 </v>
    </varray>
    <i name="volume">   2616.76295363 </i>
    <varray name="rec_basis" >
     <v>      -0.04571498       0.04571498       0.04571498 </v>
     <v>       0.04571498      -0.04571498       0.04571498 </v>
     <v>       0.04571498       0.04571498      -0.04571498 </v>
    </varray>
   </crystal>
   <varray name="positions" >
    <v>       0.99278031       0.00521085       0.00072409 </v>
    <v>       0.25172908       0.01450042       0.99983834 </v>
    <v>       0.50295265       0.99213825       0.99964975 </v>
    <v>       0.75242249       0.99262492       0.00843972 </v>
    <v>       0.00669674       0.24819008       0.99611470 </v>
    <v>       0.25405991       0.25506754       0.99252314 </v>
    <v>       0.49575203       0.25520607       0.99894372 </v>
    <v>       0.75341302       0.25876576       0.00297645 </v>
    <v>       0.99897412       0.49919823       0.99979615 </v>
    <v>       0.24809228       0.49716554       0.01257819 </v>
    <v>       0.50778394       0.49436950       0.00412445 </v>
    <v>       0.74133373       0.50188523       0.99902995 </v>
    <v>       0.00732908       0.74164462       0.99684199 </v>
    <v>       0.25451707       0.74308009       0.00149062 </v>
    <v>       0.49173437       0.75662090       0.00010826 </v>
    <v>       0.75421155       0.74857233       0.00314025 </v>
    <v>       0.99462201       0.00116444       0.25383777 </v>
    <v>       0.25247619       0.98796142       0.25188948 </v>
    <v>       0.49917234       0.00567735       0.25406322 </v>
    <v>       0.74260705       0.99499298       0.26131353 </v>
    <v>       0.99793054       0.24926871       0.24831445 </v>
    <v>       0.24449732       0.24039054       0.25597286 </v>
    <v>       0.50135394       0.24844588       0.25727785 </v>
    <v>       0.74904793       0.23938789       0.25987397 </v>
    <v>       0.99849621       0.49480605       0.23916241 </v>
    <v>       0.25632166       0.49521607       0.24912366 </v>
    <v>       0.49500360       0.50442239       0.25895349 </v>
    <v>       0.75104328       0.49387036       0.24400616 </v>
    <v>       0.99109488       0.74548587       0.25231380 </v>
    <v>       0.24964461       0.74863385       0.25249366 </v>
    <v>       0.49499397       0.74334935       0.24895703 </v>
    <v>       0.75253821       0.74368975       0.25183656 </v>
    <v>       0.00019039       0.00043315       0.50725434 </v>
    <v>       0.24739447       0.99979889       0.49489569 </v>
    <v>       0.50117380       0.00187560       0.49496104 </v>
    <v>       0.74752393       0.00049893       0.49549188 </v>
    <v>       0.00605452       0.24900632       0.50036489 </v>
    <v>       0.24585502       0.24510277       0.50507722 </v>
    <v>       0.49864185       0.25002142       0.50791840 </v>
    <v>       0.74774415       0.25588988       0.51259488 </v>
    <v>       0.99818643       0.50031344       0.50117342 </v>
    <v>       0.25197316       0.50347845       0.49982972 </v>
    <v>       0.49350568       0.48705190       0.50825997 </v>
    <v>       0.75544532       0.49844771       0.50027468 </v>
    <v>       0.99528120       0.74165810       0.50894273 </v>
    <v>       0.25117056       0.73726249       0.49892098 </v>
    <v>       0.49896817       0.74109368       0.49088789 </v>
    <v>       0.74238708       0.73775223       0.51103056 </v>
    <v>       0.99974237       0.00771528       0.73854309 </v>
    <v>       0.24476428       0.00973900       0.75189010 </v>
    <v>       0.48467922       0.00559260       0.75539349 </v>
    <v>       0.75763544       0.99983507       0.74727122 </v>
    <v>       0.99883736       0.25047757       0.75092733 </v>
    <v>       0.25356736       0.26029020       0.74198631 </v>
    <v>       0.49752194       0.25892780       0.74154477 </v>
    <v>       0.75382433       0.25012061       0.75143470 </v>
    <v>       0.98004305       0.50157791       0.75642758 </v>
    <v>       0.25950725       0.49825187       0.74698973 </v>
    <v>       0.48477708       0.50239240       0.75391361 </v>
    <v>       0.74742421       0.50609163       0.74615939 </v>
    <v>       0.00363048       0.75521176       0.75087534 </v>
    <v>       0.24510706       0.75151073       0.75805367 </v>
    <v>       0.48834632       0.75921457       0.75472083 </v>
    <v>       0.74933350       0.75624796       0.74614450 </v>
    <v>       0.07321595       0.06286686       0.04908260 </v>
    <v>       0.31685264       0.06450934       0.05581257 </v>
    <v>       0.56282156       0.06510350       0.06396605 </v>
    <v>       0.80982284       0.04964262       0.07074454 </v>
    <v>       0.06471465       0.30272899       0.05986646 </v>
    <v>       0.30377188       0.30726939       0.07758454 </v>
    <v>       0.56305640       0.31694160       0.05836696 </v>
    <v>       0.80855767       0.31931603       0.06597354 </v>
    <v>       0.06214898       0.55765403       0.05395575 </v>
    <v>       0.32334855       0.56104976       0.05304966 </v>
    <v>       0.56259272       0.55780582       0.06879918 </v>
    <v>       0.82236392       0.55846574       0.05541197 </v>
    <v>       0.05078346       0.82359669       0.05427234 </v>
    <v>       0.31286312       0.80834105       0.06012956 </v>
    <v>       0.55840481       0.81642057       0.05245663 </v>
    <v>       0.82660779       0.82042224       0.04241236 </v>
    <v>       0.06273305       0.06545662       0.32206737 </v>
    <v>       0.29445972       0.05742452       0.31371881 </v>
    <v>       0.57720323       0.05538622       0.30528024 </v>
    <v>       0.80177642       0.06246354       0.31442914 </v>
    <v>       0.06932221       0.31303870       0.30911796 </v>
    <v>       0.30606815       0.30969880       0.31346833 </v>
    <v>       0.55481944       0.32315917       0.31348656 </v>
    <v>       0.81938988       0.31486210       0.30330022 </v>
    <v>       0.06052942       0.55564711       0.31664815 </v>
    <v>       0.30975056       0.56419340       0.30937873 </v>
    <v>       0.55665031       0.55890746       0.32660078 </v>
    <v>       0.81958506       0.55349047       0.31061497 </v>
    <v>       0.06083409       0.81636294       0.30633041 </v>
    <v>       0.32003365       0.80047748       0.30580735 </v>
    <v>       0.57907683       0.80036083       0.30140682 </v>
    <v>       0.81614712       0.80237141       0.32679260 </v>
    <v>       0.06651544       0.06563183       0.55855999 </v>
    <v>       0.31767631       0.05922527       0.56176034 </v>
    <v>       0.56349462       0.05839839       0.56122020 </v>
    <v>       0.80536499       0.05445747       0.56037571 </v>
    <v>       0.05829203       0.30906806       0.56657545 </v>
    <v>       0.31167682       0.30522861       0.55893733 </v>
    <v>       0.56040192       0.30512519       0.56834270 </v>
    <v>       0.81450782       0.32345346       0.55765541 </v>
    <v>       0.04226410       0.56960110       0.56464535 </v>
    <v>       0.31366281       0.55987895       0.56013598 </v>
    <v>       0.57084172       0.55720757       0.56450457 </v>
    <v>       0.81038446       0.56085027       0.56552961 </v>
    <v>       0.06135286       0.81154817       0.56930903 </v>
    <v>       0.30327095       0.81160980       0.57768786 </v>
    <v>       0.56064167       0.82069434       0.55336136 </v>
    <v>       0.80017144       0.81920364       0.56552421 </v>
    <v>       0.04396179       0.06610960       0.81402905 </v>
    <v>       0.31034487       0.06484385       0.81274058 </v>
    <v>       0.54985239       0.07932024       0.80065652 </v>
    <v>       0.80511622       0.06857358       0.81045374 </v>
    <v>       0.06660339       0.31203542       0.81269099 </v>
    <v>       0.31521661       0.31141130       0.80886679 </v>
    <v>       0.56303625       0.30378043       0.80791243 </v>
    <v>       0.81375158       0.31015543       0.80980326 </v>
    <v>       0.05913218       0.56806713       0.81035406 </v>
    <v>       0.31027609       0.57456026       0.80756192 </v>
    <v>       0.55921564       0.57137981       0.81345531 </v>
    <v>       0.79522425       0.57169126       0.82097445 </v>
    <v>       0.06214121       0.81608869       0.81339665 </v>
    <v>       0.31095974       0.81900118       0.81183294 </v>
    <v>       0.55593917       0.81873664       0.82208702 </v>
    <v>       0.80437695       0.81768878       0.80509486 </v>
   </varray>
  </structure>
  <varray name="forces" >
   <v>      -0.34605586      -0.13031504       0.36990602 </v>
   <v>      -2.89716396      -0.64025971      -1.90509071 </v>
   <v>       1.12612046      -1.19038084       1.96382304 </v>
   <v>       0.05096034      -2.53979547       0.65998543 </v>
   <v>       0.02544668      -1.20071295      -1.29501355 </v>
   <v>       0.30828399       0.47886678      -0.87559676 </v>
   <v>      -0.44124162       0.05588806      -0.24681177 </v>
   <v>      -1.73818768      -0.82641351      -1.65947972 </v>
   <v>      -2.34553159      -0.01798568      -0.24398599 </v>
   <v>      -1.37307324      -1.13722081       0.07021879 </v>
   <v>       0.05657552      -1.27366121       0.74676758 </v>
   <v>       0.71499156       1.36157942       0.71202721 </v>
   <v>       0.33845425      -0.38511501       0.44571788 </v>
   <v>       0.66519759      -1.65673149      -0.13806421 </v>
   <v>      -1.16348661       1.12274360      -0.87475657 </v>
   <v>      -0.69278376      -1.40875212      -0.18606709 </v>
   <v>      -0.00577131      -0.26043229       0.94079587 </v>
   <v>      -0.95211629      -1.69759193      -0.44846300 </v>
   <v>      -1.43218398      -0.76726244      -1.52130198 </v>
   <v>      -3.14043079       1.86553662       1.45247131 </v>
   <v>      -0.24287430       1.08830072       1.17900982 </v>
   <v>       0.00747790       0.95330443       0.55217446 </v>
   <v>      -0.78199516      -1.02521519      -0.25260093 </v>
   <v>       1.23884961      -1.59688225       1.35309818 </v>
   <v>       0.80563720       1.32240875       1.13567323 </v>
   <v>      -0.06251888      -1.28572641      -0.34317533 </v>
   <v>      -0.42731667      -0.67383178       0.35356627 </v>
   <v>       1.26020962      -0.30353328       0.62336495 </v>
   <v>      -0.94309803       0.86382398       1.84174222 </v>
   <v>      -1.06162508      -1.66057438      -0.54568076 </v>
   <v>      -0.82367575       0.92871342       2.19600955 </v>
   <v>      -1.36136834       1.02775486       1.99772791 </v>
   <v>      -0.36763816      -0.87046278      -0.84169372 </v>
   <v>       0.29535642       1.47010658       0.10479603 </v>
   <v>      -0.26606856      -0.12015603       0.70612481 </v>
   <v>       0.00494767      -0.42509873      -0.80653430 </v>
   <v>      -0.24757746      -1.51192636      -0.32897802 </v>
   <v>      -0.71537085      -0.77029458      -0.03179365 </v>
   <v>      -1.73944872      -1.10051780      -0.80163473 </v>
   <v>      -2.39785926      -1.13104904      -0.61122804 </v>
   <v>      -0.75728814      -0.45402622      -0.92121906 </v>
   <v>      -0.83222588      -1.24692070      -1.95705535 </v>
   <v>       0.68867261       0.97991180       1.63719758 </v>
   <v>       0.31692269      -1.18454367       0.66698356 </v>
   <v>       1.61211603      -1.99465047       2.00858887 </v>
   <v>       1.77771444      -0.46390117       1.41249603 </v>
   <v>       1.42482229       0.39892092       0.80089861 </v>
   <v>       1.17029687      -0.37310809       1.65210341 </v>
   <v>       0.38484417       0.23853215      -1.61055563 </v>
   <v>      -0.52612551      -0.74532782      -1.28475008 </v>
   <v>      -1.69669160       0.83709592       1.46946733 </v>
   <v>       0.11645383      -2.14536586      -1.33704020 </v>
   <v>       0.17091087       0.21169654      -0.00076953 </v>
   <v>      -0.77119009      -0.13619797      -1.39538842 </v>
   <v>       0.53039474       0.49947969      -1.24326117 </v>
   <v>      -0.37554345      -1.64204369      -0.28390535 </v>
   <v>      -0.10612959       0.79919407       1.19353452 </v>
   <v>       0.87690937      -0.97029178      -0.73711384 </v>
   <v>      -1.14693098       2.12065097       1.82994816 </v>
   <v>       0.29935497       0.61472931      -1.02832429 </v>
   <v>       0.07504796      -0.66546431      -1.31727742 </v>
   <v>       0.75349257      -0.19485134       0.80249385 </v>
   <v>      -1.20919243       0.62050131       1.58673925 </v>
   <v>       0.34759431      -0.91463244      -1.42045375 </v>
   <v>       1.60314258       0.19141699      -1.38822566 </v>
   <v>       1.81023653       1.68190407       0.84159560 </v>
   <v>      -0.17429893      -0.07346738      -0.62463688 </v>
   <v>       2.10444929       0.24580673       1.60970941 </v>
   <v>       1.19646234       0.67947622       1.43518563 </v>
   <v>      -1.11866736      -0.78491212       1.47272878 </v>
   <v>      -0.30286343       1.38196399      -0.84789153 </v>
   <v>      -0.43590860       1.53348085       0.15056995 </v>
   <v>       0.96044638       1.30908909       0.84393731 </v>
   <v>       1.03348187       0.95163936      -0.72823254 </v>
   <v>       1.61460614      -0.59165198       0.04718356 </v>
   <v>       1.31164755      -1.32259317      -1.12671829 </v>
   <v>      -0.58334451       2.32609938      -0.39666264 </v>
   <v>       1.90532390      -0.31461728       0.26253533 </v>
   <v>      -0.21878403       2.53065804      -0.54022316 </v>
   <v>       0.06067851       1.44173992      -2.49748473 </v>
   <v>      -1.31745130      -0.59273396      -0.80457578 </v>
   <v>       0.06806956       2.14288930       2.09941230 </v>
   <v>       3.43014752      -2.14323785      -1.69846464 </v>
   <v>      -0.94928627       1.07714087       0.67388628 </v>
   <v>       0.42514135      -1.13221183      -1.66678735 </v>
   <v>      -0.25990335       1.16625402       0.20947605 </v>
   <v>      -0.41195202       1.51468528      -0.44608774 </v>
   <v>       0.84305134       0.57987689      -2.25242534 </v>
   <v>      -0.92019813      -0.74729048       0.54068941 </v>
   <v>       0.53129014       0.83361489      -0.18282251 </v>
   <v>      -1.15089322      -0.08690042       0.68308291 </v>
   <v>       0.47108496      -1.05965467      -0.74113234 </v>
   <v>       0.17489757       0.65203616      -1.16594327 </v>
   <v>       2.38010759       0.31646621      -0.41652498 </v>
   <v>       2.18593809      -2.13309723      -1.32173605 </v>
   <v>       0.53686207      -1.81050854      -1.04024677 </v>
   <v>       0.12576588      -0.26852557      -0.20500703 </v>
   <v>       0.12602371      -0.74164513      -0.72504022 </v>
   <v>       1.12688198      -0.18452114      -0.22471912 </v>
   <v>       1.75148826       1.48995570       2.38541102 </v>
   <v>       0.66741071       0.50006774       1.05082941 </v>
   <v>       1.34211443       0.16892389       1.57990143 </v>
   <v>      -0.50777255      -0.17024557       1.70106213 </v>
   <v>      -0.51211430       2.13126996      -0.98748717 </v>
   <v>      -0.84276633       2.94351094       0.07801791 </v>
   <v>       0.44414684       0.88161840      -0.55848955 </v>
   <v>       0.04509101      -0.92636870      -1.42760797 </v>
   <v>      -0.74840872       0.59155387       0.06869680 </v>
   <v>      -1.25771060      -0.48832753       0.06998943 </v>
   <v>      -2.38115429      -1.15418783       0.55431039 </v>
   <v>      -0.39030221       0.34593958      -2.10938873 </v>
   <v>      -1.90558999       0.44462381      -0.11773265 </v>
   <v>      -0.00321287       1.32028464       1.44001309 </v>
   <v>       1.78678397      -0.96199165      -0.06944683 </v>
   <v>      -0.74395426       2.39935728      -0.46558545 </v>
   <v>      -0.08537321       1.65641304       0.32549966 </v>
   <v>       0.07091298      -0.88828534       0.08533368 </v>
   <v>       0.83110494      -0.03401447       0.80750499 </v>
   <v>       1.99008072       0.55900938       1.23610096 </v>
   <v>       1.93897184       0.68133736       0.70281871 </v>
   <v>      -0.89923368       0.17920704      -0.17522254 </v>
   <v>       0.17829259       0.61676111      -2.42749803 </v>
   <v>      -0.62578978      -0.35137716      -0.90201243 </v>
   <v>      -1.34888258      -0.52810117       0.40661252 </v>
   <v>       0.30248190      -0.38921615       0.34471775 </v>
   <v>       0.97849787      -0.40034988      -0.76057704 </v>
   <v>      -1.30698176      -1.00190510       0.44371174 </v>
   <v>       0.99340639       2.69535202       0.92172603 </v>
  </varray>
  <varray name="stress" >
   <v>      12.69045876      -2.69510789       8.59397399 </v>
   <v>      -2.69510790      12.35879247       8.03581630 </v>
   <v>       8.59397399       8.03581629      11.48981713 </v>
  </varray>
  <energy>
   <i name="e_fr_energy">   -679.66720223 </i>
   <i name="e_wo_entrp">   -679.66720223 </i>
   <i name="e_0_energy">     -0.00000000 </i>
  </energy>
  <time name="totalsc"> 1707.27 1707.80</time>
  <eigenvalues>
   <array>
    <dimension dim="1">band</dimension>
    <dimension dim="2">kpoint</dimension>
    <dimension dim="3">spin</dimension>
    <field>eigene</field>
    <field>occ</field>
    <set>
     <set comment="spin 1">
      <set comment="kpoint 1">
       <r>   -6.2971    1.0000 </r>
       <r>   -5.6967    1.0000 </r>
       <r>   -5.6629    1.0000 </r>
       <r>   -5.6124    1.0000 </r>
       <r>   -5.5635    1.0000 </r>
       <r>   -5.5396    1.0000 </r>
       <r>   -5.4729    1.0000 </r>
       <r>   -5.4600    1.0000 </r>
       <r>   -5.3807    1.0000 </r>
       <r>   -5.3216    1.0000 </r>
       <r>   -5.2805    1.0000 </r>
       <r>   -5.2766    1.0000 </r>
       <r>   -5.1235    1.0000 </r>
       <r>   -5.0925    1.0000 </r>
       <r>   -5.0491    1.0000 </r>
       <r>   -4.5640    1.0000 </r>
       <r>   -4.4769    1.0000 </r>
       <r>   -4.4357    1.0000 </r>
       <r>   -4.4223    1.0000 </r>
       <r>   -4.3685    1.0000 </r>
       <r>   -4.3243    1.0000 </r>
       <r>   -4.2976    1.0000 </r>
       <r>   -4.2601    1.0000 </r>
       <r>   -4.2153    1.0000 </r>
       <r>   -4.1899    1.0000 </r>
       <r>   -4.1505    1.0000 </r>
       <r>   -4.1042    1.0000 </r>
       <r>   -4.0481    1.0000 </r>
       <r>   -4.0047    1.0000 </r>
       <r>   -3.9562    1.0000 </r>
       <r>   -3.8932    1.0000 </r>
       <r>   -3.8711    1.0000 </r>
       <r>   -3.8420    1.0000 </r>
       <r>   -3.7807    1.0000 </r>
       <r>   -3.7599    1.0000 </r>
       <r>   -3.7441    1.0000 </r>
       <r>   -3.7281    1.0000 </r>
       <r>   -3.7004    1.0000 </r>
       <r>   -3.6536    1.0000 </r>
       <r>   -3.6125    1.0000 </r>
       <r>   -3.6010    1.0000 </r>
       <r>   -3.5893    1.0000 </r>
       <r>   -3.5466    1.0000 </r>
       <r>   -3.5309    1.0000 </r>
       <r>   -3.5200    1.0000 </r>
       <r>   -3.5142    1.0000 </r>
       <r>   -3.4463    1.0000 </r>
       <r>   -3.4326    1.0000 </r>
       <r>   -3.4190    1.0000 </r>
       <r>   -3.3903    1.0000 </r>
       <r>   -3.3625    1.0000 </r>
       <r>   -3.3212    1.0000 </r>
       <r>   -3.3043    1.0000 </r>
       <r>   -3.2802    1.0000 </r>
       <r>   -3.2190    1.0000 </r>
       <r>   -2.3970    1.0000 </r>
       <r>   -2.3268    1.0000 </r>
       <r>   -2.3056    1.0000 </r>
       <r>   -2.2677    1.0000 </r>
       <r>   -2.1814    1.0000 </r>
       <r>   -2.1383    1.0000 </r>
       <r>   -2.1036    1.0000 </r>
       <r>   -2.0988    1.0000 </r>
       <r>   -2.0771    1.0000 </r>
       <r>   -2.0604    1.0000 </r>
       <r>   -2.0167    1.0000 </r>
       <r>   -1.9797    1.0000 </r>
       <r>   -1.9503    1.0000 </r>
       <r>   -1.9154    1.0000 </r>
       <r>   -1.8826    1.0000 </r>
       <r>   -1.8403    1.0000 </r>
       <r>   -1.7770    1.0000 </r>
       <r>   -1.7320    1.0000 </r>
       <r>   -1.4109    1.0000 </r>
       <r>   -1.3747    1.0000 </r>
       <r>   -1.2598    1.0000 </r>
       <r>   -1.1527    1.0000 </r>
       <r>   -1.0518    1.0000 </r>
       <r>   -0.9902    1.0000 </r>
       <r>   -0.9332    1.0000 </r>
       <r>   -0.9157    1.0000 </r>
       <r>   -0.9000    1.0000 </r>
       <r>   -0.8699    1.0000 </r>
       <r>   -0.8390    1.0000 </r>
       <r>   -0.8213    1.0000 </r>
       <r>   -0.8145    1.0000 </r>
       <r>   -0.7735    1.0000 </r>
       <r>   -0.7484    1.0000 </r>
       <r>   -0.7330    1.0000 </r>
       <r>   -0.7183    1.0000 </r>
       <r>   -0.6909    1.0000 </r>
       <r>   -0.6691    1.0000 </r>
       <r>   -0.6223    1.0000 </r>
       <r>   -0.6111    1.0000 </r>
       <r>   -0.5915    1.0000 </r>
       <r>   -0.5601    1.0000 </r>
       <r>   -0.5413    1.0000 </r>
       <r>   -0.5017    1.0000 </r>
       <r>   -0.4824    1.0000 </r>
       <r>   -0.4567    1.0000 </r>
       <r>   -0.4115    1.0000 </r>
       <r>   -0.0349    1.0000 </r>
       <r>    0.0551    1.0000 </r>
       <r>    0.0664    1.0000 </r>
       <r>    0.1305    1.0000 </r>
       <r>    0.1365    1.0000 </r>
       <r>    0.1717    1.0000 </r>
       <r>    0.2012    1.0000 </r>
       <r>    0.2285    1.0000 </r>
       <r>    0.2440    1.0000 </r>
       <r>    0.2867    1.0000 </r>
       <r>    0.3267    1.0000 </r>
       <r>    0.4153    1.0000 </r>
       <r>    1.4186    1.0000 </r>
       <r>    1.4487    1.0000 </r>
       <r>    1.4899    1.0000 </r>
       <r>    1.5197    1.0000 </r>
       <r>    1.5407    1.0000 </r>
       <r>    1.5787    1.0000 </r>
       <r>    1.5918    1.0000 </r>
       <r>    1.6096    1.0000 </r>
       <r>    1.6150    1.0000 </r>
       <r>    1.6314    1.0000 </r>
       <r>    1.6706    1.0000 </r>
       <r>    1.6881    1.0000 </r>
       <r>    1.6966    1.0000 </r>
       <r>    1.7196    1.0000 </r>
       <r>    1.7561    1.0000 </r>
       <r>    1.7817    1.0000 </r>
       <r>    1.7873    1.0000 </r>
       <r>    1.7950    1.0000 </r>
       <r>    1.8114    1.0000 </r>
       <r>    1.8205    1.0000 </r>
       <r>    1.8427    1.0000 </r>
       <r>    1.8469    1.0000 </r>
       <r>    1.8752    1.0000 </r>
       <r>    1.8788    1.0000 </r>
       <r>    1.9085    1.0000 </r>
       <r>    1.9133    1.0000 </r>
       <r>    1.9209    1.0000 </r>
       <r>    1.9272    1.0000 </r>
       <r>    1.9415    1.0000 </r>
       <r>    1.9584    1.0000 </r>
       <r>    1.9796    1.0000 </r>
       <r>    1.9959    1.0000 </r>
       <r>    2.0082    1.0000 </r>
       <r>    2.0191    1.0000 </r>
       <r>    2.0236    1.0000 </r>
       <r>    2.0334    1.0000 </r>
       <r>    2.0451    1.0000 </r>
       <r>    2.0731    1.0000 </r>
       <r>    2.0819    1.0000 </r>
       <r>    2.0931    1.0000 </r>
       <r>    2.1186    1.0000 </r>
       <r>    2.1253    1.0000 </r>
       <r>    2.1331    1.0000 </r>
       <r>    2.1526    1.0000 </r>
       <r>    2.1644    1.0000 </r>
       <r>    2.1889    1.0000 </r>
       <r>    2.1909    1.0000 </r>
       <r>    2.2086    1.0000 </r>
       <r>    2.2141    1.0000 </r>
       <r>    2.2272    1.0000 </r>
       <r>    2.2436    1.0000 </r>
       <r>    2.2560    1.0000 </r>
       <r>    2.2743    1.0000 </r>
       <r>    2.2953    1.0000 </r>
       <r>    2.3086    1.0000 </r>
       <r>    2.3092    1.0000 </r>
       <r>    2.3542    1.0000 </r>
       <r>    2.3618    1.0000 </r>
       <r>    2.4218    1.0000 </r>
       <r>    2.4337    1.0000 </r>
       <r>    2.4530    1.0000 </r>
       <r>    2.4936    1.0000 </r>
       <r>    2.7771    1.0000 </r>
       <r>    2.7864    1.0000 </r>
       <r>    2.8139    1.0000 </r>
       <r>    2.8267    1.0000 </r>
       <r>    2.8495    1.0000 </r>
       <r>    2.9190    1.0000 </r>
       <r>    3.1983    1.0000 </r>
       <r>    3.2087    1.0000 </r>
       <r>    3.2561    1.0000 </r>
       <r>    3.2685    1.0000 </r>
       <r>    3.2972    1.0000 </r>
       <r>    3.3161    1.0000 </r>
       <r>    3.3261    1.0000 </r>
       <r>    3.3518    1.0000 </r>
       <r>    3.3703    1.0000 </r>
       <r>    3.3895    1.0000 </r>
       <r>    3.3984    1.0000 </r>
       <r>    3.4251    1.0000 </r>
       <r>    3.4376    1.0000 </r>
       <r>    3.4574    1.0000 </r>
       <r>    3.4791    1.0000 </r>
       <r>    3.5031    1.0000 </r>
       <r>    3.5073    1.0000 </r>
       <r>    3.5293    1.0000 </r>
       <r>    3.5551    1.0000 </r>
       <r>    3.5665    1.0000 </r>
       <r>    3.5741    1.0000 </r>
       <r>    3.6034    1.0000 </r>
       <r>    3.6092    1.0000 </r>
       <r>    3.6509    1.0000 </r>
       <r>    3.6702    1.0000 </r>
       <r>    3.6818    1.0000 </r>
       <r>    3.7168    1.0000 </r>
       <r>    3.7430    1.0000 </r>
       <r>    3.7652    1.0000 </r>
       <r>    3.7670    1.0000 </r>
       <r>    3.8360    1.0000 </r>
       <r>    3.8904    1.0000 </r>
       <r>    3.9036    1.0000 </r>
       <r>    3.9288    1.0000 </r>
       <r>    3.9452    1.0000 </r>
       <r>    3.9797    1.0000 </r>
       <r>    4.0827    1.0000 </r>
       <r>    4.1563    1.0000 </r>
       <r>    4.1848    1.0000 </r>
       <r>    4.2091    1.0000 </r>
       <r>    4.2327    1.0000 </r>
       <r>    4.2562    1.0000 </r>
       <r>    4.3091    1.0000 </r>
       <r>    4.3306    1.0000 </r>
       <r>    4.3369    1.0000 </r>
       <r>    4.3623    1.0000 </r>
       <r>    4.3840    1.0000 </r>
       <r>    4.4560    1.0000 </r>
       <r>    4.4720    1.0000 </r>
       <r>    4.4985    1.0000 </r>
       <r>    4.5379    1.0000 </r>
       <r>    4.5498    1.0000 </r>
       <r>    4.5659    1.0000 </r>
       <r>    4.5869    1.0000 </r>
       <r>    4.6353    1.0000 </r>
       <r>    4.6547    1.0000 </r>
       <r>    4.7050    1.0000 </r>
       <r>    4.7594    1.0000 </r>
       <r>    4.8007    1.0000 </r>
       <r>    4.8231    1.0000 </r>
       <r>    4.8761    1.0000 </r>
       <r>    4.9031    1.0000 </r>
       <r>    4.9592    1.0000 </r>
       <r>    4.9735    1.0000 </r>
       <r>    4.9875    1.0000 </r>
       <r>    5.0265    1.0000 </r>
       <r>    5.0881    1.0000 </r>
       <r>    5.1182    1.0000 </r>
       <r>    5.1220    1.0000 </r>
       <r>    5.1646    1.0000 </r>
       <r>    5.2242    1.0000 </r>
       <r>    5.2535    1.0000 </r>
       <r>    5.6459    1.0000 </r>
       <r>    5.7243    1.0000 </r>
       <r>    5.8440    1.0000 </r>
       <r>    6.1027    0.0000 </r>
       <r>    6.1596    0.0000 </r>
       <r>    6.2475    0.0000 </r>
       <r>    6.2951    0.0000 </r>
       <r>    6.3388    0.0000 </r>
       <r>    6.4022    0.0000 </r>
       <r>    6.5334    0.0000 </r>
       <r>    6.5722    0.0000 </r>
       <r>    6.5903    0.0000 </r>
       <r>    6.6510    0.0000 </r>
       <r>    6.6928    0.0000 </r>
       <r>    6.7534    0.0000 </r>
       <r>    6.7745    0.0000 </r>
       <r>    6.7900    0.0000 </r>
       <r>    6.8365    0.0000 </r>
       <r>    6.8707    0.0000 </r>
       <r>    6.8995    0.0000 </r>
       <r>    6.9076    0.0000 </r>
       <r>    6.9210    0.0000 </r>
       <r>    6.9629    0.0000 </r>
       <r>    6.9690    0.0000 </r>
       <r>    6.9778    0.0000 </r>
       <r>    7.0107    0.0000 </r>
       <r>    7.0259    0.0000 </r>
       <r>    7.0410    0.0000 </r>
       <r>    7.0653    0.0000 </r>
       <r>    7.0811    0.0000 </r>
       <r>    7.0892    0.0000 </r>
       <r>    7.1154    0.0000 </r>
       <r>    7.1233    0.0000 </r>
       <r>    7.1396    0.0000 </r>
       <r>    7.1550    0.0000 </r>
       <r>    7.2025    0.0000 </r>
       <r>    7.2161    0.0000 </r>
       <r>    7.2325    0.0000 </r>
       <r>    7.2588    0.0000 </r>
       <r>    7.2789    0.0000 </r>
       <r>    7.2930    0.0000 </r>
       <r>    7.3204    0.0000 </r>
       <r>    7.3673    0.0000 </r>
       <r>    7.4342    0.0000 </r>
       <r>    7.4733    0.0000 </r>
       <r>    7.4892    0.0000 </r>
       <r>    7.5183    0.0000 </r>
       <r>    7.5442    0.0000 </r>
       <r>    7.5750    0.0000 </r>
       <r>    7.6048    0.0000 </r>
       <r>    7.6264    0.0000 </r>
       <r>    7.7760    0.0000 </r>
       <r>    7.8311    0.0000 </r>
       <r>    7.8957    0.0000 </r>
       <r>    7.9071    0.0000 </r>
       <r>    7.9281    0.0000 </r>
       <r>    7.9598    0.0000 </r>
       <r>    7.9943    0.0000 </r>
       <r>    8.0171    0.0000 </r>
       <r>    8.0535    0.0000 </r>
       <r>    8.0674    0.0000 </r>
       <r>    8.1031    0.0000 </r>
       <r>    8.1464    0.0000 </r>
       <r>    8.1544    0.0000 </r>
       <r>    8.1945    0.0000 </r>
       <r>    8.2909    0.0000 </r>
       <r>    8.5215    0.0000 </r>
       <r>    8.5547    0.0000 </r>
       <r>    8.5718    0.0000 </r>
      </set>
      <set comment="kpoint 2">
       <r>   -6.1228    1.0000 </r>
       <r>   -6.0974    1.0000 </r>
       <r>   -5.7032    1.0000 </r>
       <r>   -5.6285    1.0000 </r>
       <r>   -5.6012    1.0000 </r>
       <r>   -5.5719    1.0000 </r>
       <r>   -5.5369    1.0000 </r>
[...]
       <r>    -3.1151    50.2424   100.4110 </r>
       <r>    -3.0606    56.4843   103.4905 </r>
       <r>    -3.0061    34.9082   105.3937 </r>
       <r>    -2.9516    40.0533   107.5774 </r>
       <r>    -2.8971    34.9918   109.4851 </r>
       <r>    -2.8425    45.3579   111.9580 </r>
       <r>    -2.7880    34.8133   113.8560 </r>
       <r>    -2.7335    25.2349   115.2318 </r>
       <r>    -2.6790    18.8797   116.2611 </r>
       <r>    -2.6245    44.0744   118.6640 </r>
       <r>    -2.5699    30.7648   120.3413 </r>
       <r>    -2.5154    18.0348   121.3245 </r>
       <r>    -2.4609    22.1543   122.5323 </r>
       <r>    -2.4064     4.4144   122.7730 </r>
       <r>    -2.3519     4.1643   123.0000 </r>
       <r>    -2.2973     8.6343   123.4708 </r>
       <r>    -2.2428    18.8723   124.4997 </r>
       <r>    -2.1883     6.3365   124.8451 </r>
       <r>    -2.1338    25.5859   126.2401 </r>
       <r>    -2.0793    36.7004   128.2410 </r>
       <r>    -2.0248    23.3207   129.5124 </r>
       <r>    -1.9702    18.3419   130.5124 </r>
       <r>    -1.9157    19.8449   131.5943 </r>
       <r>    -1.8612    16.6136   132.5001 </r>
       <r>    -1.8067     4.5841   132.7500 </r>
       <r>    -1.7522     5.7224   133.0620 </r>
       <r>    -1.6976    10.2530   133.6210 </r>
       <r>    -1.6431     5.0881   133.8984 </r>
       <r>    -1.5886    16.8966   134.8195 </r>
       <r>    -1.5341    35.0254   136.7291 </r>
       <r>    -1.4796    42.7016   139.0571 </r>
       <r>    -1.4250    33.4543   140.8810 </r>
       <r>    -1.3705    51.5503   143.6915 </r>
       <r>    -1.3160    45.4474   146.1693 </r>
       <r>    -1.2615    43.7142   148.5525 </r>
       <r>    -1.2070    76.5610   152.7265 </r>
       <r>    -1.1524    69.5186   156.5166 </r>
       <r>    -1.0979    60.9256   159.8382 </r>
       <r>    -1.0434    76.2198   163.9937 </r>
       <r>    -0.9889    57.3266   167.1191 </r>
       <r>    -0.9344    56.9345   170.2231 </r>
       <r>    -0.8799    83.5515   174.7783 </r>
       <r>    -0.8253    58.7158   177.9794 </r>
       <r>    -0.7708    52.8821   180.8625 </r>
       <r>    -0.7163    53.4820   183.7783 </r>
       <r>    -0.6618    35.9639   185.7390 </r>
       <r>    -0.6073    30.4897   187.4013 </r>
       <r>    -0.5527    28.1598   188.9366 </r>
       <r>    -0.4982    22.0661   190.1396 </r>
       <r>    -0.4437    24.7446   191.4886 </r>
       <r>    -0.3892    29.3855   193.0907 </r>
       <r>    -0.3347    48.1788   195.7174 </r>
       <r>    -0.2801    47.4362   198.3036 </r>
       <r>    -0.2256    53.8901   201.2416 </r>
       <r>    -0.1711    48.9740   203.9116 </r>
       <r>    -0.1166    32.7758   205.6985 </r>
       <r>    -0.0621    63.7305   209.1730 </r>
       <r>    -0.0075    37.0660   211.1938 </r>
       <r>     0.0470     8.0208   211.6312 </r>
       <r>     0.1015    25.0390   212.9963 </r>
       <r>     0.1560    18.2330   213.9903 </r>
       <r>     0.2105    13.3801   214.7198 </r>
       <r>     0.2650    17.3527   215.6659 </r>
       <r>     0.3196    25.4078   217.0511 </r>
       <r>     0.3741    29.3094   218.6490 </r>
       <r>     0.4286    15.5084   219.4945 </r>
       <r>     0.4831    14.6982   220.2959 </r>
       <r>     0.5376    35.5696   222.2351 </r>
       <r>     0.5922    21.6703   223.4165 </r>
       <r>     0.6467    18.4860   224.4244 </r>
       <r>     0.7012    22.9675   225.6765 </r>
       <r>     0.7557    17.2350   226.6162 </r>
       <r>     0.8102    14.0546   227.3824 </r>
       <r>     0.8648     7.5093   227.7918 </r>
       <r>     0.9193    16.9822   228.7177 </r>
       <r>     0.9738    22.7634   229.9587 </r>
       <r>     1.0283    22.2377   231.1711 </r>
       <r>     1.0828    22.5942   232.4029 </r>
       <r>     1.1374    31.9176   234.1430 </r>
       <r>     1.1919    26.4719   235.5863 </r>
       <r>     1.2464    22.8856   236.8340 </r>
       <r>     1.3009    30.7599   238.5110 </r>
       <r>     1.3554    22.0082   239.7108 </r>
       <r>     1.4099    39.1567   241.8456 </r>
       <r>     1.4645    59.8096   245.1064 </r>
       <r>     1.5190    79.3230   249.4310 </r>
       <r>     1.5735    93.0992   254.5067 </r>
       <r>     1.6280   100.1773   259.9682 </r>
       <r>     1.6825    62.0336   263.3503 </r>
       <r>     1.7371    58.7818   266.5550 </r>
       <r>     1.7916    45.4934   269.0353 </r>
       <r>     1.8461    49.2749   271.7217 </r>
       <r>     1.9006    19.6464   272.7928 </r>
       <r>     1.9551    23.5531   274.0769 </r>
       <r>     2.0097    29.0841   275.6626 </r>
       <r>     2.0642    44.3893   278.0826 </r>
       <r>     2.1187    86.3198   282.7887 </r>
       <r>     2.1732   117.8610   289.2145 </r>
       <r>     2.2277   121.2942   295.8273 </r>
       <r>     2.2822   121.1844   302.4342 </r>
       <r>     2.3368   111.3688   308.5060 </r>
       <r>     2.3913    93.4959   313.6034 </r>
       <r>     2.4458    88.7817   318.4436 </r>
       <r>     2.5003    73.7612   322.4651 </r>
       <r>     2.5548    29.2249   324.0584 </r>
       <r>     2.6094    43.7650   326.4444 </r>
       <r>     2.6639    50.5299   329.1993 </r>
       <r>     2.7184    72.2797   333.1399 </r>
       <r>     2.7729    76.7206   337.3227 </r>
       <r>     2.8274    93.0198   342.3941 </r>
       <r>     2.8820    92.9165   347.4598 </r>
       <r>     2.9365    95.1011   352.6446 </r>
       <r>     2.9910   112.0903   358.7557 </r>
       <r>     3.0455   106.4048   364.5568 </r>
       <r>     3.1000    68.9878   368.3179 </r>
       <r>     3.1546    70.6490   372.1697 </r>
       <r>     3.2091    84.0514   376.7521 </r>
       <r>     3.2636    89.9482   381.6560 </r>
       <r>     3.3181    86.5692   386.3757 </r>
       <r>     3.3726   102.0330   391.9384 </r>
       <r>     3.4271    97.0166   397.2276 </r>
       <r>     3.4817    90.1057   402.1402 </r>
       <r>     3.5362    79.3873   406.4683 </r>
       <r>     3.5907    88.1700   411.2753 </r>
       <r>     3.6452    74.5115   415.3376 </r>
       <r>     3.6997    70.0166   419.1548 </r>
       <r>     3.7543    76.4083   423.3206 </r>
       <r>     3.8088    78.4565   427.5979 </r>
       <r>     3.8633    77.3356   431.8142 </r>
       <r>     3.9178    76.3457   435.9765 </r>
       <r>     3.9723    80.8637   440.3852 </r>
       <r>     4.0269    74.8904   444.4681 </r>
       <r>     4.0814    57.3966   447.5974 </r>
       <r>     4.1359    64.8475   451.1328 </r>
       <r>     4.1904    79.0018   455.4399 </r>
       <r>     4.2449    73.3487   459.4388 </r>
       <r>     4.2995    62.2205   462.8310 </r>
       <r>     4.3540    78.6627   467.1197 </r>
       <r>     4.4085    87.8750   471.9106 </r>
       <r>     4.4630    50.7883   474.6795 </r>
       <r>     4.5175    75.7336   478.8084 </r>
       <r>     4.5720    57.0695   481.9198 </r>
       <r>     4.6266    59.4294   485.1598 </r>
       <r>     4.6811    53.1537   488.0578 </r>
       <r>     4.7356    38.3171   490.1469 </r>
       <r>     4.7901    24.5519   491.4854 </r>
       <r>     4.8446    32.5690   493.2610 </r>
       <r>     4.8992    24.9800   494.6229 </r>
       <r>     4.9537    40.2428   496.8169 </r>
       <r>     5.0082    48.6777   499.4708 </r>
       <r>     5.0627    37.4205   501.5110 </r>
       <r>     5.1172    24.8721   502.8670 </r>
       <r>     5.1718    14.4358   503.6540 </r>
       <r>     5.2263     4.5760   503.9035 </r>
       <r>     5.2808    10.3748   504.4691 </r>
       <r>     5.3353    24.0933   505.7826 </r>
       <r>     5.3898    13.1628   506.5003 </r>
       <r>     5.4444    11.7910   507.1431 </r>
       <r>     5.4989    27.0883   508.6199 </r>
       <r>     5.5534    10.8596   509.2120 </r>
       <r>     5.6079    30.6497   510.8830 </r>
       <r>     5.6624    11.2733   511.4976 </r>
       <r>     5.7169     0.7245   511.5371 </r>
       <r>     5.7715     3.9049   511.7500 </r>
       <r>     5.8260     0.0247   511.7513 </r>
       <r>     5.8805     4.5608   512.0000 </r>
       <r>     5.9350     0.0000   512.0000 </r>
       <r>     5.9895     0.0000   512.0000 </r>
       <r>     6.0441     0.0000   512.0000 </r>
       <r>     6.0986     1.2856   512.0701 </r>
       <r>     6.1531    13.0841   512.7834 </r>
       <r>     6.2076    16.8476   513.7019 </r>
       <r>     6.2621    10.7100   514.2858 </r>
       <r>     6.3167    22.3976   515.5069 </r>
       <r>     6.3712    19.7677   516.5846 </r>
       <r>     6.4257    18.1839   517.5760 </r>
       <r>     6.4802    19.2773   518.6270 </r>
       <r>     6.5347    25.5856   520.0219 </r>
       <r>     6.5892    33.2669   521.8356 </r>
       <r>     6.6438    11.3363   522.4536 </r>
       <r>     6.6983    12.8294   523.1531 </r>
       <r>     6.7528    36.0131   525.1165 </r>
       <r>     6.8073    34.8188   527.0148 </r>
       <r>     6.8618    29.7908   528.6389 </r>
       <r>     6.9164    37.9094   530.7057 </r>
       <r>     6.9709    39.5108   532.8598 </r>
       <r>     7.0254    44.6851   535.2960 </r>
       <r>     7.0799    45.2651   537.7638 </r>
       <r>     7.1344    28.1650   539.2994 </r>
       <r>     7.1890    16.6291   540.2060 </r>
       <r>     7.2435    41.9243   542.4917 </r>
       <r>     7.2980    62.0234   545.8731 </r>
       <r>     7.3525    70.3997   549.7113 </r>
       <r>     7.4070    78.5543   553.9940 </r>
       <r>     7.4616    70.7200   557.8496 </r>
       <r>     7.5161   105.8850   563.6223 </r>
       <r>     7.5706    91.3756   568.6041 </r>
       <r>     7.6251    86.4381   573.3166 </r>
       <r>     7.6796    74.1841   577.3611 </r>
       <r>     7.7341    92.9682   582.4297 </r>
       <r>     7.7887   100.6895   587.9192 </r>
       <r>     7.8432    90.2772   592.8410 </r>
       <r>     7.8977   105.6101   598.5988 </r>
       <r>     7.9522    84.0197   603.1795 </r>
       <r>     8.0067    84.8745   607.8068 </r>
       <r>     8.0613    90.6063   612.7466 </r>
       <r>     8.1158    83.0195   617.2728 </r>
       <r>     8.1703    94.3548   622.4169 </r>
       <r>     8.2248    77.4684   626.6405 </r>
       <r>     8.2793    85.2055   631.2858 </r>
       <r>     8.3339    91.4646   636.2724 </r>
       <r>     8.3884    68.2887   639.9954 </r>
       <r>     8.4429    45.8065   642.4928 </r>
       <r>     8.4974    13.8904   643.2501 </r>
       <r>     8.5519     6.1794   643.5870 </r>
       <r>     8.6065     7.5757   644.0000 </r>
       <r>     8.6610     0.0000   644.0000 </r>
       <r>     8.7155     0.0000   644.0000 </r>
       <r>     8.7700     0.0000   644.0000 </r>
       <r>     8.8245     0.0000   644.0000 </r>
       <r>     8.8790     0.0000   644.0000 </r>
       <r>     8.9336     0.0000   644.0000 </r>
       <r>     8.9881     0.0000   644.0000 </r>
       <r>     9.0426     0.0000   644.0000 </r>
       <r>     9.0971     0.0000   644.0000 </r>
       <r>     9.1516     0.0000   644.0000 </r>
       <r>     9.2062     0.0000   644.0000 </r>
       <r>     9.2607     0.0000   644.0000 </r>
       <r>     9.3152     0.0000   644.0000 </r>
      </set>
     </set>
    </array>
   </total>
  </dos>
 </calculation>
 <structure name="finalpos" >
  <crystal>
   <varray name="basis" >
    <v>       0.00000000      10.93733369      10.93733369 </v>
    <v>      10.93733369       0.00000000      10.93733369 </v>
    <v>      10.93733369      10.93733369       0.00000000 </v>
   </varray>
   <i name="volume">   2616.76295363 </i>
   <varray name="rec_basis" >
    <v>      -0.04571498       0.04571498       0.04571498 </v>
    <v>       0.04571498      -0.04571498       0.04571498 </v>
    <v>       0.04571498       0.04571498      -0.04571498 </v>
   </varray>
  </crystal>
  <varray name="positions" >
   <v>       0.99278031       0.00521085       0.00072409 </v>
   <v>       0.25172908       0.01450042       0.99983834 </v>
   <v>       0.50295265       0.99213825       0.99964975 </v>
   <v>       0.75242249       0.99262492       0.00843972 </v>
   <v>       0.00669674       0.24819008       0.99611470 </v>
   <v>       0.25405991       0.25506754       0.99252314 </v>
   <v>       0.49575203       0.25520607       0.99894372 </v>
   <v>       0.75341302       0.25876576       0.00297645 </v>
   <v>       0.99897412       0.49919823       0.99979615 </v>
   <v>       0.24809228       0.49716554       0.01257819 </v>
   <v>       0.50778394       0.49436950       0.00412445 </v>
   <v>       0.74133373       0.50188523       0.99902995 </v>
   <v>       0.00732908       0.74164462       0.99684199 </v>
   <v>       0.25451707       0.74308009       0.00149062 </v>
   <v>       0.49173437       0.75662090       0.00010826 </v>
   <v>       0.75421155       0.74857233       0.00314025 </v>
   <v>       0.99462201       0.00116444       0.25383777 </v>
   <v>       0.25247619       0.98796142       0.25188948 </v>
   <v>       0.49917234       0.00567735       0.25406322 </v>
   <v>       0.74260705       0.99499298       0.26131353 </v>
   <v>       0.99793054       0.24926871       0.24831445 </v>
   <v>       0.24449732       0.24039054       0.25597286 </v>
   <v>       0.50135394       0.24844588       0.25727785 </v>
   <v>       0.74904793       0.23938789       0.25987397 </v>
   <v>       0.99849621       0.49480605       0.23916241 </v>
   <v>       0.25632166       0.49521607       0.24912366 </v>
   <v>       0.49500360       0.50442239       0.25895349 </v>
   <v>       0.75104328       0.49387036       0.24400616 </v>
   <v>       0.99109488       0.74548587       0.25231380 </v>
   <v>       0.24964461       0.74863385       0.25249366 </v>
   <v>       0.49499397       0.74334935       0.24895703 </v>
   <v>       0.75253821       0.74368975       0.25183656 </v>
   <v>       0.00019039       0.00043315       0.50725434 </v>
   <v>       0.24739447       0.99979889       0.49489569 </v>
   <v>       0.50117380       0.00187560       0.49496104 </v>
   <v>       0.74752393       0.00049893       0.49549188 </v>
   <v>       0.00605452       0.24900632       0.50036489 </v>
   <v>       0.24585502       0.24510277       0.50507722 </v>
   <v>       0.49864185       0.25002142       0.50791840 </v>
   <v>       0.74774415       0.25588988       0.51259488 </v>
   <v>       0.99818643       0.50031344       0.50117342 </v>
   <v>       0.25197316       0.50347845       0.49982972 </v>
   <v>       0.49350568       0.48705190       0.50825997 </v>
   <v>       0.75544532       0.49844771       0.50027468 </v>
   <v>       0.99528120       0.74165810       0.50894273 </v>
   <v>       0.25117056       0.73726249       0.49892098 </v>
   <v>       0.49896817       0.74109368       0.49088789 </v>
   <v>       0.74238708       0.73775223       0.51103056 </v>
   <v>       0.99974237       0.00771528       0.73854309 </v>
   <v>       0.24476428       0.00973900       0.75189010 </v>
   <v>       0.48467922       0.00559260       0.75539349 </v>
   <v>       0.75763544       0.99983507       0.74727122 </v>
   <v>       0.99883736       0.25047757       0.75092733 </v>
   <v>       0.25356736       0.26029020       0.74198631 </v>
   <v>       0.49752194       0.25892780       0.74154477 </v>
   <v>       0.75382433       0.25012061       0.75143470 </v>
   <v>       0.98004305       0.50157791       0.75642758 </v>
   <v>       0.25950725       0.49825187       0.74698973 </v>
   <v>       0.48477708       0.50239240       0.75391361 </v>
   <v>       0.74742421       0.50609163       0.74615939 </v>
   <v>       0.00363048       0.75521176       0.75087534 </v>
   <v>       0.24510706       0.75151073       0.75805367 </v>
   <v>       0.48834632       0.75921457       0.75472083 </v>
   <v>       0.74933350       0.75624796       0.74614450 </v>
   <v>       0.07321595       0.06286686       0.04908260 </v>
   <v>       0.31685264       0.06450934       0.05581257 </v>
   <v>       0.56282156       0.06510350       0.06396605 </v>
   <v>       0.80982284       0.04964262       0.07074454 </v>
   <v>       0.06471465       0.30272899       0.05986646 </v>
   <v>       0.30377188       0.30726939       0.07758454 </v>
   <v>       0.56305640       0.31694160       0.05836696 </v>
   <v>       0.80855767       0.31931603       0.06597354 </v>
   <v>       0.06214898       0.55765403       0.05395575 </v>
   <v>       0.32334855       0.56104976       0.05304966 </v>
   <v>       0.56259272       0.55780582       0.06879918 </v>
   <v>       0.82236392       0.55846574       0.05541197 </v>
   <v>       0.05078346       0.82359669       0.05427234 </v>
   <v>       0.31286312       0.80834105       0.06012956 </v>
   <v>       0.55840481       0.81642057       0.05245663 </v>
   <v>       0.82660779       0.82042224       0.04241236 </v>
   <v>       0.06273305       0.06545662       0.32206737 </v>
   <v>       0.29445972       0.05742452       0.31371881 </v>
   <v>       0.57720323       0.05538622       0.30528024 </v>
   <v>       0.80177642       0.06246354       0.31442914 </v>
   <v>       0.06932221       0.31303870       0.30911796 </v>
   <v>       0.30606815       0.30969880       0.31346833 </v>
   <v>       0.55481944       0.32315917       0.31348656 </v>
   <v>       0.81938988       0.31486210       0.30330022 </v>
   <v>       0.06052942       0.55564711       0.31664815 </v>
   <v>       0.30975056       0.56419340       0.30937873 </v>
   <v>       0.55665031       0.55890746       0.32660078 </v>
   <v>       0.81958506       0.55349047       0.31061497 </v>
   <v>       0.06083409       0.81636294       0.30633041 </v>
   <v>       0.32003365       0.80047748       0.30580735 </v>
   <v>       0.57907683       0.80036083       0.30140682 </v>
   <v>       0.81614712       0.80237141       0.32679260 </v>
   <v>       0.06651544       0.06563183       0.55855999 </v>
   <v>       0.31767631       0.05922527       0.56176034 </v>
   <v>       0.56349462       0.05839839       0.56122020 </v>
   <v>       0.80536499       0.05445747       0.56037571 </v>
   <v>       0.05829203       0.30906806       0.56657545 </v>
   <v>       0.31167682       0.30522861       0.55893733 </v>
   <v>       0.56040192       0.30512519       0.56834270 </v>
   <v>       0.81450782       0.32345346       0.55765541 </v>
   <v>       0.04226410       0.56960110       0.56464535 </v>
   <v>       0.31366281       0.55987895       0.56013598 </v>
   <v>       0.57084172       0.55720757       0.56450457 </v>
   <v>       0.81038446       0.56085027       0.56552961 </v>
   <v>       0.06135286       0.81154817       0.56930903 </v>
   <v>       0.30327095       0.81160980       0.57768786 </v>
   <v>       0.56064167       0.82069434       0.55336136 </v>
   <v>       0.80017144       0.81920364       0.56552421 </v>
   <v>       0.04396179       0.06610960       0.81402905 </v>
   <v>       0.31034487       0.06484385       0.81274058 </v>
   <v>       0.54985239       0.07932024       0.80065652 </v>
   <v>       0.80511622       0.06857358       0.81045374 </v>
   <v>       0.06660339       0.31203542       0.81269099 </v>
   <v>       0.31521661       0.31141130       0.80886679 </v>
   <v>       0.56303625       0.30378043       0.80791243 </v>
   <v>       0.81375158       0.31015543       0.80980326 </v>
   <v>       0.05913218       0.56806713       0.81035406 </v>
   <v>       0.31027609       0.57456026       0.80756192 </v>
   <v>       0.55921564       0.57137981       0.81345531 </v>
   <v>       0.79522425       0.57169126       0.82097445 </v>
   <v>       0.06214121       0.81608869       0.81339665 </v>
   <v>       0.31095974       0.81900118       0.81183294 </v>
   <v>       0.55593917       0.81873664       0.82208702 </v>
   <v>       0.80437695       0.81768878       0.80509486 </v>
  </varray>
 </structure>
</modeling>
