potpaw_PBE@./ARUN.APL1ZEROSTATE         
           1
     0.000000   10.937334   10.937334
    10.937334    0.000000   10.937334
    10.937334   10.937334    0.000000
   Si
 128
Direct configuration=     1
   0.99278031  0.00521085  0.00072409
   0.25172908  0.01450042  0.99983834
   0.50295265  0.99213825  0.99964975
   0.75242249  0.99262492  0.00843972
   0.00669674  0.24819008  0.99611470
   0.25405991  0.25506754  0.99252314
   0.49575203  0.25520607  0.99894372
   0.75341302  0.25876576  0.00297645
   0.99897412  0.49919823  0.99979615
   0.24809228  0.49716554  0.01257819
   0.50778394  0.49436950  0.00412445
   0.74133373  0.50188523  0.99902995
   0.00732908  0.74164462  0.99684199
   0.25451707  0.74308009  0.00149062
   0.49173437  0.75662090  0.00010826
   0.75421155  0.74857233  0.00314025
   0.99462201  0.00116444  0.25383777
   0.25247619  0.98796142  0.25188948
   0.49917234  0.00567735  0.25406322
   0.74260705  0.99499298  0.26131353
   0.99793054  0.24926871  0.24831445
   0.24449732  0.24039054  0.25597286
   0.50135394  0.24844588  0.25727785
   0.74904793  0.23938789  0.25987397
   0.99849621  0.49480605  0.23916241
   0.25632166  0.49521607  0.24912366
   0.49500360  0.50442239  0.25895349
   0.75104328  0.49387036  0.24400616
   0.99109488  0.74548587  0.25231380
   0.24964461  0.74863385  0.25249366
   0.49499397  0.74334935  0.24895703
   0.75253821  0.74368975  0.25183656
   0.00019039  0.00043315  0.50725434
   0.24739447  0.99979889  0.49489569
   0.50117380  0.00187560  0.49496104
   0.74752393  0.00049893  0.49549188
   0.00605452  0.24900632  0.50036489
   0.24585502  0.24510277  0.50507722
   0.49864185  0.25002142  0.50791840
   0.74774415  0.25588988  0.51259488
   0.99818643  0.50031344  0.50117342
   0.25197316  0.50347845  0.49982972
   0.49350568  0.48705190  0.50825997
   0.75544532  0.49844771  0.50027468
   0.99528120  0.74165810  0.50894273
   0.25117056  0.73726249  0.49892098
   0.49896817  0.74109368  0.49088789
   0.74238708  0.73775223  0.51103056
   0.99974237  0.00771528  0.73854309
   0.24476428  0.00973900  0.75189010
   0.48467922  0.00559260  0.75539349
   0.75763544  0.99983507  0.74727122
   0.99883736  0.25047757  0.75092733
   0.25356736  0.26029020  0.74198631
   0.49752194  0.25892780  0.74154477
   0.75382433  0.25012061  0.75143470
   0.98004305  0.50157791  0.75642758
   0.25950725  0.49825187  0.74698973
   0.48477708  0.50239240  0.75391361
   0.74742421  0.50609163  0.74615939
   0.00363048  0.75521176  0.75087534
   0.24510706  0.75151073  0.75805367
   0.48834632  0.75921457  0.75472083
   0.74933350  0.75624796  0.74614450
   0.07321595  0.06286686  0.04908260
   0.31685264  0.06450934  0.05581257
   0.56282156  0.06510350  0.06396605
   0.80982284  0.04964262  0.07074454
   0.06471465  0.30272899  0.05986646
   0.30377188  0.30726939  0.07758454
   0.56305640  0.31694160  0.05836696
   0.80855767  0.31931603  0.06597354
   0.06214898  0.55765403  0.05395575
   0.32334855  0.56104976  0.05304966
   0.56259272  0.55780582  0.06879918
   0.82236392  0.55846574  0.05541197
   0.05078346  0.82359669  0.05427234
   0.31286312  0.80834105  0.06012956
   0.55840481  0.81642057  0.05245663
   0.82660779  0.82042224  0.04241236
   0.06273305  0.06545662  0.32206737
   0.29445972  0.05742452  0.31371881
   0.57720323  0.05538622  0.30528024
   0.80177642  0.06246354  0.31442914
   0.06932221  0.31303870  0.30911796
   0.30606815  0.30969880  0.31346833
   0.55481944  0.32315917  0.31348656
   0.81938988  0.31486210  0.30330022
   0.06052942  0.55564711  0.31664815
   0.30975056  0.56419340  0.30937873
   0.55665031  0.55890746  0.32660078
   0.81958506  0.55349047  0.31061497
   0.06083409  0.81636294  0.30633041
   0.32003365  0.80047748  0.30580735
   0.57907683  0.80036083  0.30140682
   0.81614712  0.80237141  0.32679260
   0.06651544  0.06563183  0.55855999
   0.31767631  0.05922527  0.56176034
   0.56349462  0.05839839  0.56122020
   0.80536499  0.05445747  0.56037571
   0.05829203  0.30906806  0.56657545
   0.31167682  0.30522861  0.55893733
   0.56040192  0.30512519  0.56834270
   0.81450782  0.32345346  0.55765541
   0.04226410  0.56960110  0.56464535
   0.31366281  0.55987895  0.56013598
   0.57084172  0.55720757  0.56450457
   0.81038446  0.56085027  0.56552961
   0.06135286  0.81154817  0.56930903
   0.30327095  0.81160980  0.57768786
   0.56064167  0.82069434  0.55336136
   0.80017144  0.81920364  0.56552421
   0.04396179  0.06610960  0.81402905
   0.31034487  0.06484385  0.81274058
   0.54985239  0.07932024  0.80065652
   0.80511622  0.06857358  0.81045374
   0.06660339  0.31203542  0.81269099
   0.31521661  0.31141130  0.80886679
   0.56303625  0.30378043  0.80791243
   0.81375158  0.31015543  0.80980326
   0.05913218  0.56806713  0.81035406
   0.31027609  0.57456026  0.80756192
   0.55921564  0.57137981  0.81345531
   0.79522425  0.57169126  0.82097445
   0.06214121  0.81608869  0.81339665
   0.31095974  0.81900118  0.81183294
   0.55593917  0.81873664  0.82208702
   0.80437695  0.81768878  0.80509486
