 128 128   0   0
  0.2044346E+02  0.1546773E-08  0.1546773E-08  0.1546773E-08  0.5000000E-15
  1.000000000000000E-004
  CAR 
 potpaw_PBE@./ARUN.APL1ZEROSTATE         
      9.33339761     -7.03584270  301      5.96406231      1.00000000
     -7.036  0.0000E+00  0.0000E+00
     -6.981  0.0000E+00  0.0000E+00
     -6.927  0.0000E+00  0.0000E+00
     -6.872  0.0000E+00  0.0000E+00
     -6.818  0.0000E+00  0.0000E+00
     -6.763  0.0000E+00  0.0000E+00
     -6.708  0.0000E+00  0.0000E+00
     -6.654  0.0000E+00  0.0000E+00
     -6.599  0.0000E+00  0.0000E+00
     -6.545  0.0000E+00  0.0000E+00
     -6.490  0.0000E+00  0.0000E+00
     -6.436  0.0000E+00  0.0000E+00
     -6.381  0.0000E+00  0.0000E+00
     -6.327  0.2081E-05  0.1135E-06
     -6.272  0.4570E+01  0.2494E+00
     -6.217  0.1149E-01  0.2500E+00
     -6.163  0.1654E-08  0.2500E+00
     -6.108  0.1438E+02  0.1035E+01
     -6.054  0.2687E+02  0.2501E+01
     -5.999  0.2278E+02  0.3743E+01
     -5.945  0.1198E+00  0.3750E+01
     -5.890  0.2543E-15  0.3750E+01
     -5.835  0.1619E+01  0.3838E+01
     -5.781  0.2346E+02  0.5118E+01
     -5.726  0.2440E+02  0.6450E+01
     -5.672  0.2036E+02  0.7561E+01
     -5.617  0.2863E+02  0.9123E+01
     -5.563  0.3317E+02  0.1093E+02
     -5.508  0.4831E+02  0.1357E+02
     -5.453  0.1687E+02  0.1449E+02
     -5.399  0.4782E+01  0.1475E+02
     -5.344  0.3329E+01  0.1493E+02
     -5.290  0.1844E+01  0.1503E+02
     -5.235  0.1034E+02  0.1560E+02
     -5.181  0.3151E+02  0.1732E+02
     -5.126  0.5058E+02  0.2008E+02
     -5.072  0.4362E+02  0.2246E+02
     -5.017  0.4511E+02  0.2492E+02
     -4.962  0.3213E+02  0.2667E+02
     -4.908  0.2228E+02  0.2789E+02
     -4.853  0.1355E+02  0.2862E+02
     -4.799  0.2904E+02  0.3021E+02
     -4.744  0.2852E+02  0.3177E+02
     -4.690  0.4083E+02  0.3399E+02
     -4.635  0.4255E+02  0.3632E+02
     -4.580  0.4499E+02  0.3877E+02
     -4.526  0.2811E+02  0.4030E+02
     -4.471  0.2299E+02  0.4156E+02
     -4.417  0.2029E+02  0.4267E+02
     -4.362  0.1498E+02  0.4348E+02
     -4.308  0.3171E+02  0.4521E+02
     -4.253  0.4989E+02  0.4793E+02
     -4.199  0.5210E+02  0.5078E+02
     -4.144  0.5751E+02  0.5392E+02
     -4.089  0.5905E+02  0.5714E+02
     -4.035  0.5675E+02  0.6023E+02
     -3.980  0.4231E+02  0.6254E+02
     -3.926  0.6437E+02  0.6605E+02
     -3.871  0.4351E+02  0.6843E+02
     -3.817  0.5504E+02  0.7143E+02
     -3.762  0.4392E+02  0.7383E+02
     -3.707  0.5057E+02  0.7659E+02
     -3.653  0.3812E+02  0.7867E+02
     -3.598  0.2925E+02  0.8026E+02
     -3.544  0.4129E+02  0.8252E+02
     -3.489  0.4322E+02  0.8487E+02
     -3.435  0.4473E+02  0.8732E+02
     -3.380  0.5092E+02  0.9009E+02
     -3.325  0.5586E+02  0.9314E+02
     -3.271  0.4855E+02  0.9579E+02
     -3.216  0.2657E+02  0.9724E+02
     -3.162  0.3123E+02  0.9894E+02
     -3.107  0.3736E+02  0.1010E+03
     -3.053  0.4951E+02  0.1037E+03
     -2.998  0.4722E+02  0.1063E+03
     -2.944  0.4448E+02  0.1087E+03
     -2.889  0.2860E+02  0.1102E+03
     -2.834  0.4452E+02  0.1127E+03
     -2.780  0.2750E+02  0.1142E+03
     -2.725  0.2871E+02  0.1157E+03
     -2.671  0.2903E+02  0.1173E+03
     -2.616  0.3989E+02  0.1195E+03
     -2.562  0.4282E+02  0.1218E+03
     -2.507  0.1088E+02  0.1224E+03
     -2.452  0.5741E+01  0.1227E+03
     -2.398  0.7936E+00  0.1228E+03
     -2.343  0.4206E+01  0.1230E+03
     -2.289  0.4240E+01  0.1233E+03
     -2.234  0.2416E+02  0.1246E+03
     -2.180  0.1888E+02  0.1256E+03
     -2.125  0.3244E+02  0.1274E+03
     -2.071  0.2968E+02  0.1290E+03
     -2.016  0.1737E+02  0.1299E+03
     -1.961  0.2716E+02  0.1314E+03
     -1.907  0.1305E+02  0.1321E+03
     -1.852  0.1123E+02  0.1327E+03
     -1.798  0.8099E+01  0.1332E+03
     -1.743  0.2299E+01  0.1333E+03
     -1.689  0.9112E+01  0.1338E+03
     -1.634  0.8469E+01  0.1343E+03
     -1.579  0.3350E+02  0.1361E+03
     -1.525  0.4242E+02  0.1384E+03
     -1.470  0.3484E+02  0.1403E+03
     -1.416  0.2848E+02  0.1419E+03
     -1.361  0.4428E+02  0.1443E+03
     -1.307  0.5772E+02  0.1474E+03
     -1.252  0.5869E+02  0.1506E+03
     -1.197  0.5466E+02  0.1536E+03
     -1.143  0.6994E+02  0.1574E+03
     -1.088  0.5216E+02  0.1603E+03
     -1.034  0.5553E+02  0.1633E+03
     -0.979  0.6058E+02  0.1666E+03
     -0.925  0.6698E+02  0.1703E+03
     -0.870  0.7773E+02  0.1745E+03
     -0.816  0.6840E+02  0.1782E+03
     -0.761  0.5116E+02  0.1810E+03
     -0.706  0.5050E+02  0.1838E+03
     -0.652  0.4085E+02  0.1860E+03
     -0.597  0.2115E+02  0.1872E+03
     -0.543  0.2933E+02  0.1888E+03
     -0.488  0.2983E+02  0.1904E+03
     -0.434  0.1978E+02  0.1915E+03
     -0.379  0.3519E+02  0.1934E+03
     -0.324  0.5283E+02  0.1963E+03
     -0.270  0.4343E+02  0.1987E+03
     -0.215  0.6001E+02  0.2019E+03
     -0.161  0.5202E+02  0.2048E+03
     -0.106  0.3396E+02  0.2066E+03
     -0.052  0.4127E+02  0.2089E+03
      0.003  0.3451E+02  0.2108E+03
      0.057  0.4553E+02  0.2132E+03
      0.112  0.1076E+02  0.2138E+03
      0.167  0.3282E+01  0.2140E+03
      0.221  0.6215E+01  0.2143E+03
      0.276  0.1906E+02  0.2154E+03
      0.330  0.2599E+02  0.2168E+03
      0.385  0.3330E+02  0.2186E+03
      0.439  0.2257E+02  0.2199E+03
      0.494  0.2073E+02  0.2210E+03
      0.549  0.2463E+02  0.2223E+03
      0.603  0.2074E+02  0.2235E+03
      0.658  0.2357E+02  0.2247E+03
      0.712  0.1820E+02  0.2257E+03
      0.767  0.1591E+02  0.2266E+03
      0.821  0.1934E+02  0.2277E+03
      0.876  0.6712E+01  0.2280E+03
      0.931  0.1654E+02  0.2289E+03
      0.985  0.2114E+02  0.2301E+03
      1.040  0.3025E+02  0.2317E+03
      1.094  0.2724E+02  0.2332E+03
      1.149  0.3421E+02  0.2351E+03
      1.203  0.2486E+02  0.2364E+03
      1.258  0.1284E+02  0.2371E+03
      1.312  0.2921E+02  0.2387E+03
      1.367  0.2623E+02  0.2402E+03
      1.422  0.5357E+02  0.2431E+03
      1.476  0.5795E+02  0.2463E+03
      1.531  0.8460E+02  0.2509E+03
      1.585  0.7816E+02  0.2551E+03
      1.640  0.8980E+02  0.2600E+03
      1.694  0.8090E+02  0.2645E+03
      1.749  0.5225E+02  0.2673E+03
      1.804  0.5531E+02  0.2703E+03
      1.858  0.3762E+02  0.2724E+03
      1.913  0.1781E+02  0.2733E+03
      1.967  0.1819E+02  0.2743E+03
      2.022  0.3297E+02  0.2761E+03
      2.076  0.5867E+02  0.2793E+03
      2.131  0.9434E+02  0.2845E+03
      2.185  0.1240E+03  0.2912E+03
      2.240  0.1146E+03  0.2975E+03
      2.295  0.1121E+03  0.3036E+03
      2.349  0.1204E+03  0.3102E+03
      2.404  0.1060E+03  0.3160E+03
      2.458  0.7776E+02  0.3202E+03
      2.513  0.4577E+02  0.3227E+03
      2.567  0.2674E+02  0.3242E+03
      2.622  0.4163E+02  0.3264E+03
      2.677  0.6752E+02  0.3301E+03
      2.731  0.8056E+02  0.3345E+03
      2.786  0.9777E+02  0.3399E+03
      2.840  0.9474E+02  0.3450E+03
      2.895  0.8086E+02  0.3494E+03
      2.949  0.9034E+02  0.3544E+03
      3.004  0.1037E+03  0.3600E+03
      3.059  0.1048E+03  0.3657E+03
      3.113  0.7344E+02  0.3698E+03
      3.168  0.7002E+02  0.3736E+03
      3.222  0.8864E+02  0.3784E+03
      3.277  0.9462E+02  0.3836E+03
      3.331  0.8656E+02  0.3883E+03
      3.386  0.9909E+02  0.3937E+03
      3.440  0.8898E+02  0.3986E+03
      3.495  0.9022E+02  0.4035E+03
      3.550  0.8173E+02  0.4079E+03
      3.604  0.8510E+02  0.4126E+03
      3.659  0.8464E+02  0.4172E+03
      3.713  0.6741E+02  0.4209E+03
      3.768  0.7908E+02  0.4252E+03
      3.822  0.6977E+02  0.4290E+03
      3.877  0.8723E+02  0.4338E+03
      3.932  0.6603E+02  0.4374E+03
      3.986  0.7164E+02  0.4413E+03
      4.041  0.7385E+02  0.4453E+03
      4.095  0.6522E+02  0.4489E+03
      4.150  0.6639E+02  0.4525E+03
      4.204  0.7082E+02  0.4563E+03
      4.259  0.7035E+02  0.4602E+03
      4.313  0.7396E+02  0.4642E+03
      4.368  0.7227E+02  0.4682E+03
      4.423  0.7496E+02  0.4723E+03
      4.477  0.5983E+02  0.4755E+03
      4.532  0.6239E+02  0.4789E+03
      4.586  0.5609E+02  0.4820E+03
      4.641  0.6984E+02  0.4858E+03
      4.695  0.5246E+02  0.4887E+03
      4.750  0.2823E+02  0.4902E+03
      4.805  0.1898E+02  0.4912E+03
      4.859  0.2994E+02  0.4929E+03
      4.914  0.4981E+02  0.4956E+03
      4.968  0.2147E+02  0.4968E+03
      5.023  0.4230E+02  0.4991E+03
      5.077  0.3856E+02  0.5012E+03
      5.132  0.3062E+02  0.5028E+03
      5.187  0.8181E+01  0.5033E+03
      5.241  0.6476E+01  0.5036E+03
      5.296  0.1559E+02  0.5045E+03
      5.350  0.1512E+02  0.5053E+03
      5.405  0.2836E+02  0.5069E+03
      5.459  0.7161E+01  0.5073E+03
      5.514  0.3241E+02  0.5090E+03
      5.568  0.1271E+02  0.5097E+03
      5.623  0.9849E+01  0.5103E+03
      5.678  0.1839E+02  0.5113E+03
      5.732  0.4644E+01  0.5115E+03
      5.787  0.4431E+01  0.5117E+03
      5.841  0.9665E-13  0.5118E+03
      5.896  0.2587E+01  0.5119E+03
      5.950  0.1995E+01  0.5120E+03
      6.005  0.0000E+00  0.5120E+03
      6.060  0.4222E-13  0.5120E+03
      6.114  0.2392E+01  0.5121E+03
      6.169  0.1781E+02  0.5131E+03
      6.223  0.2523E+02  0.5145E+03
      6.278  0.4912E+01  0.5147E+03
      6.332  0.1610E+02  0.5156E+03
      6.387  0.3196E+02  0.5174E+03
      6.441  0.2318E+02  0.5186E+03
      6.496  0.2877E+02  0.5202E+03
      6.551  0.1382E+02  0.5210E+03
      6.605  0.1655E+02  0.5219E+03
      6.660  0.1504E+02  0.5227E+03
      6.714  0.3201E+02  0.5244E+03
      6.769  0.3600E+02  0.5264E+03
      6.823  0.2934E+02  0.5280E+03
      6.878  0.3591E+02  0.5300E+03
      6.933  0.2359E+02  0.5312E+03
      6.987  0.4783E+02  0.5339E+03
      7.042  0.4654E+02  0.5364E+03
      7.096  0.3337E+02  0.5382E+03
      7.151  0.3158E+02  0.5399E+03
      7.205  0.4337E+02  0.5423E+03
      7.260  0.6477E+02  0.5458E+03
      7.315  0.6211E+02  0.5492E+03
      7.369  0.6965E+02  0.5530E+03
      7.424  0.7249E+02  0.5570E+03
      7.478  0.8826E+02  0.5618E+03
      7.533  0.8667E+02  0.5665E+03
      7.587  0.7556E+02  0.5706E+03
      7.642  0.9002E+02  0.5756E+03
      7.696  0.7708E+02  0.5798E+03
      7.751  0.9102E+02  0.5847E+03
      7.806  0.1098E+03  0.5907E+03
      7.860  0.9456E+02  0.5959E+03
      7.915  0.9314E+02  0.6010E+03
      7.969  0.8255E+02  0.6055E+03
      8.024  0.9007E+02  0.6104E+03
      8.078  0.7982E+02  0.6147E+03
      8.133  0.8324E+02  0.6193E+03
      8.188  0.7855E+02  0.6236E+03
      8.242  0.1010E+03  0.6291E+03
      8.297  0.8753E+02  0.6339E+03
      8.351  0.8062E+02  0.6382E+03
      8.406  0.6155E+02  0.6416E+03
      8.460  0.2864E+02  0.6432E+03
      8.515  0.2902E+01  0.6433E+03
      8.569  0.7667E+01  0.6437E+03
      8.624  0.4622E+01  0.6440E+03
      8.679  0.0000E+00  0.6440E+03
      8.733  0.0000E+00  0.6440E+03
      8.788  0.0000E+00  0.6440E+03
      8.842  0.0000E+00  0.6440E+03
      8.897  0.0000E+00  0.6440E+03
      8.951  0.0000E+00  0.6440E+03
      9.006  0.0000E+00  0.6440E+03
      9.061  0.0000E+00  0.6440E+03
      9.115  0.0000E+00  0.6440E+03
      9.170  0.0000E+00  0.6440E+03
      9.224  0.0000E+00  0.6440E+03
      9.279  0.0000E+00  0.6440E+03
      9.333  0.0000E+00  0.6440E+03
