 vasp.5.4.4.18Apr17-6-g9f103f2a35 (build Nov 08 2017 09:05:29) complex          
  
 executed on          Intel_17.33 date 2020.07.18  22:21:11
 running on   32 total cores
 distrk:  each k-point on   32 cores,    1 groups
 distr:  one band on NCORES_PER_BAND=  16 cores,    2 groups


--------------------------------------------------------------------------------------------------------


 INCAR:
 POTCAR:   PAW_PBE Si 05Jan2001                   

 ----------------------------------------------------------------------------- 
|                                                                             |
|           W    W    AA    RRRRR   N    N  II  N    N   GGGG   !!!           |
|           W    W   A  A   R    R  NN   N  II  NN   N  G    G  !!!           |
|           W    W  A    A  R    R  N N  N  II  N N  N  G       !!!           |
|           W WW W  AAAAAA  RRRRR   N  N N  II  N  N N  G  GGG   !            |
|           WW  WW  A    A  R   R   N   NN  II  N   NN  G    G                |
|           W    W  A    A  R    R  N    N  II  N    N   GGGG   !!!           |
|                                                                             |
|      For optimal performance we recommend to set                            |
|        NCORE= 4 - approx SQRT( number of cores)                             |
|      NCORE specifies how many cores store one orbital (NPAR=cpu/NCORE).     |
|      This setting can  greatly improve the performance of VASP for DFT.     |
|      The default,   NCORE=1            might be grossly inefficient         |
|      on modern multi-core architectures or massively parallel machines.     |
|      Do your own testing !!!!                                               |
|      Unfortunately you need to use the default for GW and RPA calculations. |
|      (for HF NCORE is supported but not extensively tested yet)             |
|                                                                             |
 ----------------------------------------------------------------------------- 

 POTCAR:   PAW_PBE Si 05Jan2001                   
   VRHFIN =Si: s2p2                                                             
   LEXCH  = PE                                                                  
   EATOM  =   103.0669 eV,    7.5752 Ry                                         
                                                                                
   TITEL  = PAW_PBE Si 05Jan2001                                                
   LULTRA =        F    use ultrasoft PP ?                                      
   IUNSCR =        1    unscreen: 0-lin 1-nonlin 2-no                           
   RPACOR =    1.500    partial core radius                                     
   POMASS =   28.085; ZVAL   =    4.000    mass and valenz                      
   RCORE  =    1.900    outmost cutoff radius                                   
   RWIGS  =    2.480; RWIGS  =    1.312    wigner-seitz radius (au A)           
   ENMAX  =  245.345; ENMIN  =  184.009 eV                                      
   ICORE  =        2    local potential                                         
   LCOR   =        T    correct aug charges                                     
   LPAW   =        T    paw PP                                                  
   EAUG   =  322.069                                                            
   DEXC   =    -.007                                                            
   RMAX   =    2.944    core radius for proj-oper                               
   RAUG   =    1.300    factor for augmentation sphere                          
   RDEP   =    1.993    radius for radial grids                                 
   QCUT   =   -4.246; QGAM   =    8.493    optimization parameters              
                                                                                
   Description                                                                  
     l     E      TYP  RCUT    TYP  RCUT                                        
     0   .000     23  1.900                                                     
     0   .000     23  1.900                                                     
     1   .000     23  1.900                                                     
     1   .000     23  1.900                                                     
     2   .000      7  1.900                                                     
  local pseudopotential read in
  partial core-charges read in
  atomic valenz-charges read in
  non local Contribution for L=           0  read in
    real space projection operators read in
  non local Contribution for L=           0  read in
    real space projection operators read in
  non local Contribution for L=           1  read in
    real space projection operators read in
  non local Contribution for L=           1  read in
    real space projection operators read in
    PAW grid and wavefunctions read in
 
   number of l-projection  operators is LMAX  =           4
   number of lm-projection operators is LMMAX =           8
 

 ----------------------------------------------------------------------------- 
|                                                                             |
|  ADVICE TO THIS USER RUNNING 'VASP/VAMP'   (HEAR YOUR MASTER'S VOICE ...):  |
|                                                                             |
|      You have a (more or less) 'large supercell' and for larger cells       |
|      it might be more efficient to use real space projection operators      |
|      So try LREAL= Auto  in the INCAR   file.                               |
|      Mind: If you want to do a very accurate calculations keep the          |
|      reciprocal projection scheme          (i.e. LREAL=.FALSE.)             |
|                                                                             |
 ----------------------------------------------------------------------------- 

 PAW_PBE Si 05Jan2001                   :
 energy of atom  1       EATOM= -103.0669
 kinetic energy error for atom=    0.0006 (will be added to EATOM!!)
 
 
 POSCAR: kk                                      
  positions in direct lattice
  No initial velocities read in
 exchange correlation table for  LEXCH =        8
   RHO(1)=    0.500       N(1)  =     2000
   RHO(2)=  100.500       N(2)  =     4000
 


--------------------------------------------------------------------------------------------------------


 ion  position               nearest neighbor table
   1  0.988  0.001  0.016-  68 2.26  65 2.33  77 2.56 113 2.62
   2  0.268  0.992  0.001-  66 2.23  78 2.34 114 2.36  65 2.52
   3  0.498  0.996  0.995-  66 2.24 115 2.28  79 2.40  67 2.53
   4  0.742  0.008  0.002-  67 2.21  80 2.29  68 2.37 116 2.44
   5  0.995  0.255  0.991- 117 2.21  72 2.43  65 2.49  69 2.51
   6  0.265  0.243  0.993- 118 2.18  70 2.36  66 2.45  69 2.51
   7  0.498  0.249  0.005-  70 2.32  71 2.43  67 2.45 119 2.45
   8  0.748  0.245  0.000-  71 2.27 120 2.31  68 2.33  72 2.62
   9  0.008  0.496  0.002-  73 2.20  69 2.33  76 2.39 121 2.41
  10  0.246  0.498  0.003-  73 2.33  70 2.34 122 2.43  74 2.43
  11  0.492  0.508  0.005-  74 2.28  75 2.33  71 2.38 123 2.58
  12  0.753  0.496  0.004-  72 2.13  75 2.33  76 2.34 124 2.53
  13  1.000  0.744  0.006-  77 2.32  73 2.39 125 2.42  80 2.43
  14  0.242  0.747  0.998-  77 2.24 126 2.32  74 2.40  78 2.41
  15  0.492  0.748  0.010-  78 2.23  75 2.25  79 2.36 127 2.38
  16  0.737  0.755  0.005-  79 2.26 128 2.33  80 2.37  76 2.46
  17  0.015  0.992  0.244-  93 2.19  65 2.33  81 2.40  84 2.72
  18  0.241  0.010  0.250-  81 2.22  66 2.32  82 2.36  94 2.52
  19  0.506  1.000  0.238-  67 2.16  82 2.30  95 2.32  83 2.58
  20  0.741  0.996  0.258-  96 2.20  83 2.39  68 2.39  84 2.51
  21  0.996  0.247  0.265-  85 2.28  88 2.29  81 2.40  69 2.58
  22  0.249  0.261  0.249-  85 2.30  86 2.36  70 2.38  82 2.55
  23  0.498  0.253  0.251-  86 2.28  83 2.32  71 2.48  87 2.49
  24  0.748  0.251  0.255-  88 2.21  84 2.25  87 2.30  72 2.34
  25  0.993  0.510  0.248-  92 2.22  89 2.28  73 2.34  85 2.46
  26  0.256  0.487  0.257-  86 2.30  90 2.33  74 2.36  89 2.54
  27  0.492  0.502  0.250-  90 2.24  87 2.33  91 2.51  75 2.59
  28  0.751  0.501  0.251-  91 2.28  92 2.37  76 2.44  88 2.56
  29  0.008  0.750  0.245-  77 2.21  89 2.34  93 2.36  96 2.51
  30  0.245  0.748  0.254-  94 2.16  93 2.27  90 2.47  78 2.53
  31  0.506  0.743  0.252-  79 2.29  91 2.35  95 2.45  94 2.61
  32  0.745  0.752  0.253-  95 2.15  96 2.39  92 2.46  80 2.60
  33  0.995  0.009  0.493-  81 2.22 100 2.22  97 2.51 109 2.52
  34  0.257  1.000  0.498- 110 2.24  98 2.30  82 2.47  97 2.48
  35  0.498  0.999  0.506-  99 2.20  83 2.29 111 2.40  98 2.41
  36  0.753  0.004  0.502- 112 2.28  84 2.31  99 2.37 100 2.40
  37  0.995  0.242  0.510-  97 2.27 104 2.27 101 2.37  85 2.58
  38  0.239  0.255  0.507- 102 2.32 101 2.33  86 2.36  98 2.45
  39  0.507  0.240  0.503-  99 2.18  87 2.39 103 2.62 102 2.65
  40  0.757  0.237  0.490-  88 2.21 100 2.25 103 2.49 104 2.70
  41  0.998  0.487  0.503- 108 2.24 101 2.32  89 2.44 105 2.77
  42  0.239  0.504  0.496- 105 2.14  90 2.26 106 2.32 102 2.34
  43  0.508  0.509  0.501- 107 2.22 103 2.38  91 2.38 106 2.61
  44  0.744  0.499  0.507- 107 2.22 104 2.25  92 2.41 108 2.47
  45  0.998  0.749  0.502- 105 2.22 109 2.29  93 2.48 112 2.50
  46  0.248  0.751  0.496- 109 2.34  94 2.40 110 2.41 106 2.49
  47  0.503  0.755  0.495- 111 2.30  95 2.42 110 2.47 107 2.54
  48  0.754  0.751  0.490- 112 2.30  96 2.31 108 2.38 111 2.56
  49  1.000  0.991  0.750-  97 2.25 125 2.29 113 2.31 116 2.34
  50  0.241  0.007  0.755- 113 2.29  98 2.37 126 2.38 114 2.39
  51  0.501  0.997  0.749- 127 2.38 114 2.41 115 2.50  99 2.67
  52  0.751  0.004  0.741- 100 2.20 115 2.34 116 2.44 128 2.56
  53  0.997  0.235  0.771- 113 2.32 117 2.37 120 2.43 101 2.47
  54  0.252  0.251  0.753- 102 2.32 114 2.34 118 2.36 117 2.37
  55  0.491  0.248  0.753- 118 2.27 103 2.32 115 2.34 119 2.47
  56  0.761  0.243  0.763- 120 2.22 116 2.27 119 2.56 104 2.59
  57  0.990  0.498  0.758- 124 2.25 117 2.41 121 2.44 105 2.51
  58  0.237  0.506  0.745- 121 2.20 106 2.29 118 2.48 122 2.49
  59  0.493  0.499  0.747- 107 2.24 122 2.26 119 2.30 123 2.39
  60  0.758  0.502  0.741- 108 2.27 120 2.32 124 2.38 123 2.49
  61  0.998  0.750  0.744- 128 2.30 121 2.33 109 2.34 125 2.55
  62  0.249  0.758  0.745- 125 2.28 126 2.42 110 2.42 122 2.51
  63  0.500  0.746  0.748- 111 2.22 123 2.28 126 2.41 127 2.43
  64  0.748  0.749  0.748- 124 2.23 127 2.44 128 2.48 112 2.49
  65  0.069  0.059  0.060-  17 2.33   1 2.33   5 2.49   2 2.52
  66  0.321  0.049  0.067-   2 2.23   3 2.24  18 2.32   6 2.45
  67  0.568  0.055  0.067-  19 2.16   4 2.21   7 2.45   3 2.53
  68  0.810  0.061  0.069-   1 2.26   8 2.33   4 2.37  20 2.39
  69  0.066  0.312  0.061-   9 2.33   5 2.51   6 2.51  21 2.58
  70  0.314  0.312  0.061-   7 2.32  10 2.34   6 2.36  22 2.38
  71  0.569  0.320  0.054-   8 2.27  11 2.38   7 2.43  23 2.48
  72  0.804  0.327  0.070-  12 2.13  24 2.34   5 2.43   8 2.62
  73  0.061  0.555  0.064-   9 2.20  10 2.33  25 2.34  13 2.39
  74  0.312  0.557  0.071-  11 2.28  26 2.36  14 2.40  10 2.43
  75  0.570  0.573  0.046-  15 2.25  12 2.33  11 2.33  27 2.59
  76  0.819  0.561  0.058-  12 2.34   9 2.39  28 2.44  16 2.46
  77  0.065  0.798  0.070-  29 2.21  14 2.24  13 2.32   1 2.56
  78  0.316  0.808  0.054-  15 2.23   2 2.34  14 2.41  30 2.53
  79  0.558  0.807  0.072-  16 2.26  31 2.29  15 2.36   3 2.40
  80  0.809  0.827  0.047-   4 2.29  16 2.37  13 2.43  32 2.60
  81  0.066  0.057  0.318-  33 2.22  18 2.22  21 2.40  17 2.40
  82  0.324  0.060  0.302-  19 2.30  18 2.36  34 2.47  22 2.55
  83  0.553  0.069  0.325-  35 2.29  23 2.32  20 2.39  19 2.58
  84  0.800  0.073  0.319-  24 2.25  36 2.31  20 2.51  17 2.72
  85  0.067  0.315  0.306-  21 2.28  22 2.30  25 2.46  37 2.58
  86  0.318  0.305  0.322-  23 2.28  26 2.30  22 2.36  38 2.36
  87  0.566  0.318  0.314-  24 2.30  27 2.33  39 2.39  23 2.49
  88  0.815  0.299  0.314-  24 2.21  40 2.21  21 2.29  28 2.56
  89  0.055  0.566  0.310-  25 2.28  29 2.34  41 2.44  26 2.54
  90  0.314  0.553  0.318-  27 2.24  42 2.26  26 2.33  30 2.47
  91  0.571  0.557  0.313-  28 2.28  31 2.35  43 2.38  27 2.51
  92  0.817  0.557  0.317-  25 2.22  28 2.37  44 2.41  32 2.46
  93  0.065  0.819  0.306-  17 2.19  30 2.27  29 2.36  45 2.48
  94  0.300  0.811  0.307-  30 2.16  46 2.40  18 2.52  31 2.61
  95  0.575  0.816  0.303-  32 2.15  19 2.32  47 2.42  31 2.45
  96  0.810  0.822  0.308-  20 2.20  48 2.31  32 2.39  29 2.51
  97  0.061  0.063  0.572-  49 2.25  37 2.27  34 2.48  33 2.51
  98  0.307  0.061  0.567-  34 2.30  50 2.37  35 2.41  38 2.45
  99  0.568  0.069  0.538-  39 2.18  35 2.20  36 2.37  51 2.67
 100  0.820  0.061  0.567-  52 2.20  33 2.22  40 2.25  36 2.40
 101  0.055  0.304  0.575-  41 2.32  38 2.33  37 2.37  53 2.47
 102  0.297  0.319  0.570-  54 2.32  38 2.32  42 2.34  39 2.65
 103  0.564  0.321  0.571-  55 2.32  43 2.38  40 2.49  39 2.62
 104  0.817  0.322  0.559-  44 2.25  37 2.27  56 2.59  40 2.70
 105  0.071  0.574  0.562-  42 2.14  45 2.22  57 2.51  41 2.77
 106  0.304  0.554  0.565-  58 2.29  42 2.32  46 2.49  43 2.61
 107  0.569  0.554  0.571-  43 2.22  44 2.22  59 2.24  47 2.54
 108  0.822  0.563  0.561-  41 2.24  60 2.27  48 2.38  44 2.47
 109  0.062  0.809  0.559-  45 2.29  61 2.34  46 2.34  33 2.52
 110  0.308  0.823  0.554-  34 2.24  46 2.41  62 2.42  47 2.47
 111  0.552  0.810  0.572-  63 2.22  47 2.30  35 2.40  48 2.56
 112  0.801  0.825  0.551-  36 2.28  48 2.30  64 2.49  45 2.50
 113  0.061  0.053  0.809-  50 2.29  49 2.31  53 2.32   1 2.62
 114  0.311  0.065  0.815-  54 2.34   2 2.36  50 2.39  51 2.41
 115  0.566  0.064  0.816-   3 2.28  55 2.34  52 2.34  51 2.50
 116  0.815  0.065  0.809-  56 2.27  49 2.34  52 2.44   4 2.44
 117  0.065  0.307  0.817-   5 2.21  53 2.37  54 2.37  57 2.41
 118  0.311  0.310  0.821-   6 2.18  55 2.27  54 2.36  58 2.48
 119  0.559  0.317  0.811-  59 2.30   7 2.45  55 2.47  56 2.56
 120  0.806  0.319  0.818-  56 2.22   8 2.31  60 2.32  53 2.43
 121  0.062  0.565  0.811-  58 2.20  61 2.33   9 2.41  57 2.44
 122  0.314  0.559  0.811-  59 2.26  10 2.43  58 2.49  62 2.51
 123  0.561  0.565  0.801-  63 2.28  59 2.39  60 2.49  11 2.58
 124  0.813  0.572  0.804-  64 2.23  57 2.25  60 2.38  12 2.53
 125  0.069  0.810  0.815-  62 2.28  49 2.29  13 2.42  61 2.55
 126  0.310  0.818  0.815-  14 2.32  50 2.38  63 2.41  62 2.42
 127  0.555  0.809  0.822-  51 2.38  15 2.38  63 2.43  64 2.44
 128  0.817  0.802  0.821-  61 2.30  16 2.33  64 2.48  52 2.56
 
  LATTYP: Found a face centered cubic cell.
 ALAT       =    21.8746673814
  
  Lattice vectors:
  
 A1 = (   0.0000000000,  10.9373336907,  10.9373336907)
 A2 = (  10.9373336907,   0.0000000000,  10.9373336907)
 A3 = (  10.9373336907,  10.9373336907,   0.0000000000)


Analysis of symmetry for initial positions (statically):
=====================================================================
 Subroutine PRICEL returns:
 Original cell was already a primitive cell.
 

 Routine SETGRP: Setting up the symmetry group for a 
 face centered cubic supercell.


 Subroutine GETGRP returns: Found  1 space group operations
 (whereof  1 operations were pure point group operations)
 out of a pool of 48 trial point group operations.


The static configuration has the point symmetry C_1 .


Analysis of symmetry for dynamics (positions and initial velocities):
=====================================================================
 Subroutine PRICEL returns:
 Original cell was already a primitive cell.
 

 Routine SETGRP: Setting up the symmetry group for a 
 face centered cubic supercell.


 Subroutine GETGRP returns: Found  1 space group operations
 (whereof  1 operations were pure point group operations)
 out of a pool of 48 trial point group operations.


The dynamic configuration has the point symmetry C_1 .


 Subroutine INISYM returns: Found  1 space group operations
 (whereof  1 operations are pure point group operations),
 and found     1 'primitive' translations

 
 
 KPOINTS: KPOINTS File, automatically generated by

Automatic generation of k-mesh.
Space group operators:
 irot       det(A)        alpha          n_x          n_y          n_z        tau_x        tau_y        tau_z
    1     1.000000     0.000001     1.000000     0.000000     0.000000     0.000000     0.000000     0.000000
 
 Subroutine IBZKPT returns following result:
 ===========================================
 
 Found      8 irreducible k-points:
 
 Following reciprocal coordinates:
            Coordinates               Weight
  0.000000  0.000000  0.000000      1.000000
  0.500000  0.000000  0.000000      1.000000
  0.000000  0.500000  0.000000      1.000000
  0.500000  0.500000  0.000000      1.000000
  0.000000  0.000000  0.500000      1.000000
  0.500000  0.000000  0.500000      1.000000
  0.000000  0.500000  0.500000      1.000000
  0.500000  0.500000  0.500000      1.000000
 
 Following cartesian coordinates:
            Coordinates               Weight
  0.000000  0.000000  0.000000      1.000000
 -0.022857  0.022857  0.022857      1.000000
  0.022857 -0.022857  0.022857      1.000000
  0.000000  0.000000  0.045715      1.000000
  0.022857  0.022857 -0.022857      1.000000
  0.000000  0.045715  0.000000      1.000000
  0.045715  0.000000  0.000000      1.000000
  0.022857  0.022857  0.022857      1.000000
 


--------------------------------------------------------------------------------------------------------




 Dimension of arrays:
   k-points           NKPTS =      8   k-points in BZ     NKDIM =      8   number of bands    NBANDS=    322
   number of dos      NEDOS =    301   number of ions     NIONS =    128
   non local maximal  LDIM  =      4   non local SUM 2l+1 LMDIM =      8
   total plane-waves  NPLWV = ******
   max r-space proj   IRMAX =      1   max aug-charges    IRDMAX= 176811
   dimension x,y,z NGX =   120 NGY =  120 NGZ =  120
   dimension x,y,z NGXF=   240 NGYF=  240 NGZF=  240
   support grid    NGXF=   480 NGYF=  480 NGZF=  480
   ions per type =             128
   NGX,Y,Z   is equivalent  to a cutoff of  12.90, 12.90, 12.90 a.u.
   NGXF,Y,Z  is equivalent  to a cutoff of  25.80, 25.80, 25.80 a.u.

 SYSTEM =  potpaw_PBE@./ARUN.APL1ZEROSTATE         
 POSCAR =  kk                                      

 Startparameter for this run:
   NWRITE =      2    write-flag & timer
   PREC   = accura    normal or accurate (medium, high low for compatibility)
   ISTART =      0    job   : 0-new  1-cont  2-samecut
   ICHARG =      2    charge: 1-file 2-atom 10-const
   ISPIN  =      1    spin polarized calculation?
   LNONCOLLINEAR =      F non collinear calculations
   LSORBIT =      F    spin-orbit coupling
   INIWAV =      1    electr: 0-lowe 1-rand  2-diag
   LASPH  =      F    aspherical Exc in radial PAW
   METAGGA=      F    non-selfconsistent MetaGGA calc.

 Electronic Relaxation 1
   ENCUT  =  500.0 eV  36.75 Ry    6.06 a.u.  28.20 28.20 28.20*2*pi/ulx,y,z
   ENINI  =  500.0     initial cutoff
   ENAUG  =  322.1 eV  augmentation charge cutoff
   NELM   =    120;   NELMIN=  4; NELMDL= -5     # of ELM steps 
   EDIFF  = 0.1E-07   stopping-criterion for ELM
   LREAL  =      F    real-space projection
   NLSPLINE    = F    spline interpolate recip. space projectors
   LCOMPAT=      F    compatible to vasp.4.4
   GGA_COMPAT  = T    GGA compatible to vasp.4.4-vasp.4.6
   LMAXPAW     = -100 max onsite density
   LMAXMIX     =    2 max onsite mixed and CHGCAR
   VOSKOWN=      0    Vosko Wilk Nusair interpolation
   ROPT   =    0.00000
 Ionic relaxation
   EDIFFG = 0.1E-06   stopping-criterion for IOM
   NSW    =      0    number of steps for IOM
   NBLOCK =      1;   KBLOCK =      1    inner block; outer block 
   IBRION =     -1    ionic relax: 0-MD 1-quasi-New 2-CG
   NFREE  =      0    steps in history (QN), initial steepest desc. (CG)
   ISIF   =      2    stress and relaxation
   IWAVPR =     10    prediction:  0-non 1-charg 2-wave 3-comb
   ISYM   =      2    0-nonsym 1-usesym 2-fastsym
   LCORR  =      T    Harris-Foulkes like correction to forces

   POTIM  = 0.5000    time-step for ionic-motion
   TEIN   =    0.0    initial temperature
   TEBEG  =    0.0;   TEEND  =   0.0 temperature during run
   SMASS  =  -3.00    Nose mass-parameter (am)
   estimated Nose-frequenzy (Omega)   =  0.10E-29 period in steps =****** mass=  -0.547E-26a.u.
   SCALEE = 1.0000    scale energy and forces
   NPACO  =    256;   APACO  = 16.0  distance and # of slots for P.C.
   PSTRESS=    0.0 pullay stress

  Mass of Ions in am
   POMASS =  28.09
  Ionic Valenz
   ZVAL   =   4.00
  Atomic Wigner-Seitz radii
   RWIGS  =  -1.00
  virtual crystal weights 
   VCA    =   1.00
   NELECT =     512.0000    total number of electrons
   NUPDOWN=      -1.0000    fix difference up-down

 DOS related values:
   EMIN   =  10.00;   EMAX   =-10.00  energy-range for DOS
   EFERMI =   0.00
   ISMEAR =     0;   SIGMA  =   0.01  broadening in eV -4-tet -1-fermi 0-gaus

 Electronic relaxation 2 (details)
   IALGO  =     38    algorithm
   LDIAG  =      T    sub-space diagonalisation (order eigenvalues)
   LSUBROT=      F    optimize rotation matrix (better conditioning)
   TURBO    =      0    0=normal 1=particle mesh
   IRESTART =      0    0=no restart 2=restart with 2 vectors
   NREBOOT  =      0    no. of reboots
   NMIN     =      0    reboot dimension
   EREF     =   0.00    reference energy to select bands
   IMIX   =      4    mixing-type and parameters
     AMIX     =   0.40;   BMIX     =  1.00
     AMIX_MAG =   1.60;   BMIX_MAG =  1.00
     AMIN     =   0.10
     WC   =   100.;   INIMIX=   1;  MIXPRE=   1;  MAXMIX= -45

 Intra band minimization:
   WEIMIN = 0.0000     energy-eigenvalue tresh-hold
   EBREAK =  0.78E-11  absolut break condition
   DEPER  =   0.30     relativ break condition  

   TIME   =   0.40     timestep for ELM

  volume/ion in A,a.u.               =      20.44       137.96
  Fermi-wavevector in a.u.,A,eV,Ry     =   0.950408  1.796010 12.289804  0.903275
  Thomas-Fermi vector in A             =   2.078782
 
 Write flags
   LWAVE        =      F    write WAVECAR
   LDOWNSAMPLE  =      F    k-point downsampling of WAVECAR
   LCHARG       =      F    write CHGCAR
   LVTOT        =      F    write LOCPOT, total local potential
   LVHAR        =      F    write LOCPOT, Hartree potential only
   LELF         =      F    write electronic localiz. function (ELF)
   LORBIT       =      0    0 simple, 1 ext, 2 COOP (PROOUT), +10 PAW based schemes


 Dipole corrections
   LMONO  =      F    monopole corrections only (constant potential shift)
   LDIPOL =      F    correct potential (dipole corrections)
   IDIPOL =      0    1-x, 2-y, 3-z, 4-all directions 
   EPSILON=  1.0000000 bulk dielectric constant

 Exchange correlation treatment:
   GGA     =    --    GGA type
   LEXCH   =     8    internal setting for exchange type
   VOSKOWN=      0    Vosko Wilk Nusair interpolation
   LHFCALC =     F    Hartree Fock is set to
   LHFONE  =     F    Hartree Fock one center treatment
   AEXX    =    0.0000 exact exchange contribution

 Linear response parameters
   LEPSILON=     F    determine dielectric tensor
   LRPA    =     F    only Hartree local field effects (RPA)
   LNABLA  =     F    use nabla operator in PAW spheres
   LVEL    =     F    velocity operator in full k-point grid
   LINTERFAST=   F  fast interpolation
   KINTER  =     0    interpolate to denser k-point grid
   CSHIFT  =0.1000    complex shift for real part using Kramers Kronig
   OMEGAMAX=  -1.0    maximum frequency
   DEG_THRESHOLD= 0.2000000E-02 threshold for treating states as degnerate
   RTIME   =   -0.100 relaxation time in fs
  (WPLASMAI=    0.000 imaginary part of plasma frequency in eV, 0.658/RTIME)
   DFIELD  = 0.0000000 0.0000000 0.0000000 field for delta impulse in time
 
 Orbital magnetization related:
   ORBITALMAG=     F  switch on orbital magnetization
   LCHIMAG   =     F  perturbation theory with respect to B field
   DQ        =  0.001000  dq finite difference perturbation B field
   LLRAUG    =     F  two centre corrections for induced B field



--------------------------------------------------------------------------------------------------------


 Static calculation
 charge density and potential will be updated during run
 non-spin polarized calculation
 Variant of blocked Davidson
 Davidson routine will perform the subspace rotation
 perform sub-space diagonalisation
    after iterative eigenvector-optimisation
 modified Broyden-mixing scheme, WC =      100.0
 initial mixing is a Kerker type mixing with AMIX =  0.4000 and BMIX =      1.0000
 Hartree-type preconditioning will be used
 using additional bands           66
 reciprocal scheme for non local part
 use partial core corrections
 calculate Harris-corrections to forces 
   (improved forces if not selfconsistent)
 use gradient corrections 
 use of overlap-Matrix (Vanderbilt PP)
 Gauss-broadening in eV      SIGMA  =   0.01


--------------------------------------------------------------------------------------------------------


  energy-cutoff  :      500.00
  volume of cell :     2616.76
      direct lattice vectors                 reciprocal lattice vectors
     0.000000000 10.937333691 10.937333691    -0.045714981  0.045714981  0.045714981
    10.937333691  0.000000000 10.937333691     0.045714981 -0.045714981  0.045714981
    10.937333691 10.937333691  0.000000000     0.045714981  0.045714981 -0.045714981

  length of vectors
    15.467725642 15.467725642 15.467725642     0.079180669  0.079180669  0.079180669


 
 k-points in units of 2pi/SCALE and weight: KPOINTS File, automatically generated by
   0.00000000  0.00000000  0.00000000       0.125
  -0.02285749  0.02285749  0.02285749       0.125
   0.02285749 -0.02285749  0.02285749       0.125
   0.00000000  0.00000000  0.04571498       0.125
   0.02285749  0.02285749 -0.02285749       0.125
   0.00000000  0.04571498  0.00000000       0.125
   0.04571498  0.00000000  0.00000000       0.125
   0.02285749  0.02285749  0.02285749       0.125
 
 k-points in reciprocal lattice and weights: KPOINTS File, automatically generated by
   0.00000000  0.00000000  0.00000000       0.125
   0.50000000  0.00000000  0.00000000       0.125
   0.00000000  0.50000000  0.00000000       0.125
   0.50000000  0.50000000  0.00000000       0.125
   0.00000000  0.00000000  0.50000000       0.125
   0.50000000  0.00000000  0.50000000       0.125
   0.00000000  0.50000000  0.50000000       0.125
   0.50000000  0.50000000  0.50000000       0.125
 
 position of ions in fractional coordinates (direct lattice) 
   0.98834161  0.00075144  0.01585161
   0.26834655  0.99202476  0.00073253
   0.49817747  0.99605699  0.99529192
   0.74231931  0.00774228  0.00165114
   0.99516725  0.25513277  0.99074429
   0.26453401  0.24301887  0.99349173
   0.49752061  0.24873715  0.00503341
   0.74788260  0.24544029  0.00045662
   0.00802845  0.49625252  0.00154939
   0.24581549  0.49784764  0.00344595
   0.49188678  0.50811130  0.00499050
   0.75293227  0.49552074  0.00427941
   0.99985508  0.74435767  0.00610985
   0.24220721  0.74694921  0.99788594
   0.49153091  0.74834965  0.01031390
   0.73715096  0.75490059  0.00459262
   0.01503826  0.99160170  0.24434674
   0.24115557  0.00956025  0.24953106
   0.50581465  0.99969590  0.23835863
   0.74135879  0.99557668  0.25764537
   0.99571695  0.24688542  0.26520537
   0.24869642  0.26112492  0.24863659
   0.49781745  0.25278638  0.25061261
   0.74839498  0.25122378  0.25451734
   0.99274627  0.50989513  0.24811129
   0.25576542  0.48714037  0.25731644
   0.49161979  0.50150645  0.25023242
   0.75142057  0.50109621  0.25093315
   0.00821162  0.75046996  0.24474333
   0.24454493  0.74784651  0.25412934
   0.50582119  0.74273870  0.25233030
   0.74544407  0.75182214  0.25303349
   0.99544513  0.00904011  0.49326085
   0.25693022  0.99956322  0.49751033
   0.49791962  0.99899789  0.50566798
   0.75302230  0.00351082  0.50185997
   0.99483771  0.24174143  0.51008682
   0.23916301  0.25505219  0.50737107
   0.50660227  0.23975958  0.50310594
   0.75724500  0.23723800  0.48952179
   0.99772756  0.48725818  0.50327710
   0.23871177  0.50384620  0.49649832
   0.50783719  0.50934262  0.50127738
   0.74423644  0.49939799  0.50717766
   0.99784146  0.74927898  0.50211268
   0.24786273  0.75066635  0.49576734
   0.50330095  0.75509448  0.49463893
   0.75385116  0.75061419  0.49035467
   0.99990443  0.99148731  0.74968474
   0.24132669  0.00663602  0.75464487
   0.50148366  0.99703559  0.74932505
   0.75088285  0.00397587  0.74076763
   0.99660864  0.23531300  0.77073178
   0.25233649  0.25104782  0.75306099
   0.49053320  0.24764861  0.75302918
   0.76109240  0.24336982  0.76339026
   0.99009239  0.49776888  0.75819298
   0.23661406  0.50575065  0.74547179
   0.49313247  0.49851003  0.74688297
   0.75762251  0.50156645  0.74087178
   0.99822495  0.75004738  0.74412116
   0.24947436  0.75777724  0.74516214
   0.50038688  0.74556152  0.74790631
   0.74820608  0.74850913  0.74777789
   0.06904764  0.05881729  0.06033124
   0.32124599  0.04903927  0.06724534
   0.56783072  0.05506976  0.06715787
   0.80979753  0.06077980  0.06870020
   0.06620603  0.31166578  0.06128270
   0.31396881  0.31232358  0.06099830
   0.56862094  0.32003519  0.05412143
   0.80419478  0.32704111  0.06976896
   0.06146022  0.55510676  0.06366304
   0.31179825  0.55730884  0.07060782
   0.57005934  0.57255707  0.04569560
   0.81888508  0.56120067  0.05794878
   0.06515869  0.79832359  0.07038627
   0.31561799  0.80804997  0.05371037
   0.55840305  0.80678298  0.07150482
   0.80938940  0.82681205  0.04692081
   0.06566007  0.05730000  0.31785170
   0.32371412  0.06013640  0.30162589
   0.55295705  0.06932318  0.32463245
   0.79989456  0.07343158  0.31938522
   0.06654900  0.31506709  0.30593360
   0.31766426  0.30484583  0.32157565
   0.56633679  0.31801721  0.31437419
   0.81547374  0.29861856  0.31429016
   0.05535664  0.56590201  0.31036188
   0.31425724  0.55250408  0.31827509
   0.57134449  0.55662503  0.31333607
   0.81729002  0.55702999  0.31683992
   0.06541464  0.81869724  0.30593273
   0.29991668  0.81099191  0.30651346
   0.57503922  0.81632962  0.30324650
   0.80960586  0.82167686  0.30809459
   0.06103785  0.06261078  0.57193591
   0.30703388  0.06129423  0.56742829
   0.56798956  0.06870010  0.53780890
   0.82020629  0.06126047  0.56683337
   0.05531378  0.30430783  0.57498491
   0.29664614  0.31893926  0.56997074
   0.56383566  0.32103293  0.57148946
   0.81671315  0.32206429  0.55874643
   0.07104028  0.57449009  0.56153838
   0.30382002  0.55396448  0.56494052
   0.56866872  0.55389985  0.57066313
   0.82188265  0.56262646  0.56145682
   0.06240374  0.80929530  0.55915526
   0.30801582  0.82263369  0.55391851
   0.55198488  0.80954271  0.57229614
   0.80086916  0.82462458  0.55108334
   0.06134500  0.05346947  0.80894809
   0.31119833  0.06544896  0.81477778
   0.56626343  0.06369262  0.81587881
   0.81508194  0.06475773  0.80862447
   0.06512848  0.30741412  0.81657644
   0.31136835  0.31024521  0.82147691
   0.55933221  0.31669095  0.81098003
   0.80550035  0.31871693  0.81827805
   0.06235042  0.56549611  0.81090890
   0.31404575  0.55931128  0.81134530
   0.56097120  0.56532014  0.80146455
   0.81250928  0.57195143  0.80418890
   0.06888459  0.81036694  0.81455806
   0.31024639  0.81814938  0.81521847
   0.55491708  0.80931957  0.82150191
   0.81703928  0.80214058  0.82101944
 
 position of ions in cartesian coordinates  (Angst):
   0.18159306 10.98319632 10.81804076
  10.85811776  2.94300774 13.78510160
  21.78004749 16.33457304 16.34294082
   0.10273895  8.13705310  8.20367386
  13.62657312 21.72057719 13.67494858
  13.52412907 13.75944734  5.55127521
   2.77557329  5.49660099  8.16207022
   2.68945658  8.18483578 10.86430399
   5.44462560  0.10475609  5.51548919
   5.48281520  2.72625545  8.13369172
   5.61196563  5.43451264 10.93731269
   5.46648104  8.28187686 13.65474722
   8.20811364 11.00257413 19.07703686
  19.08384429 13.56331260 10.81873383
   8.29775641  5.48884414 13.56098747
   8.30683061  8.11269696 16.31906561
  13.51798053  2.83698030 11.00995720
   2.83376809  5.36680337  2.74216260
  13.54101557  8.13927157 16.46627132
  13.70690784 10.92644187 18.99744286
   5.60090788 13.79112826 13.59075679
   5.57543178  5.43949708  5.57608610
   5.50584268  8.18582926  8.20960448
   5.53145937 10.96918668 10.93316397
   8.29056917 13.57167320 16.43489035
   8.14237246  5.61174745  8.12540848
   8.22201885  8.11388516 10.86215312
   8.22519602 10.96307706 13.69919392
  10.88497978  2.76665263  8.29795350
  10.95894429  5.45416692 10.85411635
  10.88340168  8.29215586 13.65591618
  10.99044134 10.92068231 16.37610021
   5.49383319 16.28247411 10.98639025
  16.37399298  8.25156800 13.74268808
  16.45703272 10.97657256 16.37228632
   5.52740897 13.72506617  8.27445524
   8.22299649 16.45986184 13.52487870
   8.33887763  8.16509232  5.40539656
   8.12496812 11.04351568  8.16320863
   7.94881433 13.63630445 10.87699242
  10.83381486 16.41698880 16.24178446
  10.94110182  8.04123804  8.12160427
  11.05348812 11.03702273 11.12523499
  11.00925378 13.68713358 13.60204480
  13.68688823 16.40549895 19.10883927
  13.63266114  8.13333023 10.92124578
  13.66875130 10.91480148 13.76349074
  13.57289049 13.60829425 16.45483952
  19.04377973 19.13584062 21.78051594
   8.32638305 10.89327330  2.71205091
  19.10052901 13.68051221 16.38980504
   8.14550820 16.31467907  8.25614177
  11.00344746 19.32999194 13.47393812
  10.98227304 10.99636769  5.50568212
  10.94474690 13.60125675  8.07374080
  11.01127099 16.67377558 10.98613846
  13.73687395 19.12158047 16.27323514
  13.68503730 10.74140065  8.11949049
  13.62127885 13.56246262 10.84592491
  13.58896158 16.38953210 13.77216988
  16.34221992 19.05662082 19.12143796
  16.43814951 10.87867129 11.01664694
  16.33455601 13.65299920 13.62735344
  16.36539042 16.36207585 16.37007365
   1.30316729  1.41505998  1.39850136
   1.27184357  4.24905925  4.04993339
   1.33684437  6.94508216  6.81287045
   1.41616589  9.60842278  9.52179476
   4.07906197  1.39438682  4.13291002
   4.08314603  4.10114040  6.84996883
   4.09227572  6.81114110  9.71952861
   4.34004410  9.55883300 12.37270438
   6.76769183  1.36851486  6.74359887
   6.86773406  4.18250276  9.50571428
   6.76203567  6.73471718 12.49717689
   6.77184419  9.59022455 15.09445845
   9.50136969  1.48250047  9.44419388
   9.42536031  4.03946746 12.28993140
   9.60612673  6.88951257 14.93149515
   9.55630785  9.36575051 17.89568127
   4.10315934  4.19459618  1.34485529
   3.95671492  6.83955241  4.19830124
   4.30882424  9.59848923  6.80608652
   4.29636845 12.24193640  9.55185941
   6.79209178  4.07396652  4.17386253
   6.85138073  6.99158020  6.80860064
   6.91667583  9.63262986  9.67247478
   6.70358721 12.35660480 12.18519930
   9.58399057  3.99998553  6.79491320
   9.52400238  6.91821713  9.48005781
   9.51505486  9.67604648 12.33697908
   9.55780677 12.40435762 15.03139658
  12.30045325  4.06155007  9.66982659
  12.22252913  6.63272874 12.15037799
  12.24517756  9.60610401 15.21786530
  12.35668730 12.22466280 17.84188350
   6.94024896  6.92304524  1.35238636
   6.87654790  9.56428455  4.02852744
   6.63359139 12.09448676  6.96368726
   6.86967193 15.17051565  9.64089614
   9.61711809  6.89378708  3.93330148
   9.72230531  9.47847808  6.73286296
   9.76181522 12.41742969  9.67810309
   9.63372072 15.04386038 12.45518883
  12.42512246  6.91872389  7.06038108
  12.23783735  9.50192392  9.38187532
  12.29972046 12.46125259 12.27790701
  12.29447386 15.13004530 15.14283805
  14.96720041  6.79819814  9.53406324
  15.05581067  9.42726335 12.36629096
  15.11363259 12.29663673 14.89148161
  15.04657658 14.78675561 17.77856740
   9.43254865  9.51868600  1.25576421
   9.62733358 12.31517645  4.11951701
   9.62016621 15.11695095  6.89003951
   9.55247260 17.75901879  9.62310006
  12.29345980  9.64350090  4.07462271
  12.37802247 12.39030669  6.79879492
  12.33371380 14.98756220  9.58135754
  12.43569349 17.75980618 12.29593951
  15.05420093  9.55112860  6.86696697
  14.99132838 12.30877747  9.55219733
  14.94898032 14.90141450 12.31862429
  15.05130592 17.68236737 15.14230869
  17.77234690  9.66250702  9.61666733
  17.86468921 12.30958470 12.34164114
  17.83683872 15.05435387 14.92111146
  17.75304272 17.91599481 17.70951043
 


--------------------------------------------------------------------------------------------------------


 k-point  1 :   0.0000 0.0000 0.0000  plane waves:   66299
 k-point  2 :   0.5000 0.0000 0.0000  plane waves:   66394
 k-point  3 :   0.0000 0.5000 0.0000  plane waves:   66394
 k-point  4 :   0.5000 0.5000 0.0000  plane waves:   66552
 k-point  5 :   0.0000 0.0000 0.5000  plane waves:   66394
 k-point  6 :   0.5000 0.0000 0.5000  plane waves:   66552
 k-point  7 :   0.0000 0.5000 0.5000  plane waves:   66552
 k-point  8 :   0.5000 0.5000 0.5000  plane waves:   66394

 maximum and minimum number of plane-waves per node :      4207     4110

 maximum number of plane-waves:     66552
 maximum index in each direction: 
   IXMAX=   28   IYMAX=   28   IZMAX=   28
   IXMIN=  -28   IYMIN=  -28   IZMIN=  -28


 parallel 3D FFT for wavefunctions:
    minimum data exchange during FFTs selected (reduces bandwidth)
 parallel 3D FFT for charge:
    minimum data exchange during FFTs selected (reduces bandwidth)


 total amount of memory used by VASP MPI-rank0   221701. kBytes
=======================================================================

   base      :      30000. kBytes
   nonl-proj :      10690. kBytes
   fftplans  :      66746. kBytes
   grid      :      26864. kBytes
   one-center:         24. kBytes
   wavefun   :      87377. kBytes
 
     INWAV:  cpu time    0.0000: real time    0.0002
 Broyden mixing: mesh for mixing (old mesh)
   NGX = 57   NGY = 57   NGZ = 57
  (NGX  =240   NGY  =240   NGZ  =240)
  gives a total of 185193 points

 initial charge density was supplied:
 charge density of overlapping atoms calculated
 number of electron     512.0000000 magnetization 
 keeping initial charge density in first step


--------------------------------------------------------------------------------------------------------


 Maximum index for augmentation-charges         5608 (set IRDMAX)


--------------------------------------------------------------------------------------------------------


 First call to EWALD:  gamma=   0.129
 Maximum number of real-space cells 3x 3x 3
 Maximum number of reciprocal cells 3x 3x 3

    FEWALD:  cpu time    0.0059: real time    0.0059


--------------------------------------- Iteration      1(   1)  ---------------------------------------


    POTLOK:  cpu time    0.4926: real time    0.4985
    SETDIJ:  cpu time    0.5071: real time    0.5071
     EDDAV:  cpu time   69.5008: real time   69.5244
       DOS:  cpu time    0.0029: real time    0.0029
    --------------------------------------------
      LOOP:  cpu time   70.5034: real time   70.5329

 eigenvalue-minimisations  :  5152
 total energy-change (2. order) : 0.1386577E+04  (-0.1908435E+05)
 number of electron     512.0000000 magnetization 
 augmentation part      512.0000000 magnetization 

 Free energy of the ion-electron system (eV)
  ---------------------------------------------------
  alpha Z        PSCENC =       210.77028614
  Ewald energy   TEWEN  =    -14468.51731858
  -Hartree energ DENC   =      -754.73114227
  -exchange      EXHF   =         0.00000000
  -V(xc)+E(xc)   XCENC  =     -1195.19427125
  PAW double counting   =      4221.13331941    -1969.18571412
  entropy T*S    EENTRO =        -0.00215274
  eigenvalues    EBANDS =      2149.82271294
  atomic energy  EATOM  =     13192.48085998
  Solvation  Ediel_sol  =         0.00000000
  ---------------------------------------------------
  free energy    TOTEN  =      1386.57657952 eV

  energy without entropy =     1386.57873226  energy(sigma->0) =     1386.57765589


--------------------------------------------------------------------------------------------------------




--------------------------------------- Iteration      1(   2)  ---------------------------------------


     EDDAV:  cpu time   79.1532: real time   79.1735
       DOS:  cpu time    0.0031: real time    0.0031
    --------------------------------------------
      LOOP:  cpu time   79.1563: real time   79.1766

 eigenvalue-minimisations  :  6128
 total energy-change (2. order) :-0.1922432E+04  (-0.1829610E+04)
 number of electron     512.0000000 magnetization 
 augmentation part      512.0000000 magnetization 

 Free energy of the ion-electron system (eV)
  ---------------------------------------------------
  alpha Z        PSCENC =       210.77028614
  Ewald energy   TEWEN  =    -14468.51731858
  -Hartree energ DENC   =      -754.73114227
  -exchange      EXHF   =         0.00000000
  -V(xc)+E(xc)   XCENC  =     -1195.19427125
  PAW double counting   =      4221.13331941    -1969.18571412
  entropy T*S    EENTRO =        -0.00007177
  eigenvalues    EBANDS =       227.38832552
  atomic energy  EATOM  =     13192.48085998
  Solvation  Ediel_sol  =         0.00000000
  ---------------------------------------------------
  free energy    TOTEN  =      -535.85572693 eV

  energy without entropy =     -535.85565515  energy(sigma->0) =     -535.85569104


--------------------------------------------------------------------------------------------------------




--------------------------------------- Iteration      1(   3)  ---------------------------------------


     EDDAV:  cpu time   81.0020: real time   81.0241
       DOS:  cpu time    0.0010: real time    0.0010
    --------------------------------------------
      LOOP:  cpu time   81.0030: real time   81.0250

 eigenvalue-minimisations  :  6304
 total energy-change (2. order) :-0.1491761E+03  (-0.1461486E+03)
 number of electron     512.0000000 magnetization 
 augmentation part      512.0000000 magnetization 

 Free energy of the ion-electron system (eV)
  ---------------------------------------------------
  alpha Z        PSCENC =       210.77028614
  Ewald energy   TEWEN  =    -14468.51731858
  -Hartree energ DENC   =      -754.73114227
  -exchange      EXHF   =         0.00000000
  -V(xc)+E(xc)   XCENC  =     -1195.19427125
  PAW double counting   =      4221.13331941    -1969.18571412
  entropy T*S    EENTRO =        -0.00000000
  eigenvalues    EBANDS =        78.21213332
  atomic energy  EATOM  =     13192.48085998
  Solvation  Ediel_sol  =         0.00000000
  ---------------------------------------------------
  free energy    TOTEN  =      -685.03184735 eV

  energy without entropy =     -685.03184735  energy(sigma->0) =     -685.03184735


--------------------------------------------------------------------------------------------------------




--------------------------------------- Iteration      1(   4)  ---------------------------------------


     EDDAV:  cpu time   79.6605: real time   79.6763
       DOS:  cpu time    0.0010: real time    0.0010
    --------------------------------------------
      LOOP:  cpu time   79.6615: real time   79.6773

 eigenvalue-minimisations  :  6176
 total energy-change (2. order) :-0.4198214E+01  (-0.4162849E+01)
 number of electron     512.0000000 magnetization 
 augmentation part      512.0000000 magnetization 

 Free energy of the ion-electron system (eV)
  ---------------------------------------------------
  alpha Z        PSCENC =       210.77028614
  Ewald energy   TEWEN  =    -14468.51731858
  -Hartree energ DENC   =      -754.73114227
  -exchange      EXHF   =         0.00000000
  -V(xc)+E(xc)   XCENC  =     -1195.19427125
  PAW double counting   =      4221.13331941    -1969.18571412
  entropy T*S    EENTRO =        -0.00000000
  eigenvalues    EBANDS =        74.01391924
  atomic energy  EATOM  =     13192.48085998
  Solvation  Ediel_sol  =         0.00000000
  ---------------------------------------------------
  free energy    TOTEN  =      -689.23006144 eV

  energy without entropy =     -689.23006144  energy(sigma->0) =     -689.23006144


--------------------------------------------------------------------------------------------------------




--------------------------------------- Iteration      1(   5)  ---------------------------------------


     EDDAV:  cpu time   81.2694: real time   81.2928
       DOS:  cpu time    0.0011: real time    0.0011
    CHARGE:  cpu time    3.1494: real time    3.1499
    MIXING:  cpu time    0.0331: real time    0.0331
    --------------------------------------------
      LOOP:  cpu time   84.4530: real time   84.4770

 eigenvalue-minimisations  :  6344
 total energy-change (2. order) :-0.1467550E+00  (-0.1463420E+00)
 number of electron     511.9999998 magnetization 
 augmentation part      -30.2014517 magnetization 

 Broyden mixing:
  rms(total) = 0.24042E+01    rms(broyden)= 0.24042E+01
  rms(prec ) = 0.29135E+01
  weight for this iteration     100.00

 Free energy of the ion-electron system (eV)
  ---------------------------------------------------
  alpha Z        PSCENC =       210.77028614
  Ewald energy   TEWEN  =    -14468.51731858
  -Hartree energ DENC   =      -754.73114227
  -exchange      EXHF   =         0.00000000
  -V(xc)+E(xc)   XCENC  =     -1195.19427125
  PAW double counting   =      4221.13331941    -1969.18571412
  entropy T*S    EENTRO =        -0.00000000
  eigenvalues    EBANDS =        73.86716426
  atomic energy  EATOM  =     13192.48085998
  Solvation  Ediel_sol  =         0.00000000
  ---------------------------------------------------
  free energy    TOTEN  =      -689.37681641 eV

  energy without entropy =     -689.37681641  energy(sigma->0) =     -689.37681641


--------------------------------------------------------------------------------------------------------




--------------------------------------- Iteration      1(   6)  ---------------------------------------


    POTLOK:  cpu time    0.4912: real time    0.4919
    SETDIJ:  cpu time    0.5101: real time    0.5101
     EDDAV:  cpu time   76.4947: real time   76.5154
       DOS:  cpu time    0.0017: real time    0.0017
    CHARGE:  cpu time    3.1476: real time    3.1507
    MIXING:  cpu time    0.0300: real time    0.0300
    --------------------------------------------
      LOOP:  cpu time   80.6753: real time   80.6998

 eigenvalue-minimisations  :  5856
 total energy-change (2. order) : 0.8596656E+01  (-0.6079346E+00)
 number of electron     511.9999998 magnetization 
 augmentation part      -29.8577025 magnetization 

 Broyden mixing:
  rms(total) = 0.14272E+01    rms(broyden)= 0.14272E+01
  rms(prec ) = 0.17196E+01
  weight for this iteration     100.00

 eigenvalues of (default mixing * dielectric matrix)
  average eigenvalue GAMMA=   2.4265
  2.4265

 Free energy of the ion-electron system (eV)
  ---------------------------------------------------
  alpha Z        PSCENC =       210.77028614
  Ewald energy   TEWEN  =    -14468.51731858
  -Hartree energ DENC   =      -850.43729650
  -exchange      EXHF   =         0.00000000
  -V(xc)+E(xc)   XCENC  =     -1180.52287339
  PAW double counting   =      4467.70293322    -2222.58200578
  entropy T*S    EENTRO =        -0.00000000
  eigenvalues    EBANDS =       170.32525463
  atomic energy  EATOM  =     13192.48085998
  Solvation  Ediel_sol  =         0.00000000
  ---------------------------------------------------
  free energy    TOTEN  =      -680.78016027 eV

  energy without entropy =     -680.78016027  energy(sigma->0) =     -680.78016027


--------------------------------------------------------------------------------------------------------




--------------------------------------- Iteration      1(   7)  ---------------------------------------


    POTLOK:  cpu time    0.4919: real time    0.4926
    SETDIJ:  cpu time    0.5082: real time    0.5082
     EDDAV:  cpu time   76.2307: real time   76.2518
       DOS:  cpu time    0.0016: real time    0.0016
    CHARGE:  cpu time    3.1364: real time    3.1369
    MIXING:  cpu time    0.0304: real time    0.0304
    --------------------------------------------
      LOOP:  cpu time   80.3992: real time   80.4215

 eigenvalue-minimisations  :  5816
 total energy-change (2. order) : 0.3551897E+01  (-0.1154736E+01)
 number of electron     511.9999998 magnetization 
 augmentation part      -29.4054313 magnetization 

 Broyden mixing:
  rms(total) = 0.15919E+00    rms(broyden)= 0.15919E+00
  rms(prec ) = 0.20667E+00
  weight for this iteration     100.00

 eigenvalues of (default mixing * dielectric matrix)
  average eigenvalue GAMMA=   2.1008
  2.1008  2.1008

 Free energy of the ion-electron system (eV)
  ---------------------------------------------------
  alpha Z        PSCENC =       210.77028614
  Ewald energy   TEWEN  =    -14468.51731858
  -Hartree energ DENC   =     -1000.95840313
  -exchange      EXHF   =         0.00000000
  -V(xc)+E(xc)   XCENC  =     -1156.64792809
  PAW double counting   =      4789.33118248    -2552.79050902
  entropy T*S    EENTRO =        -0.00000000
  eigenvalues    EBANDS =       309.10356696
  atomic energy  EATOM  =     13192.48085998
  Solvation  Ediel_sol  =         0.00000000
  ---------------------------------------------------
  free energy    TOTEN  =      -677.22826325 eV

  energy without entropy =     -677.22826325  energy(sigma->0) =     -677.22826325


--------------------------------------------------------------------------------------------------------




--------------------------------------- Iteration      1(   8)  ---------------------------------------


    POTLOK:  cpu time    0.4901: real time    0.4921
    SETDIJ:  cpu time    0.5089: real time    0.5090
     EDDAV:  cpu time   76.0379: real time   76.0544
       DOS:  cpu time    0.0018: real time    0.0018
    CHARGE:  cpu time    3.1344: real time    3.1354
    MIXING:  cpu time    0.0297: real time    0.0297
    --------------------------------------------
      LOOP:  cpu time   80.2028: real time   80.2224

 eigenvalue-minimisations  :  5816
 total energy-change (2. order) :-0.5299039E-01  (-0.1120870E+00)
 number of electron     511.9999998 magnetization 
 augmentation part      -29.4781338 magnetization 

 Broyden mixing:
  rms(total) = 0.63238E-01    rms(broyden)= 0.63238E-01
  rms(prec ) = 0.78256E-01
  weight for this iteration     100.00

 eigenvalues of (default mixing * dielectric matrix)
  average eigenvalue GAMMA=   2.0009
  2.6710  1.6659  1.6659

 Free energy of the ion-electron system (eV)
  ---------------------------------------------------
  alpha Z        PSCENC =       210.77028614
  Ewald energy   TEWEN  =    -14468.51731858
  -Hartree energ DENC   =      -994.41220993
  -exchange      EXHF   =         0.00000000
  -V(xc)+E(xc)   XCENC  =     -1156.74332825
  PAW double counting   =      4742.49403177    -2504.49339595
  entropy T*S    EENTRO =        -0.00000000
  eigenvalues    EBANDS =       301.13982117
  atomic energy  EATOM  =     13192.48085998
  Solvation  Ediel_sol  =         0.00000000
  ---------------------------------------------------
  free energy    TOTEN  =      -677.28125364 eV

  energy without entropy =     -677.28125364  energy(sigma->0) =     -677.28125364


--------------------------------------------------------------------------------------------------------




--------------------------------------- Iteration      1(   9)  ---------------------------------------


    POTLOK:  cpu time    0.4898: real time    0.4913
    SETDIJ:  cpu time    0.5114: real time    0.5114
     EDDAV:  cpu time   79.1266: real time   79.1449
       DOS:  cpu time    0.0017: real time    0.0017
    CHARGE:  cpu time    3.1275: real time    3.1277
    MIXING:  cpu time    0.0337: real time    0.0337
    --------------------------------------------
      LOOP:  cpu time   83.2906: real time   83.3107

 eigenvalue-minimisations  :  6128
 total energy-change (2. order) :-0.2256046E-01  (-0.1036099E-01)
 number of electron     511.9999998 magnetization 
 augmentation part      -29.4827433 magnetization 

 Broyden mixing:
  rms(total) = 0.28485E-01    rms(broyden)= 0.28485E-01
  rms(prec ) = 0.33079E-01
  weight for this iteration     100.00

 eigenvalues of (default mixing * dielectric matrix)
  average eigenvalue GAMMA=   1.7922
  2.5795  0.9178  1.8357  1.8357

 Free energy of the ion-electron system (eV)
  ---------------------------------------------------
  alpha Z        PSCENC =       210.77028614
  Ewald energy   TEWEN  =    -14468.51731858
  -Hartree energ DENC   =     -1001.14805604
  -exchange      EXHF   =         0.00000000
  -V(xc)+E(xc)   XCENC  =     -1155.56067294
  PAW double counting   =      4745.71516890    -2507.80027368
  entropy T*S    EENTRO =        -0.00000000
  eigenvalues    EBANDS =       306.75619212
  atomic energy  EATOM  =     13192.48085998
  Solvation  Ediel_sol  =         0.00000000
  ---------------------------------------------------
  free energy    TOTEN  =      -677.30381410 eV

  energy without entropy =     -677.30381410  energy(sigma->0) =     -677.30381410


--------------------------------------------------------------------------------------------------------




--------------------------------------- Iteration      1(  10)  ---------------------------------------


    POTLOK:  cpu time    0.4904: real time    0.4915
    SETDIJ:  cpu time    0.5076: real time    0.5076
     EDDAV:  cpu time   77.7954: real time   77.8144
       DOS:  cpu time    0.0012: real time    0.0012
    CHARGE:  cpu time    3.1445: real time    3.1457
    MIXING:  cpu time    0.0323: real time    0.0323
    --------------------------------------------
      LOOP:  cpu time   81.9714: real time   81.9927

 eigenvalue-minimisations  :  5992
 total energy-change (2. order) :-0.2549240E-02  (-0.9017830E-03)
 number of electron     511.9999998 magnetization 
 augmentation part      -29.4923570 magnetization 

 Broyden mixing:
  rms(total) = 0.10991E-01    rms(broyden)= 0.10991E-01
  rms(prec ) = 0.13267E-01
  weight for this iteration     100.00

 eigenvalues of (default mixing * dielectric matrix)
  average eigenvalue GAMMA=   1.8547
  2.6845  2.6845  1.5010  1.5010  0.9023

 Free energy of the ion-electron system (eV)
  ---------------------------------------------------
  alpha Z        PSCENC =       210.77028614
  Ewald energy   TEWEN  =    -14468.51731858
  -Hartree energ DENC   =     -1000.02410797
  -exchange      EXHF   =         0.00000000
  -V(xc)+E(xc)   XCENC  =     -1155.72846260
  PAW double counting   =      4738.61183881    -2500.52027317
  entropy T*S    EENTRO =        -0.00000000
  eigenvalues    EBANDS =       305.62081403
  atomic energy  EATOM  =     13192.48085998
  Solvation  Ediel_sol  =         0.00000000
  ---------------------------------------------------
  free energy    TOTEN  =      -677.30636333 eV

  energy without entropy =     -677.30636333  energy(sigma->0) =     -677.30636333


--------------------------------------------------------------------------------------------------------




--------------------------------------- Iteration      1(  11)  ---------------------------------------


    POTLOK:  cpu time    0.4919: real time    0.4929
    SETDIJ:  cpu time    0.5073: real time    0.5073
     EDDAV:  cpu time   75.8235: real time   75.8465
       DOS:  cpu time    0.0010: real time    0.0010
    CHARGE:  cpu time    3.1158: real time    3.1168
    MIXING:  cpu time    0.0383: real time    0.0383
    --------------------------------------------
      LOOP:  cpu time   79.9778: real time   80.0028

 eigenvalue-minimisations  :  5792
 total energy-change (2. order) :-0.1472602E-02  (-0.2272257E-03)
 number of electron     511.9999998 magnetization 
 augmentation part      -29.4947416 magnetization 

 Broyden mixing:
  rms(total) = 0.39365E-02    rms(broyden)= 0.39365E-02
  rms(prec ) = 0.55180E-02
  weight for this iteration     100.00

 eigenvalues of (default mixing * dielectric matrix)
  average eigenvalue GAMMA=   1.7749
  2.8387  2.0571  2.0571  1.5823  1.2447  0.8693

 Free energy of the ion-electron system (eV)
  ---------------------------------------------------
  alpha Z        PSCENC =       210.77028614
  Ewald energy   TEWEN  =    -14468.51731858
  -Hartree energ DENC   =      -999.96851810
  -exchange      EXHF   =         0.00000000
  -V(xc)+E(xc)   XCENC  =     -1155.73514184
  PAW double counting   =      4734.48493950    -2496.29885571
  entropy T*S    EENTRO =        -0.00000000
  eigenvalues    EBANDS =       305.47591267
  atomic energy  EATOM  =     13192.48085998
  Solvation  Ediel_sol  =         0.00000000
  ---------------------------------------------------
  free energy    TOTEN  =      -677.30783594 eV

  energy without entropy =     -677.30783594  energy(sigma->0) =     -677.30783594


--------------------------------------------------------------------------------------------------------




--------------------------------------- Iteration      1(  12)  ---------------------------------------


    POTLOK:  cpu time    0.4887: real time    0.4919
    SETDIJ:  cpu time    0.5068: real time    0.5068
     EDDAV:  cpu time   78.9285: real time   78.9465
       DOS:  cpu time    0.0010: real time    0.0010
    CHARGE:  cpu time    3.1105: real time    3.1114
    MIXING:  cpu time    0.0283: real time    0.0283
    --------------------------------------------
      LOOP:  cpu time   83.0638: real time   83.0859

 eigenvalue-minimisations  :  6112
 total energy-change (2. order) :-0.5353160E-04  (-0.4418034E-04)
 number of electron     511.9999998 magnetization 
 augmentation part      -29.4928091 magnetization 

 Broyden mixing:
  rms(total) = 0.17951E-02    rms(broyden)= 0.17951E-02
  rms(prec ) = 0.21352E-02
  weight for this iteration     100.00

 eigenvalues of (default mixing * dielectric matrix)
  average eigenvalue GAMMA=   1.8332
  3.1825  2.6879  1.7798  1.7798  0.8932  1.2547  1.2547

 Free energy of the ion-electron system (eV)
  ---------------------------------------------------
  alpha Z        PSCENC =       210.77028614
  Ewald energy   TEWEN  =    -14468.51731858
  -Hartree energ DENC   =     -1000.59573797
  -exchange      EXHF   =         0.00000000
  -V(xc)+E(xc)   XCENC  =     -1155.66450637
  PAW double counting   =      4735.79325330    -2497.65123482
  entropy T*S    EENTRO =        -0.00000000
  eigenvalues    EBANDS =       306.07650885
  atomic energy  EATOM  =     13192.48085998
  Solvation  Ediel_sol  =         0.00000000
  ---------------------------------------------------
  free energy    TOTEN  =      -677.30788947 eV

  energy without entropy =     -677.30788947  energy(sigma->0) =     -677.30788947


--------------------------------------------------------------------------------------------------------




--------------------------------------- Iteration      1(  13)  ---------------------------------------


    POTLOK:  cpu time    0.4883: real time    0.4896
    SETDIJ:  cpu time    0.5095: real time    0.5095
     EDDAV:  cpu time   75.4097: real time   75.4242
       DOS:  cpu time    0.0018: real time    0.0018
    CHARGE:  cpu time    3.1310: real time    3.1319
    MIXING:  cpu time    0.0295: real time    0.0295
    --------------------------------------------
      LOOP:  cpu time   79.5698: real time   79.5866

 eigenvalue-minimisations  :  5760
 total energy-change (2. order) :-0.3045456E-04  (-0.1187526E-04)
 number of electron     511.9999998 magnetization 
 augmentation part      -29.4927311 magnetization 

 Broyden mixing:
  rms(total) = 0.56777E-03    rms(broyden)= 0.56774E-03
  rms(prec ) = 0.73403E-03
  weight for this iteration     100.00

 eigenvalues of (default mixing * dielectric matrix)
  average eigenvalue GAMMA=   1.7733
  3.1423  2.5482  1.9275  1.9275  1.3750  1.3750  0.9456  0.9456

 Free energy of the ion-electron system (eV)
  ---------------------------------------------------
  alpha Z        PSCENC =       210.77028614
  Ewald energy   TEWEN  =    -14468.51731858
  -Hartree energ DENC   =     -1000.59754655
  -exchange      EXHF   =         0.00000000
  -V(xc)+E(xc)   XCENC  =     -1155.67475969
  PAW double counting   =      4735.22506775    -2497.07204239
  entropy T*S    EENTRO =        -0.00000000
  eigenvalues    EBANDS =       306.07753340
  atomic energy  EATOM  =     13192.48085998
  Solvation  Ediel_sol  =         0.00000000
  ---------------------------------------------------
  free energy    TOTEN  =      -677.30791992 eV

  energy without entropy =     -677.30791992  energy(sigma->0) =     -677.30791992


--------------------------------------------------------------------------------------------------------




--------------------------------------- Iteration      1(  14)  ---------------------------------------


    POTLOK:  cpu time    0.4923: real time    0.4936
    SETDIJ:  cpu time    0.5097: real time    0.5097
     EDDAV:  cpu time   79.0586: real time   79.0755
       DOS:  cpu time    0.0010: real time    0.0010
    CHARGE:  cpu time    3.1175: real time    3.1182
    MIXING:  cpu time    0.0369: real time    0.0369
    --------------------------------------------
      LOOP:  cpu time   83.2160: real time   83.2350

 eigenvalue-minimisations  :  6120
 total energy-change (2. order) :-0.3282017E-05  (-0.7741125E-06)
 number of electron     511.9999998 magnetization 
 augmentation part      -29.4926573 magnetization 

 Broyden mixing:
  rms(total) = 0.19647E-03    rms(broyden)= 0.19641E-03
  rms(prec ) = 0.26009E-03
  weight for this iteration     100.00

 eigenvalues of (default mixing * dielectric matrix)
  average eigenvalue GAMMA=   1.7785
  3.2235  2.6177  2.2581  1.6854  1.6854  1.3015  1.3015  1.0075  0.9256

 Free energy of the ion-electron system (eV)
  ---------------------------------------------------
  alpha Z        PSCENC =       210.77028614
  Ewald energy   TEWEN  =    -14468.51731858
  -Hartree energ DENC   =     -1000.63598197
  -exchange      EXHF   =         0.00000000
  -V(xc)+E(xc)   XCENC  =     -1155.66863251
  PAW double counting   =      4735.36282352    -2497.21239449
  entropy T*S    EENTRO =        -0.00000000
  eigenvalues    EBANDS =       306.11243469
  atomic energy  EATOM  =     13192.48085998
  Solvation  Ediel_sol  =         0.00000000
  ---------------------------------------------------
  free energy    TOTEN  =      -677.30792320 eV

  energy without entropy =     -677.30792320  energy(sigma->0) =     -677.30792320


--------------------------------------------------------------------------------------------------------




--------------------------------------- Iteration      1(  15)  ---------------------------------------


    POTLOK:  cpu time    0.4881: real time    0.4917
    SETDIJ:  cpu time    0.5148: real time    0.5148
     EDDAV:  cpu time   78.4025: real time   78.4258
       DOS:  cpu time    0.0013: real time    0.0013
    CHARGE:  cpu time    3.1132: real time    3.1137
    MIXING:  cpu time    0.0336: real time    0.0336
    --------------------------------------------
      LOOP:  cpu time   82.5536: real time   82.5809

 eigenvalue-minimisations  :  6064
 total energy-change (2. order) :-0.4031579E-05  (-0.1960532E-06)
 number of electron     511.9999998 magnetization 
 augmentation part      -29.4925004 magnetization 

 Broyden mixing:
  rms(total) = 0.68213E-04    rms(broyden)= 0.68037E-04
  rms(prec ) = 0.88733E-04
  weight for this iteration     100.00

 eigenvalues of (default mixing * dielectric matrix)
  average eigenvalue GAMMA=   1.7217
  3.2520  2.5978  2.1553  1.7206  1.7206  1.4280  1.4280  1.0451  0.9349  0.9349

 Free energy of the ion-electron system (eV)
  ---------------------------------------------------
  alpha Z        PSCENC =       210.77028614
  Ewald energy   TEWEN  =    -14468.51731858
  -Hartree energ DENC   =     -1000.66396808
  -exchange      EXHF   =         0.00000000
  -V(xc)+E(xc)   XCENC  =     -1155.66698171
  PAW double counting   =      4735.44166602    -2497.29368338
  entropy T*S    EENTRO =        -0.00000000
  eigenvalues    EBANDS =       306.14121237
  atomic energy  EATOM  =     13192.48085998
  Solvation  Ediel_sol  =         0.00000000
  ---------------------------------------------------
  free energy    TOTEN  =      -677.30792724 eV

  energy without entropy =     -677.30792724  energy(sigma->0) =     -677.30792724


--------------------------------------------------------------------------------------------------------




--------------------------------------- Iteration      1(  16)  ---------------------------------------


    POTLOK:  cpu time    0.4909: real time    0.4931
    SETDIJ:  cpu time    0.5053: real time    0.5053
     EDDAV:  cpu time   78.6710: real time   78.7008
       DOS:  cpu time    0.0012: real time    0.0012
    CHARGE:  cpu time    3.1162: real time    3.1166
    MIXING:  cpu time    0.0347: real time    0.0347
    --------------------------------------------
      LOOP:  cpu time   82.8193: real time   82.8516

 eigenvalue-minimisations  :  6096
 total energy-change (2. order) : 0.5830334E-06  (-0.1692104E-07)
 number of electron     511.9999998 magnetization 
 augmentation part      -29.4925133 magnetization 

 Broyden mixing:
  rms(total) = 0.30229E-04    rms(broyden)= 0.29829E-04
  rms(prec ) = 0.38713E-04
  weight for this iteration     100.00

 eigenvalues of (default mixing * dielectric matrix)
  average eigenvalue GAMMA=   1.7262
  3.2892  2.6379  2.1186  2.1186  1.4838  1.4838  1.4385  1.4385  0.9084  1.0354
  1.0354

 Free energy of the ion-electron system (eV)
  ---------------------------------------------------
  alpha Z        PSCENC =       210.77028614
  Ewald energy   TEWEN  =    -14468.51731858
  -Hartree energ DENC   =     -1000.66158937
  -exchange      EXHF   =         0.00000000
  -V(xc)+E(xc)   XCENC  =     -1155.66712274
  PAW double counting   =      4735.43241044    -2497.28397667
  entropy T*S    EENTRO =        -0.00000000
  eigenvalues    EBANDS =       306.13852413
  atomic energy  EATOM  =     13192.48085998
  Solvation  Ediel_sol  =         0.00000000
  ---------------------------------------------------
  free energy    TOTEN  =      -677.30792665 eV

  energy without entropy =     -677.30792665  energy(sigma->0) =     -677.30792665


--------------------------------------------------------------------------------------------------------




--------------------------------------- Iteration      1(  17)  ---------------------------------------


    POTLOK:  cpu time    0.4882: real time    0.4915
    SETDIJ:  cpu time    0.5083: real time    0.5083
     EDDAV:  cpu time   56.6503: real time   56.6633
       DOS:  cpu time    0.0011: real time    0.0011
    CHARGE:  cpu time    3.0870: real time    3.0878
    MIXING:  cpu time    0.0165: real time    0.0165
    --------------------------------------------
      LOOP:  cpu time   60.7513: real time   60.7685

 eigenvalue-minimisations  :  3856
 total energy-change (2. order) : 0.1304415E-06  (-0.2935352E-08)
 number of electron     511.9999998 magnetization 
 augmentation part      -29.4925177 magnetization 

 Broyden mixing:
  rms(total) = 0.13031E-04    rms(broyden)= 0.12076E-04
  rms(prec ) = 0.15083E-04
  weight for this iteration     100.00

 eigenvalues of (default mixing * dielectric matrix)
  average eigenvalue GAMMA=   1.7131
  3.3060  2.6440  2.3251  1.7384  1.7384  1.8098  1.4574  1.4574  0.9166  0.9769
  1.0934  1.0934

 Free energy of the ion-electron system (eV)
  ---------------------------------------------------
  alpha Z        PSCENC =       210.77028614
  Ewald energy   TEWEN  =    -14468.51731858
  -Hartree energ DENC   =     -1000.66063104
  -exchange      EXHF   =         0.00000000
  -V(xc)+E(xc)   XCENC  =     -1155.66717835
  PAW double counting   =      4735.43296451    -2497.28438622
  entropy T*S    EENTRO =        -0.00000000
  eigenvalues    EBANDS =       306.13747704
  atomic energy  EATOM  =     13192.48085998
  Solvation  Ediel_sol  =         0.00000000
  ---------------------------------------------------
  free energy    TOTEN  =      -677.30792652 eV

  energy without entropy =     -677.30792652  energy(sigma->0) =     -677.30792652


--------------------------------------------------------------------------------------------------------




--------------------------------------- Iteration      1(  18)  ---------------------------------------


    POTLOK:  cpu time    0.4913: real time    0.4928
    SETDIJ:  cpu time    0.5053: real time    0.5053
     EDDAV:  cpu time   51.3531: real time   51.3656
       DOS:  cpu time    0.0011: real time    0.0011
    CHARGE:  cpu time    3.1658: real time    3.1670
    MIXING:  cpu time    0.0452: real time    0.0452
    --------------------------------------------
      LOOP:  cpu time   55.5618: real time   55.5770

 eigenvalue-minimisations  :  3320
 total energy-change (2. order) :-0.1324879E-06  (-0.7912059E-09)
 number of electron     511.9999998 magnetization 
 augmentation part      -29.4925125 magnetization 

 Broyden mixing:
  rms(total) = 0.68390E-05    rms(broyden)= 0.47742E-05
  rms(prec ) = 0.66437E-05
  weight for this iteration     100.00
  WARNING: grid for Broyden might be to small

 eigenvalues of (default mixing * dielectric matrix)
  average eigenvalue GAMMA=   1.7441
  3.2240  2.6554  2.3992  2.3992  1.7900  1.7900  1.4749  1.4749  0.9168  0.9865
  1.0476  1.2572  1.2572

 Free energy of the ion-electron system (eV)
  ---------------------------------------------------
  alpha Z        PSCENC =       210.77028614
  Ewald energy   TEWEN  =    -14468.51731858
  -Hartree energ DENC   =     -1000.66160207
  -exchange      EXHF   =         0.00000000
  -V(xc)+E(xc)   XCENC  =     -1155.66706623
  PAW double counting   =      4735.43726221    -2497.28876650
  entropy T*S    EENTRO =        -0.00000000
  eigenvalues    EBANDS =       306.13841838
  atomic energy  EATOM  =     13192.48085998
  Solvation  Ediel_sol  =         0.00000000
  ---------------------------------------------------
  free energy    TOTEN  =      -677.30792666 eV

  energy without entropy =     -677.30792666  energy(sigma->0) =     -677.30792666


--------------------------------------------------------------------------------------------------------




--------------------------------------- Iteration      1(  19)  ---------------------------------------


    POTLOK:  cpu time    0.4875: real time    0.4909
    SETDIJ:  cpu time    0.5048: real time    0.5050
     EDDAV:  cpu time   50.4317: real time   50.4402
       DOS:  cpu time    0.0014: real time    0.0014
    CHARGE:  cpu time    3.0792: real time    3.0795
    MIXING:  cpu time    0.0309: real time    0.0309
    --------------------------------------------
      LOOP:  cpu time   54.5355: real time   54.5479

 eigenvalue-minimisations  :  3216
 total energy-change (2. order) : 0.4008507E-07  (-0.1616237E-09)
 number of electron     511.9999998 magnetization 
 augmentation part      -29.4925146 magnetization 

 Broyden mixing:
  rms(total) = 0.55130E-05    rms(broyden)= 0.25328E-05
  rms(prec ) = 0.34944E-05
  weight for this iteration     100.00
  WARNING: grid for Broyden might be to small

 eigenvalues of (default mixing * dielectric matrix)
  average eigenvalue GAMMA=   1.6994
  3.3118  2.7066  2.3707  2.3707  1.7880  1.7880  1.5528  1.5528  1.2769  1.2769
  1.0047  1.0047  0.8935  0.8935

 Free energy of the ion-electron system (eV)
  ---------------------------------------------------
  alpha Z        PSCENC =       210.77028614
  Ewald energy   TEWEN  =    -14468.51731858
  -Hartree energ DENC   =     -1000.66117115
  -exchange      EXHF   =         0.00000000
  -V(xc)+E(xc)   XCENC  =     -1155.66710939
  PAW double counting   =      4735.43666839    -2497.28814271
  entropy T*S    EENTRO =        -0.00000000
  eigenvalues    EBANDS =       306.13800070
  atomic energy  EATOM  =     13192.48085998
  Solvation  Ediel_sol  =         0.00000000
  ---------------------------------------------------
  free energy    TOTEN  =      -677.30792661 eV

  energy without entropy =     -677.30792661  energy(sigma->0) =     -677.30792661


--------------------------------------------------------------------------------------------------------




--------------------------------------- Iteration      1(  20)  ---------------------------------------


    POTLOK:  cpu time    0.4885: real time    0.4922
    SETDIJ:  cpu time    0.5052: real time    0.5053
     EDDAV:  cpu time   50.0202: real time   50.0296
       DOS:  cpu time    0.0010: real time    0.0010
    --------------------------------------------
      LOOP:  cpu time   51.0149: real time   51.0280

 eigenvalue-minimisations  :  3184
 total energy-change (2. order) :-0.2130037E-08  (-0.5002305E-10)
 number of electron     511.9999998 magnetization 
 augmentation part      -29.4925146 magnetization 

 Free energy of the ion-electron system (eV)
  ---------------------------------------------------
  alpha Z        PSCENC =       210.77028614
  Ewald energy   TEWEN  =    -14468.51731858
  -Hartree energ DENC   =     -1000.66137060
  -exchange      EXHF   =         0.00000000
  -V(xc)+E(xc)   XCENC  =     -1155.66708486
  PAW double counting   =      4735.43684538    -2497.28832170
  entropy T*S    EENTRO =        -0.00000000
  eigenvalues    EBANDS =       306.13817762
  atomic energy  EATOM  =     13192.48085998
  Solvation  Ediel_sol  =         0.00000000
  ---------------------------------------------------
  free energy    TOTEN  =      -677.30792662 eV

  energy without entropy =     -677.30792662  energy(sigma->0) =     -677.30792662


--------------------------------------------------------------------------------------------------------




 average (electrostatic) potential at core
  the test charge radii are     0.9892
  (the norm of the test charge is              1.0000)
       1 -83.6268       2 -83.5883       3 -83.6813       4 -83.5398       5 -83.4907
       6 -83.5063       7 -83.3766       8 -83.5499       9 -83.4417      10 -83.6273
      11 -83.5859      12 -83.6295      13 -83.6068      14 -83.6129      15 -83.4732
      16 -83.5864      17 -83.4971      18 -83.6039      19 -83.4340      20 -83.5327
      21 -83.5304      22 -83.5648      23 -83.4711      24 -83.4701      25 -83.5337
      26 -83.5313      27 -83.5551      28 -83.5429      29 -83.5469      30 -83.4507
      31 -83.5314      32 -83.4415      33 -83.5285      34 -83.5724      35 -83.4811
      36 -83.5309      37 -83.3237      38 -83.4635      39 -83.4430      40 -83.4491
      41 -83.4383      42 -83.4831      43 -83.5549      44 -83.5324      45 -83.4618
      46 -83.4861      47 -83.5544      48 -83.5710      49 -83.4796      50 -83.5342
      51 -83.4805      52 -83.6837      53 -83.4745      54 -83.4907      55 -83.4614
      56 -83.4796      57 -83.5877      58 -83.5242      59 -83.4659      60 -83.5971
      61 -83.4900      62 -83.4182      63 -83.4569      64 -83.4989      65 -83.5877
      66 -83.6318      67 -83.5024      68 -83.6630      69 -83.4711      70 -83.4049
      71 -83.4782      72 -83.5696      73 -83.5219      74 -83.6249      75 -83.6231
      76 -83.6064      77 -83.4918      78 -83.5738      79 -83.5398      80 -83.5849
      81 -83.5160      82 -83.5928      83 -83.4874      84 -83.5643      85 -83.5628
      86 -83.5321      87 -83.3959      88 -83.4389      89 -83.5519      90 -83.5502
      91 -83.4939      92 -83.5964      93 -83.4569      94 -83.5370      95 -83.4538
      96 -83.5276      97 -83.5650      98 -83.5412      99 -83.4731     100 -83.5540
     101 -83.3017     102 -83.5321     103 -83.5376     104 -83.3960     105 -83.5215
     106 -83.5778     107 -83.5166     108 -83.4750     109 -83.3937     110 -83.4861
     111 -83.5240     112 -83.5775     113 -83.5135     114 -83.4904     115 -83.6787
     116 -83.5693     117 -83.4594     118 -83.4641     119 -83.4172     120 -83.5105
     121 -83.4031     122 -83.6082     123 -83.5381     124 -83.5396     125 -83.4517
     126 -83.4920     127 -83.4831     128 -83.6033
 
 
 
 E-fermi :   5.9641     XC(G=0):  -9.3320     alpha+bet :-11.7321


 k-point     1 :       0.0000    0.0000    0.0000
  band No.  band energies     occupation 
      1      -6.2918      2.00000
      2      -5.6467      2.00000
      3      -5.6185      2.00000
      4      -5.6050      2.00000
      5      -5.5381      2.00000
      6      -5.5308      2.00000
      7      -5.4883      2.00000
      8      -5.4680      2.00000
      9      -5.4318      2.00000
     10      -5.3486      2.00000
     11      -5.2818      2.00000
     12      -5.2614      2.00000
     13      -5.1961      2.00000
     14      -5.1299      2.00000
     15      -5.1231      2.00000
     16      -4.5399      2.00000
     17      -4.4747      2.00000
     18      -4.4578      2.00000
     19      -4.4197      2.00000
     20      -4.3736      2.00000
     21      -4.3396      2.00000
     22      -4.2925      2.00000
     23      -4.2698      2.00000
     24      -4.2440      2.00000
     25      -4.2037      2.00000
     26      -4.1757      2.00000
     27      -4.1466      2.00000
     28      -4.1118      2.00000
     29      -4.0368      2.00000
     30      -3.9706      2.00000
     31      -3.9597      2.00000
     32      -3.9004      2.00000
     33      -3.8134      2.00000
     34      -3.7715      2.00000
     35      -3.7686      2.00000
     36      -3.7406      2.00000
     37      -3.7282      2.00000
     38      -3.7046      2.00000
     39      -3.6796      2.00000
     40      -3.6529      2.00000
     41      -3.6143      2.00000
     42      -3.6089      2.00000
     43      -3.5866      2.00000
     44      -3.5825      2.00000
     45      -3.5328      2.00000
     46      -3.4888      2.00000
     47      -3.4813      2.00000
     48      -3.4389      2.00000
     49      -3.4247      2.00000
     50      -3.4049      2.00000
     51      -3.3749      2.00000
     52      -3.3438      2.00000
     53      -3.3215      2.00000
     54      -3.2793      2.00000
     55      -3.2708      2.00000
     56      -2.3912      2.00000
     57      -2.3339      2.00000
     58      -2.2736      2.00000
     59      -2.2654      2.00000
     60      -2.2443      2.00000
     61      -2.2011      2.00000
     62      -2.1375      2.00000
     63      -2.1223      2.00000
     64      -2.1151      2.00000
     65      -2.0773      2.00000
     66      -2.0209      2.00000
     67      -1.9811      2.00000
     68      -1.9657      2.00000
     69      -1.9074      2.00000
     70      -1.8804      2.00000
     71      -1.8672      2.00000
     72      -1.8326      2.00000
     73      -1.8025      2.00000
     74      -1.3966      2.00000
     75      -1.3387      2.00000
     76      -1.2510      2.00000
     77      -1.1597      2.00000
     78      -1.0433      2.00000
     79      -0.9990      2.00000
     80      -0.9453      2.00000
     81      -0.9196      2.00000
     82      -0.9138      2.00000
     83      -0.8841      2.00000
     84      -0.8574      2.00000
     85      -0.8300      2.00000
     86      -0.8228      2.00000
     87      -0.7909      2.00000
     88      -0.7543      2.00000
     89      -0.7083      2.00000
     90      -0.6980      2.00000
     91      -0.6648      2.00000
     92      -0.6564      2.00000
     93      -0.6209      2.00000
     94      -0.5924      2.00000
     95      -0.5777      2.00000
     96      -0.5407      2.00000
     97      -0.5174      2.00000
     98      -0.4804      2.00000
     99      -0.4774      2.00000
    100      -0.4028      2.00000
    101      -0.3841      2.00000
    102      -0.0483      2.00000
    103      -0.0124      2.00000
[...]
   -.310E+01 -.134E+01 -.404E+01   0.300E+01 0.145E+01 0.351E+01   0.108E+01 0.160E+00 0.542E+00   -.391E-05 0.344E-05 -.129E-05
   -.226E+01 0.115E+02 -.556E+01   0.241E+01 -.102E+02 0.469E+01   0.714E+00 -.334E+01 0.177E+01   0.286E-05 0.186E-05 -.478E-05
   -.104E+01 0.543E+01 0.103E+02   0.893E+00 -.476E+01 -.940E+01   0.147E+01 -.748E+00 -.246E+01   -.226E-05 0.364E-05 0.101E-06
   -.103E+01 0.165E+01 0.814E+00   0.123E+01 -.844E+00 -.945E+00   -.346E-01 -.199E+01 0.283E+00   -.738E-06 -.304E-05 -.457E-05
   0.577E+01 -.685E+01 0.537E+00   -.501E+01 0.615E+01 -.485E+00   -.599E+00 0.243E+01 -.133E+01   0.198E-07 0.288E-05 0.312E-05
   0.200E+01 0.746E+01 -.180E+01   -.173E+01 -.703E+01 0.222E+01   -.276E+00 -.252E+01 -.230E+00   0.490E-05 -.136E-05 0.612E-06
   -.703E+01 0.540E+00 0.182E+01   0.631E+01 -.659E+00 -.165E+01   0.229E+01 -.413E+00 -.535E+00   0.146E-05 0.804E-06 0.272E-05
   0.445E+01 0.774E+01 0.339E+01   -.383E+01 -.719E+01 -.307E+01   -.260E+01 -.139E+01 -.600E+00   -.151E-06 -.252E-05 -.727E-06
   0.185E+02 -.178E+01 -.486E+01   -.170E+02 0.179E+01 0.430E+01   -.420E+01 0.955E+00 0.394E+00   0.253E-05 -.920E-06 0.379E-05
   -.532E+01 -.368E+01 -.761E+00   0.473E+01 0.378E+01 0.514E+00   0.243E+01 0.545E+00 -.311E+00   0.964E-06 -.590E-06 -.284E-06
   0.184E+01 -.363E+01 0.719E+01   -.154E+01 0.310E+01 -.615E+01   0.119E-01 -.957E-01 -.153E+01   0.133E-06 0.149E-05 -.520E-05
   -.457E+01 0.438E+01 0.137E+01   0.512E+01 -.419E+01 -.165E+01   -.563E+00 -.856E+00 -.114E+01   -.261E-05 0.298E-05 0.295E-05
   -.512E+01 0.659E+01 -.145E+02   0.474E+01 -.602E+01 0.130E+02   0.173E+01 -.118E+01 0.371E+01   -.344E-05 -.168E-05 -.301E-05
   -.187E+01 -.914E+01 -.218E+01   0.205E+01 0.838E+01 0.158E+01   -.174E+00 0.259E+01 0.872E+00   0.288E-05 -.315E-05 -.294E-05
   -.161E+01 0.190E+01 -.534E+01   0.103E+01 -.155E+01 0.466E+01   0.126E+01 -.196E+01 0.104E+01   0.443E-05 0.311E-05 -.103E-05
   0.495E+00 0.320E+01 0.105E+02   -.238E+00 -.295E+01 -.929E+01   0.139E+00 -.123E+01 -.217E+01   0.221E-05 0.160E-05 -.144E-05
   -.467E+01 0.406E+01 0.401E+01   0.387E+01 -.393E+01 -.364E+01   0.224E+01 -.161E+01 -.123E+01   0.498E-06 0.517E-05 -.978E-06
   -.277E+01 0.356E+00 0.125E+02   0.251E+01 -.420E+00 -.111E+02   -.739E-01 0.120E+01 -.358E+01   -.174E-05 -.170E-05 -.258E-05
   -.369E+01 -.134E+02 -.149E+02   0.333E+01 0.125E+02 0.128E+02   0.199E+01 0.317E+01 0.458E+01   -.317E-05 -.329E-06 -.194E-07
   -.579E+01 0.497E+01 0.135E+02   0.492E+01 -.404E+01 -.121E+02   0.210E+01 -.221E+01 -.381E+01   0.313E-05 0.163E-05 -.261E-05
   0.971E+01 -.624E+01 -.288E+01   -.856E+01 0.539E+01 0.225E+01   -.311E+01 0.198E+01 0.269E-01   -.112E-05 0.490E-05 0.302E-06
   0.132E+02 -.116E+01 -.335E+01   -.118E+02 0.689E+00 0.322E+01   -.354E+01 -.215E+00 0.268E+00   0.696E-06 -.386E-05 0.958E-06
   -.127E+01 -.965E+00 -.435E+01   0.125E+01 0.778E+00 0.414E+01   0.627E+00 0.563E+00 0.123E+01   0.956E-06 -.316E-05 0.364E-05
   -.664E+01 -.113E+02 0.605E+01   0.699E+01 0.102E+02 -.575E+01   0.647E+00 0.424E+01 -.108E+01   0.257E-06 0.355E-05 0.127E-06
   -.186E+01 -.299E+01 0.707E+01   0.227E+01 0.239E+01 -.628E+01   -.123E+01 -.101E+01 -.142E+01   -.121E-05 -.161E-05 0.851E-06
   -.342E+01 -.249E+01 0.157E+01   0.262E+01 0.202E+01 -.157E+01   0.885E+00 0.645E+00 -.532E+00   0.421E-06 -.412E-06 0.253E-05
   0.550E+01 -.939E+01 -.773E+01   -.550E+01 0.868E+01 0.691E+01   -.123E+01 0.164E+01 0.164E+01   0.353E-05 -.331E-06 -.191E-05
   0.391E+01 0.402E+01 -.208E+00   -.330E+01 -.386E+01 0.101E+00   -.272E+01 -.718E+00 -.370E+00   0.145E-05 0.108E-05 0.854E-06
   0.109E+01 0.512E+01 0.146E+02   -.116E+01 -.443E+01 -.131E+02   -.627E+00 -.195E+00 -.413E+01   0.268E-05 -.226E-05 0.102E-05
   -.134E+01 0.625E+01 0.184E+02   0.109E+01 -.611E+01 -.166E+02   0.622E+00 -.127E+01 -.571E+01   -.338E-05 0.117E-05 -.214E-05
   0.791E+01 -.910E+01 -.148E+02   -.718E+01 0.825E+01 0.135E+02   -.756E+00 0.110E+01 0.355E+01   -.390E-05 0.196E-05 -.251E-05
   -.869E+01 0.691E+01 -.634E+01   0.759E+01 -.696E+01 0.498E+01   0.257E+01 -.161E+01 0.254E+01   -.114E-05 0.289E-05 0.149E-06
   -.323E+01 0.701E+01 -.390E+01   0.229E+01 -.546E+01 0.387E+01   0.786E+00 -.318E+01 -.575E+00   -.310E-05 -.827E-06 0.112E-05
   -.837E+01 -.157E+00 -.643E+01   0.727E+01 0.161E+00 0.608E+01   0.214E+01 -.498E+00 0.121E+01   0.362E-05 -.363E-05 -.278E-05
   0.109E+02 -.284E+01 0.606E+01   -.988E+01 0.256E+01 -.522E+01   -.212E+01 0.165E+01 -.168E+01   -.358E-05 0.169E-05 0.414E-05
   0.260E+01 -.129E+01 -.645E+01   -.244E+01 0.968E+00 0.500E+01   -.125E+01 0.176E-01 0.367E+01   -.338E-05 0.267E-05 -.254E-05
   -.136E+01 -.607E+01 0.271E+01   0.106E+01 0.514E+01 -.281E+01   -.273E-01 0.307E+01 -.179E+00   0.309E-06 -.107E-05 0.891E-06
   -.513E+01 -.756E+01 0.825E+01   0.477E+01 0.697E+01 -.734E+01   0.209E+01 0.146E+01 -.170E+01   0.370E-05 -.265E-05 0.422E-07
   0.327E+01 0.284E+01 -.661E+00   -.319E+01 -.232E+01 0.128E+01   -.549E+00 -.295E+00 -.417E+00   0.143E-05 -.343E-05 0.512E-05
   0.655E+01 0.122E+01 -.392E+01   -.643E+01 -.196E+01 0.366E+01   -.131E+01 -.670E+00 -.161E+00   -.196E-05 -.329E-05 0.309E-05
   0.229E+01 0.231E+01 0.782E+01   -.189E+01 -.256E+01 -.716E+01   -.479E+00 0.538E+00 -.174E+01   0.208E-05 -.223E-05 0.198E-05
   0.439E+01 0.464E+01 -.749E+01   -.377E+01 -.345E+01 0.602E+01   -.127E+01 -.229E+01 0.223E+01   -.484E-08 -.190E-06 -.324E-06
   -.280E+01 0.989E+01 -.735E+01   0.236E+01 -.870E+01 0.646E+01   0.417E-02 -.357E+01 0.194E+01   -.204E-05 -.234E-05 -.695E-06
   0.768E+01 -.607E+01 -.554E+00   -.692E+01 0.555E+01 -.108E+00   -.160E+01 0.179E+01 -.203E+00   0.213E-06 -.750E-07 0.288E-05
   -.792E+01 -.444E+00 -.795E+01   0.675E+01 0.562E+00 0.656E+01   0.896E+00 0.122E+01 0.231E+01   -.832E-06 0.149E-05 -.286E-05
   -.619E+01 0.125E+01 0.608E+01   0.556E+01 -.104E+01 -.523E+01   0.138E+01 -.926E+00 -.261E+01   -.120E-05 0.466E-06 -.172E-05
   -.442E+01 0.635E+01 0.112E+01   0.407E+01 -.620E+01 -.613E+00   0.140E+01 -.178E+01 -.106E+01   -.606E-05 0.895E-06 0.143E-05
   0.172E+01 -.905E+01 0.560E+01   -.104E+01 0.790E+01 -.528E+01   -.657E+00 0.249E+01 -.112E+01   -.430E-05 -.333E-05 0.176E-05
   -.365E+01 -.543E+00 0.786E+01   0.305E+01 -.110E+00 -.652E+01   0.463E+00 0.133E+01 -.340E+01   -.252E-05 0.240E-05 -.667E-06
   0.348E+01 -.757E+00 0.104E+02   -.366E+01 0.109E+01 -.914E+01   -.248E+00 -.847E+00 -.275E+01   0.237E-05 -.176E-05 -.306E-05
   0.214E+01 -.767E+00 -.296E+01   -.237E+01 0.278E+00 0.258E+01   -.702E+00 -.874E-01 0.335E+00   -.779E-06 0.250E-05 0.194E-05
   0.299E+01 0.498E+00 -.382E+01   -.261E+01 -.571E+00 0.422E+01   -.101E+01 0.117E+00 0.909E-01   -.148E-06 0.318E-06 -.508E-06
   -.302E+01 0.586E+01 -.629E+00   0.245E+01 -.514E+01 0.153E+00   0.778E+00 -.277E+01 0.575E+00   -.295E-05 -.252E-05 0.203E-05
 -----------------------------------------------------------------------------------------------
   -.210E+00 0.759E-01 0.602E+00   -.404E-13 0.187E-13 -.195E-13   0.210E+00 -.759E-01 -.602E+00   -.896E-06 -.183E-05 -.178E-05
 
 
 POSITION                                       TOTAL-FORCE (eV/Angst)
 -----------------------------------------------------------------------------------
      0.18159     10.98320     10.81804        -2.682486      0.462147      0.611932
     10.85812      2.94301     13.78510        -0.298567     -2.048133     -1.354577
     21.78005     16.33457     16.34294         0.313609      2.359137      0.604016
      0.10274      8.13705      8.20367        -1.310306      0.551538      1.577644
     13.62657     21.72058     13.67495         1.688154      2.129935     -0.861128
     13.52413     13.75945      5.55128         1.649837      0.877789     -2.187419
      2.77557      5.49660      8.16207        -0.408079      0.122521      0.864781
      2.68946      8.18484     10.86430         1.335950      0.969235      1.176507
      5.44463      0.10476      5.51549        -0.938811     -1.523601     -0.716818
      5.48282      2.72626      8.13369        -0.392893      0.305771      0.845715
      5.61197      5.43451     10.93731        -1.891657     -0.148654      1.039274
      5.46648      8.28188     13.65475         0.921493     -2.283770      2.379229
      8.20811     11.00257     19.07704        -0.460258     -0.939083     -0.071937
     19.08384     13.56331     10.81873        -0.368786      1.414364      0.804457
      8.29776      5.48884     13.56099        -0.597682      0.027761      1.409232
      8.30683      8.11270     16.31907        -1.201957      1.194996      0.610167
     13.51798      2.83698     11.00996         2.580443     -1.810051      0.484728
      2.83377      5.36680      2.74216        -1.378786      1.826142      0.100488
     13.54102      8.13927     16.46627         2.104538      2.055827     -0.454084
     13.70691     10.92644     18.99744         1.935273     -0.797611      1.638766
      5.60091     13.79113     13.59076        -2.020232     -0.762611      0.656075
      5.57543      5.43950      5.57609        -1.466164      0.681353     -0.501602
      5.50584      8.18583      8.20960        -0.264963      0.672996      1.516270
      5.53146     10.96919     10.93316        -0.580798     -1.268132      0.153738
      8.29057     13.57167     16.43489        -1.619181      1.106765     -0.045344
      8.14237      5.61175      8.12541         0.829353     -1.310372     -0.163944
      8.22202      8.11389     10.86215        -0.718169      1.021425      2.079260
      8.22520     10.96308     13.69919        -1.394459      0.733686      0.064517
     10.88498      2.76665      8.29795         1.523999      0.294435     -1.349111
     10.95894      5.45417     10.85412        -2.783027     -0.930774     -0.541707
     10.88340      8.29216     13.65592         1.277238     -0.202854     -0.512634
     10.99044     10.92068     16.37610        -2.300275      1.090599      1.980745
      5.49383     16.28247     10.98639        -0.263164      3.111532     -0.323356
     16.37399      8.25157     13.74269         0.331793     -1.682139      0.266895
     16.45703     10.97657     16.37229        -0.544230     -0.794207     -1.712142
      5.52741     13.72507      8.27446         0.429505     -0.457334      0.205749
      8.22300     16.45986     13.52488        -0.133717     -0.538486      2.097114
      8.33888      8.16509      5.40540        -0.711656      0.531077     -0.537831
      8.12497     11.04352      8.16321         2.891636     -1.701590      1.532259
      7.94881     13.63630     10.87699         3.615218      0.629810      0.141069
     10.83381     16.41699     16.24178         0.170184      0.622034      2.192252
     10.94110      8.04124      8.12160        -1.178945      2.117270      0.851864
     11.05349     11.03702     11.12523        -0.992159     -1.590038     -2.022288
     11.00925     13.68713     13.60204        -0.373088      0.727755      2.210997
     13.68689     16.40550     19.10884         0.520610     -2.131579      0.612038
     13.63266      8.13333     10.92125        -0.382957      0.272165     -0.300752
     13.66875     10.91480     13.76349        -0.411396     -0.326841     -1.057736
     13.57289     13.60829     16.45484         0.880684     -0.204640     -1.120793
     19.04378     19.13584     21.78052         0.717821      0.288333     -0.310221
      8.32638     10.89327      2.71205        -0.565024      0.746787      0.248237
     19.10053     13.68051     16.38981        -0.143917     -0.549508      0.793706
      8.14551     16.31468      8.25614         0.983208      2.305605     -1.172769
     11.00345     19.32999     13.47394        -0.133225     -1.309242      0.864307
     10.98227     10.99637      5.50568         0.360277      0.042210     -0.410045
     10.94475     13.60126      8.07374         0.252596      1.184439      1.453381
     11.01127     16.67378     10.98614        -0.664989     -3.288847     -0.195708
     13.73687     19.12158     16.27324        -1.027349      0.733935      1.741745
     13.68504     10.74140      8.11949        -0.578712      2.544813      0.754232
     13.62128     13.56246     10.84592         0.619979      1.327535      0.359945
     13.58896     16.38953     13.77217         1.495258     -0.139276     -0.761045
     16.34222     19.05662     19.12144         0.618560      1.197851      0.757537
     16.43815     10.87867     11.01665        -0.841993      0.832614      0.250730
     16.33456     13.65300     13.62735         1.902640      0.575273     -0.352654
     16.36539     16.36208     16.37007         1.294904     -0.993933      1.149576
      1.30317      1.41506      1.39850         0.208008      0.004965      0.915637
      1.27184      4.24906      4.04993         1.673875     -0.875927      0.731683
      1.33684      6.94508      6.81287        -0.395506     -3.193399      0.306472
      1.41617      9.60842      9.52179         0.569668     -0.443093     -0.802296
      4.07906      1.39439      4.13291        -0.540173      0.563144     -0.824733
      4.08315      4.10114      6.84997         0.239115      0.189684     -0.201224
      4.09228      6.81114      9.71953         0.765579     -0.346189     -1.708729
      4.34004      9.55883     12.37270        -3.348871      1.178702     -2.178993
      6.76769      1.36851      6.74360         1.425363      0.334885      1.070392
      6.86773      4.18250      9.50571         0.159670     -0.886410     -0.449737
      6.76204      6.73472     12.49718         0.558517      1.141387     -1.859723
      6.77184      9.59022     15.09446         0.981723      0.262451      0.020685
      9.50137      1.48250      9.44419         0.866016     -2.075747      0.896574
      9.42536      4.03947     12.28993         1.322860     -0.076739     -1.581775
      9.60613      6.88951     14.93150         0.165590     -1.182462      0.152643
      9.55631      9.36575     17.89568         0.165525      1.733957     -1.277149
      4.10316      4.19460      1.34486        -0.004900     -2.087572      0.185651
      3.95671      6.83955      4.19830         1.570453     -0.531324     -0.364862
      4.30882      9.59849      6.80609        -1.977697     -0.846464     -0.280005
      4.29637     12.24194      9.55186        -2.734148      0.964281     -0.170621
      6.79209      4.07397      4.17386         1.839979      0.640895     -0.558423
      6.85138      6.99158      6.80860         0.305431     -0.630695     -0.488877
      6.91668      9.63263      9.67247        -0.017390     -0.665099     -1.415541
      6.70359     12.35660     12.18520         1.346672     -0.613861      2.171265
      9.58399      3.99999      6.79491         0.006779      1.827439      0.279209
      9.52400      6.91822      9.48006         0.679275     -1.611766      0.365898
      9.51505      9.67605     12.33698         0.395466     -0.987957     -0.934809
      9.55781     12.40436     15.03140         1.432095     -1.478647     -0.852088
     12.30045      4.06155      9.66983        -0.335257      1.138092     -2.166550
     12.22253      6.63273     12.15038         1.632849      2.265816      2.542963
     12.24518      9.60610     15.21787         1.228746     -1.274089     -2.413738
     12.35669     12.22466     17.84188        -1.960798      1.120790     -0.601817
      6.94025      6.92305      1.35239        -2.148242     -0.686112      0.133616
      6.87655      9.56428      4.02853         0.611080      0.375688      1.012742
      6.63359     12.09449      6.96369         0.999905      3.166713     -0.788110
      6.86967     15.17052      9.64090        -0.820028     -1.614007     -0.636489
      9.61712      6.89379      3.93330         0.088751      0.173435     -0.533971
      9.72231      9.47848      6.73286        -1.229726      0.928981      0.818312
      9.76182     12.41743      9.67810        -2.110425     -0.553574     -0.476944
      9.63372     15.04386     12.45519        -0.701816      0.497314     -2.611062
     12.42512      6.91872      7.06038         0.371616     -1.139347     -3.962630
     12.23784      9.50192      9.38188        -0.022583      0.245760      2.293292
     12.29972     12.46125     12.27791         1.470676     -1.662388      1.180196
     12.29447     15.13005     15.14284        -0.155469     -1.621414     -0.605214
     14.96720      6.79820      9.53406         1.040944     -0.493283      0.857851
     15.05581      9.42726     12.36629        -1.096302      1.367397     -0.833662
     15.11363     12.29664     14.89148        -1.092200     -0.302601      2.215568
     15.04658     14.78676     17.77857        -0.323355      2.134166     -0.274613
      9.43255      9.51869      1.25576         1.730339      0.877344     -0.790194
      9.62733     12.31518      4.11952        -0.466741      0.220295      0.199021
      9.62017     15.11695      6.89004        -1.189211     -1.405395     -0.428631
      9.55247     17.75902      9.62310        -0.081724      0.281112     -1.081626
     12.29346      9.64350      4.07462        -0.640864     -1.101301      0.757823
     12.37802     12.39031      6.79879        -0.439713     -2.388269      1.056634
     12.33371     14.98756      9.58136        -0.843816      1.269551     -0.864935
     12.43569     17.75981     12.29594        -0.275264      1.336210      0.924288
     15.05420      9.55113      6.86697         0.743422     -0.720468     -1.754162
     14.99133     12.30878      9.55220         1.044541     -1.635233     -0.549527
     14.94898     14.90141     12.31862         0.020569      1.350227     -0.806227
     15.05131     17.68237     15.14231        -0.134502      0.677885     -2.053681
     17.77235      9.66251      9.61667        -0.434779     -0.517349     -1.490507
     17.86469     12.30958     12.34164        -0.925803     -0.576275     -0.043874
     17.83684     15.05435     14.92111        -0.642467      0.044257      0.486733
     17.75304     17.91599     17.70951         0.207970     -2.044522      0.099071
 -----------------------------------------------------------------------------------
    total drift:                               -0.000001      0.000005      0.000010


--------------------------------------------------------------------------------------------------------



  FREE ENERGIE OF THE ION-ELECTRON SYSTEM (eV)
  ---------------------------------------------------
  free  energy   TOTEN  =      -677.30792662 eV

  energy  without entropy=     -677.30792662  energy(sigma->0) =     -677.30792662
 


--------------------------------------------------------------------------------------------------------


    POTLOK:  cpu time    0.9979: real time    0.9979


--------------------------------------------------------------------------------------------------------


     LOOP+:  cpu time 1630.6564: real time 1631.1134
    4ORBIT:  cpu time    0.0000: real time    0.0000

 total amount of memory used by VASP MPI-rank0   221701. kBytes
=======================================================================

   base      :      30000. kBytes
   nonl-proj :      10690. kBytes
   fftplans  :      66746. kBytes
   grid      :      26864. kBytes
   one-center:         24. kBytes
   wavefun   :      87377. kBytes
 
  
  
 General timing and accounting informations for this job:
 ========================================================
  
                  Total CPU time used (sec):     1654.629
                            User time (sec):     1653.649
                          System time (sec):        0.980
                         Elapsed time (sec):     1656.047
  
                   Maximum memory used (kb):      338136.
                   Average memory used (kb):           0.
  
                          Minor page faults:       145564
                          Major page faults:            0
                 Voluntary context switches:         1365
