<?xml version="1.0" encoding="ISO-8859-1"?>
<modeling>
 <generator>
  <i name="program" type="string">vasp </i>
  <i name="version" type="string">5.4.4.18Apr17-6-g9f103f2a35  </i>
  <i name="subversion" type="string">(build Nov 08 2017 09:05:29) complex            parallel </i>
  <i name="platform" type="string">Intel_17.33 </i>
  <i name="date" type="string">2020 07 18 </i>
  <i name="time" type="string">22:21:11 </i>
 </generator>
 <incar>
  <i type="string" name="SYSTEM">potpaw_PBE@./ARUN.APL1ZEROSTATE</i>
  <i type="string" name="PREC">accurate</i>
  <i type="string" name="ALGO">Normal</i>
  <i type="int" name="NSIM">     4</i>
  <i type="logical" name="ADDGRID"> T  </i>
  <i type="int" name="NELM">   120</i>
  <i type="int" name="NELMIN">     4</i>
  <i name="EDIFF">      0.00000001</i>
  <i type="int" name="NSW">     0</i>
  <i type="int" name="ISYM">     2</i>
  <i name="ENMAX">    500.00000000</i>
  <i type="logical" name="LREAL"> F  </i>
  <i type="logical" name="LPLANE"> T  </i>
  <i type="int" name="ISMEAR">     0</i>
  <i name="SIGMA">      0.01000000</i>
  <i type="logical" name="LWAVE"> F  </i>
  <i type="logical" name="LCHARG"> F  </i>
  <i type="logical" name="LELF"> F  </i>
  <i type="logical" name="LAECHG"> F  </i>
  <v type="int" name="KPOINT_BSE">    -1     0     0     0</v>
  <i type="int" name="NELM">   120</i>
 </incar>
 <structure name="primitive_cell" >
  <crystal>
   <varray name="basis" >
    <v>       0.00000000      10.93733369      10.93733369 </v>
    <v>      10.93733369       0.00000000      10.93733369 </v>
    <v>      10.93733369      10.93733369       0.00000000 </v>
   </varray>
   <i name="volume">   2616.76295363 </i>
   <varray name="rec_basis" >
    <v>      -0.04571498       0.04571498       0.04571498 </v>
    <v>       0.04571498      -0.04571498       0.04571498 </v>
    <v>       0.04571498       0.04571498      -0.04571498 </v>
   </varray>
  </crystal>
  <varray name="positions" >
   <v>      -0.01165839       0.00075144       0.01585161 </v>
   <v>      -0.19020247       0.06077980       0.06870020 </v>
   <v>       0.06904764       0.05881729       0.06033124 </v>
   <v>       0.06515869      -0.20167641       0.07038627 </v>
   <v>       0.06134500       0.05346947      -0.19105191 </v>
   <v>       0.01503826      -0.00839830       0.24434674 </v>
   <v>      -0.00339136       0.23531300      -0.22926822 </v>
   <v>       0.00821162      -0.24953004       0.24474333 </v>
   <v>      -0.25211740       0.24544029       0.00045662 </v>
   <v>      -0.25864121      -0.00442332       0.25764537 </v>
   <v>      -0.00483275       0.25513277      -0.00925571 </v>
   <v>      -0.25768069       0.00774228       0.00165114 </v>
   <v>       0.24220721      -0.25305079      -0.00211406 </v>
   <v>      -0.00014492      -0.25564233       0.00610985 </v>
   <v>       0.24132669       0.00663602      -0.24535513 </v>
   <v>      -0.00009557      -0.00851269      -0.25031526 </v>
   <v>       0.26834655      -0.00797524       0.00073253 </v>
   <v>      -0.19039414      -0.17832314       0.30809459 </v>
   <v>       0.06541464      -0.18130276       0.30593273 </v>
   <v>      -0.19061060      -0.17318795       0.04692081 </v>
   <v>      -0.20010544       0.07343158       0.31938522 </v>
   <v>       0.06512848       0.30741412      -0.18342356 </v>
   <v>       0.31561799      -0.19195003       0.05371037 </v>
   <v>      -0.18491806       0.06475773      -0.19137553 </v>
   <v>      -0.19449965       0.31871693      -0.18172195 </v>
   <v>       0.06888459      -0.18963306      -0.18544194 </v>
   <v>       0.31024639      -0.18185062      -0.18478153 </v>
   <v>      -0.19580522       0.32704111       0.06976896 </v>
   <v>       0.31119833       0.06544896      -0.18522222 </v>
   <v>      -0.23890760       0.24336982      -0.23660974 </v>
   <v>      -0.25160502       0.25122378       0.25451734 </v>
   <v>      -0.25455593      -0.24817786       0.25303349 </v>
   <v>       0.24454493      -0.25215349       0.25412934 </v>
   <v>       0.24947436      -0.24222276      -0.25483786 </v>
   <v>       0.25233649       0.25104782      -0.24693901 </v>
   <v>      -0.43216928       0.05506976       0.06715787 </v>
   <v>      -0.43137906       0.32003519       0.05412143 </v>
   <v>       0.05535664      -0.43409799       0.31036188 </v>
   <v>       0.06566007       0.05730000       0.31785170 </v>
   <v>      -0.44704295       0.06932318       0.32463245 </v>
   <v>       0.06620603       0.31166578       0.06128270 </v>
   <v>       0.05531378       0.30430783      -0.42501509 </v>
   <v>       0.06103785       0.06261078      -0.42806409 </v>
   <v>       0.32124599       0.04903927       0.06724534 </v>
   <v>       0.31179825      -0.44269116       0.07060782 </v>
   <v>       0.30703388       0.06129423      -0.43257171 </v>
   <v>       0.06146022      -0.44489324       0.06366304 </v>
   <v>      -0.24614884      -0.24938581       0.49035467 </v>
   <v>      -0.49418535      -0.00030410       0.23835863 </v>
   <v>      -0.24697770       0.00351082      -0.49814003 </v>
   <v>       0.49781745       0.25278638       0.25061261 </v>
   <v>      -0.00215854      -0.25072102      -0.49788732 </v>
   <v>      -0.00725373      -0.49010487       0.24811129 </v>
   <v>      -0.24706773       0.49552074       0.00427941 </v>
   <v>       0.24115557       0.00956025       0.24953106 </v>
   <v>       0.49752061       0.24873715       0.00503341 </v>
   <v>      -0.00990761       0.49776888      -0.24180702 </v>
   <v>      -0.00428305       0.24688542       0.26520537 </v>
   <v>       0.49153091      -0.25165035       0.01031390 </v>
   <v>      -0.24237749      -0.49843355      -0.25912822 </v>
   <v>      -0.00516229       0.24174143      -0.48991318 </v>
   <v>       0.26453401       0.24301887      -0.00650827 </v>
   <v>      -0.26284904      -0.24509941       0.00459262 </v>
   <v>      -0.19913084      -0.17537542      -0.44891666 </v>
   <v>      -0.42496078      -0.18367038       0.30324650 </v>
   <v>       0.24581549       0.49784764       0.00344595 </v>
   <v>       0.23916301       0.25505219      -0.49262893 </v>
   <v>      -0.18452626       0.29861856       0.31429016 </v>
   <v>       0.29991668      -0.18900809       0.30651346 </v>
   <v>      -0.24911715       0.00397587      -0.25923237 </v>
   <v>      -0.49851634      -0.00296441      -0.25067495 </v>
   <v>       0.25576542       0.48714037       0.25731644 </v>
   <v>      -0.49961312      -0.25443848      -0.25209369 </v>
   <v>      -0.00177505      -0.24995262      -0.25587884 </v>
   <v>       0.25693022      -0.00043678       0.49751033 </v>
   <v>      -0.43366321       0.31801721       0.31437419 </v>
   <v>      -0.18270998      -0.44297001       0.31683992 </v>
   <v>      -0.18296072      -0.19785942      -0.17898056 </v>
   <v>      -0.44066779       0.31669095      -0.18901997 </v>
   <v>       0.29664614       0.31893926      -0.43002926 </v>
   <v>      -0.44508292      -0.19068043      -0.17849809 </v>
   <v>       0.31136835       0.31024521      -0.17852309 </v>
   <v>       0.31425724      -0.44749592       0.31827509 </v>
   <v>      -0.18749072      -0.42804857      -0.19581110 </v>
   <v>      -0.18328685       0.32206429      -0.44125357 </v>
   <v>       0.31404575      -0.44068872      -0.18865470 </v>
   <v>       0.30801582      -0.17736631      -0.44608149 </v>
   <v>      -0.00455487       0.00904011       0.49326085 </v>
   <v>       0.49791962      -0.00100211      -0.49433202 </v>
   <v>      -0.43201044       0.06870010      -0.46219110 </v>
   <v>       0.49817747      -0.00394301      -0.00470808 </v>
   <v>       0.49188678      -0.49188870       0.00499050 </v>
   <v>       0.00802845       0.49625252       0.00154939 </v>
   <v>      -0.00227244       0.48725818      -0.49672290 </v>
   <v>       0.06240374      -0.19070470      -0.44084474 </v>
   <v>      -0.17811735      -0.43737354      -0.43854318 </v>
   <v>       0.07104028      -0.42550991      -0.43846162 </v>
   <v>      -0.17979371       0.06126047      -0.43316663 </v>
   <v>      -0.18111492      -0.43879933       0.05794878 </v>
   <v>      -0.43373657       0.06369262      -0.18412119 </v>
   <v>      -0.42994066      -0.42744293       0.04569560 </v>
   <v>      -0.44801512      -0.19045729      -0.42770386 </v>
   <v>      -0.44159695      -0.19321702       0.07150482 </v>
   <v>      -0.43902880      -0.43467986      -0.19853545 </v>
   <v>       0.06235042      -0.43450389      -0.18909110 </v>
   <v>      -0.24275500       0.23723800       0.48952179 </v>
   <v>      -0.49339773       0.23975958      -0.49689406 </v>
   <v>      -0.49669905      -0.24490552       0.49463893 </v>
   <v>       0.23871177      -0.49615380       0.49649832 </v>
   <v>       0.24786273      -0.24933365       0.49576734 </v>
   <v>       0.49161979      -0.49849355       0.25023242 </v>
   <v>      -0.49417881      -0.25726130       0.25233030 </v>
   <v>      -0.24857943      -0.49890379       0.25093315 </v>
   <v>      -0.25576356       0.49939799      -0.49282234 </v>
   <v>       0.49053320       0.24764861      -0.24697082 </v>
   <v>       0.23661406      -0.49424935      -0.25452821 </v>
   <v>       0.32371412       0.06013640       0.30162589 </v>
   <v>       0.49313247       0.49851003      -0.25311703 </v>
   <v>       0.31766426       0.30484583       0.32157565 </v>
   <v>       0.31396881       0.31232358       0.06099830 </v>
   <v>       0.06654900       0.31506709       0.30593360 </v>
   <v>      -0.25179392      -0.25149087      -0.25222211 </v>
   <v>       0.24869642       0.26112492       0.24863659 </v>
   <v>      -0.42865551      -0.44337497       0.31333607 </v>
   <v>       0.30382002      -0.44603552      -0.43505948 </v>
   <v>      -0.43133128      -0.44610015      -0.42933687 </v>
   <v>      -0.43616434       0.32103293      -0.42851054 </v>
   <v>      -0.49216281      -0.49065738      -0.49872262 </v>
  </varray>
 </structure>
 <varray name="primitive_index" >
  <v type="int" >        1 </v>
  <v type="int" >       68 </v>
  <v type="int" >       65 </v>
  <v type="int" >       77 </v>
  <v type="int" >      113 </v>
  <v type="int" >       17 </v>
  <v type="int" >       53 </v>
  <v type="int" >       29 </v>
  <v type="int" >        8 </v>
  <v type="int" >       20 </v>
  <v type="int" >        5 </v>
  <v type="int" >        4 </v>
  <v type="int" >       14 </v>
  <v type="int" >       13 </v>
  <v type="int" >       50 </v>
  <v type="int" >       49 </v>
  <v type="int" >        2 </v>
  <v type="int" >       96 </v>
  <v type="int" >       93 </v>
  <v type="int" >       80 </v>
  <v type="int" >       84 </v>
  <v type="int" >      117 </v>
  <v type="int" >       78 </v>
  <v type="int" >      116 </v>
  <v type="int" >      120 </v>
  <v type="int" >      125 </v>
  <v type="int" >      126 </v>
  <v type="int" >       72 </v>
  <v type="int" >      114 </v>
  <v type="int" >       56 </v>
  <v type="int" >       24 </v>
  <v type="int" >       32 </v>
  <v type="int" >       30 </v>
  <v type="int" >       62 </v>
  <v type="int" >       54 </v>
  <v type="int" >       67 </v>
  <v type="int" >       71 </v>
  <v type="int" >       89 </v>
  <v type="int" >       81 </v>
  <v type="int" >       83 </v>
  <v type="int" >       69 </v>
  <v type="int" >      101 </v>
  <v type="int" >       97 </v>
  <v type="int" >       66 </v>
  <v type="int" >       74 </v>
  <v type="int" >       98 </v>
  <v type="int" >       73 </v>
  <v type="int" >       48 </v>
  <v type="int" >       19 </v>
  <v type="int" >       36 </v>
  <v type="int" >       23 </v>
  <v type="int" >       45 </v>
  <v type="int" >       25 </v>
  <v type="int" >       12 </v>
  <v type="int" >       18 </v>
  <v type="int" >        7 </v>
  <v type="int" >       57 </v>
  <v type="int" >       21 </v>
  <v type="int" >       15 </v>
  <v type="int" >       60 </v>
  <v type="int" >       37 </v>
  <v type="int" >        6 </v>
  <v type="int" >       16 </v>
  <v type="int" >      112 </v>
  <v type="int" >       95 </v>
  <v type="int" >       10 </v>
  <v type="int" >       38 </v>
  <v type="int" >       88 </v>
  <v type="int" >       94 </v>
  <v type="int" >       52 </v>
  <v type="int" >       51 </v>
  <v type="int" >       26 </v>
  <v type="int" >       63 </v>
  <v type="int" >       61 </v>
  <v type="int" >       34 </v>
  <v type="int" >       87 </v>
  <v type="int" >       92 </v>
  <v type="int" >      128 </v>
  <v type="int" >      119 </v>
  <v type="int" >      102 </v>
  <v type="int" >      127 </v>
  <v type="int" >      118 </v>
  <v type="int" >       90 </v>
  <v type="int" >      124 </v>
  <v type="int" >      104 </v>
  <v type="int" >      122 </v>
  <v type="int" >      110 </v>
  <v type="int" >       33 </v>
  <v type="int" >       35 </v>
  <v type="int" >       99 </v>
  <v type="int" >        3 </v>
  <v type="int" >       11 </v>
  <v type="int" >        9 </v>
  <v type="int" >       41 </v>
  <v type="int" >      109 </v>
  <v type="int" >      108 </v>
  <v type="int" >      105 </v>
  <v type="int" >      100 </v>
  <v type="int" >       76 </v>
  <v type="int" >      115 </v>
  <v type="int" >       75 </v>
  <v type="int" >      111 </v>
  <v type="int" >       79 </v>
  <v type="int" >      123 </v>
  <v type="int" >      121 </v>
  <v type="int" >       40 </v>
  <v type="int" >       39 </v>
  <v type="int" >       47 </v>
  <v type="int" >       42 </v>
  <v type="int" >       46 </v>
  <v type="int" >       27 </v>
  <v type="int" >       31 </v>
  <v type="int" >       28 </v>
  <v type="int" >       44 </v>
  <v type="int" >       55 </v>
  <v type="int" >       58 </v>
  <v type="int" >       82 </v>
  <v type="int" >       59 </v>
  <v type="int" >       86 </v>
  <v type="int" >       70 </v>
  <v type="int" >       85 </v>
  <v type="int" >       64 </v>
  <v type="int" >       22 </v>
  <v type="int" >       91 </v>
  <v type="int" >      106 </v>
  <v type="int" >      107 </v>
  <v type="int" >      103 </v>
  <v type="int" >       43 </v>
 </varray>
 <kpoints>
  <generation param="Gamma">
   <v type="int" name="divisions">       2        2        2 </v>
   <v name="usershift">      0.00000000       0.00000000       0.00000000 </v>
   <v name="genvec1">      0.50000000       0.00000000       0.00000000 </v>
   <v name="genvec2">      0.00000000       0.50000000       0.00000000 </v>
   <v name="genvec3">      0.00000000       0.00000000       0.50000000 </v>
   <v name="shift">      0.00000000       0.00000000       0.00000000 </v>
  </generation>
  <varray name="kpointlist" >
   <v>       0.00000000       0.00000000       0.00000000 </v>
   <v>       0.50000000       0.00000000       0.00000000 </v>
   <v>       0.00000000       0.50000000       0.00000000 </v>
   <v>       0.50000000       0.50000000       0.00000000 </v>
   <v>       0.00000000       0.00000000       0.50000000 </v>
   <v>       0.50000000       0.00000000       0.50000000 </v>
   <v>       0.00000000       0.50000000       0.50000000 </v>
   <v>       0.50000000       0.50000000       0.50000000 </v>
  </varray>
  <varray name="weights" >
   <v>       0.12500000 </v>
   <v>       0.12500000 </v>
   <v>       0.12500000 </v>
   <v>       0.12500000 </v>
   <v>       0.12500000 </v>
   <v>       0.12500000 </v>
   <v>       0.12500000 </v>
   <v>       0.12500000 </v>
  </varray>
 </kpoints>
 <parameters>
  <separator name="general" >
   <i type="string" name="SYSTEM">potpaw_PBE@./ARUN.APL1ZEROSTATE</i>
   <i type="logical" name="LCOMPAT"> F  </i>
  </separator>
  <separator name="electronic" >
   <i type="string" name="PREC">accura</i>
   <i name="ENMAX">    500.00000000</i>
   <i name="ENAUG">    322.06900000</i>
   <i name="EDIFF">      0.00000001</i>
   <i type="int" name="IALGO">    38</i>
   <i type="int" name="IWAVPR">    10</i>
   <i type="int" name="NBANDS">   322</i>
   <i name="NELECT">    512.00000000</i>
   <i type="int" name="TURBO">     0</i>
   <i type="int" name="IRESTART">     0</i>
   <i type="int" name="NREBOOT">     0</i>
   <i type="int" name="NMIN">     0</i>
   <i name="EREF">      0.00000000</i>
   <separator name="electronic smearing" >
    <i type="int" name="ISMEAR">     0</i>
    <i name="SIGMA">      0.01000000</i>
    <i name="KSPACING">      0.50000000</i>
    <i type="logical" name="KGAMMA"> T  </i>
   </separator>
   <separator name="electronic projectors" >
    <i type="logical" name="LREAL"> F  </i>
    <v name="ROPT">      0.00000000</v>
    <i type="int" name="LMAXPAW">  -100</i>
    <i type="int" name="LMAXMIX">     2</i>
    <i type="logical" name="NLSPLINE"> F  </i>
   </separator>
   <separator name="electronic startup" >
    <i type="int" name="ISTART">     0</i>
    <i type="int" name="ICHARG">     2</i>
    <i type="int" name="INIWAV">     1</i>
   </separator>
   <separator name="electronic spin" >
    <i type="int" name="ISPIN">     1</i>
    <i type="logical" name="LNONCOLLINEAR"> F  </i>
    <v name="MAGMOM">      1.00000000      1.00000000      1.00000000      1.00000000      1.00000000      1.00000000      1.00000000      1.00000000      1.00000000      1.00000000      1.00000000      1.00000000      1.00000000      1.00000000      1.00000000      1.00000000      1.00000000      1.00000000      1.00000000      1.00000000
      1.00000000      1.00000000      1.00000000      1.00000000      1.00000000      1.00000000      1.00000000      1.00000000      1.00000000      1.00000000      1.00000000      1.00000000      1.00000000      1.00000000      1.00000000      1.00000000      1.00000000      1.00000000      1.00000000      1.00000000
      1.00000000      1.00000000      1.00000000      1.00000000      1.00000000      1.00000000      1.00000000      1.00000000      1.00000000      1.00000000      1.00000000      1.00000000      1.00000000      1.00000000      1.00000000      1.00000000      1.00000000      1.00000000      1.00000000      1.00000000
      1.00000000      1.00000000      1.00000000      1.00000000      1.00000000      1.00000000      1.00000000      1.00000000      1.00000000      1.00000000      1.00000000      1.00000000      1.00000000      1.00000000      1.00000000      1.00000000      1.00000000      1.00000000      1.00000000      1.00000000
      1.00000000      1.00000000      1.00000000      1.00000000      1.00000000      1.00000000      1.00000000      1.00000000      1.00000000      1.00000000      1.00000000      1.00000000      1.00000000      1.00000000      1.00000000      1.00000000      1.00000000      1.00000000      1.00000000      1.00000000
      1.00000000      1.00000000      1.00000000      1.00000000      1.00000000      1.00000000      1.00000000      1.00000000      1.00000000      1.00000000      1.00000000      1.00000000      1.00000000      1.00000000      1.00000000      1.00000000      1.00000000      1.00000000      1.00000000      1.00000000
      1.00000000      1.00000000      1.00000000      1.00000000      1.00000000      1.00000000      1.00000000      1.00000000</v>
    <i name="NUPDOWN">     -1.00000000</i>
    <i type="logical" name="LSORBIT"> F  </i>
    <v name="SAXIS">      0.00000000      0.00000000      1.00000000</v>
    <i type="logical" name="LSPIRAL"> F  </i>
    <v name="QSPIRAL">      0.00000000      0.00000000      0.00000000</v>
    <i type="logical" name="LZEROZ"> F  </i>
   </separator>
   <separator name="electronic exchange-correlation" >
    <i type="logical" name="LASPH"> F  </i>
    <i type="logical" name="LMETAGGA"> F  </i>
   </separator>
   <separator name="electronic convergence" >
    <i type="int" name="NELM">   120</i>
    <i type="int" name="NELMDL">    -5</i>
    <i type="int" name="NELMIN">     4</i>
    <i name="ENINI">    500.00000000</i>
    <separator name="electronic convergence detail" >
     <i type="logical" name="LDIAG"> T  </i>
     <i type="logical" name="LSUBROT"> F  </i>
     <i name="WEIMIN">      0.00000000</i>
     <i name="EBREAK">      0.00000000</i>
     <i name="DEPER">      0.30000000</i>
     <i type="int" name="NRMM">     4</i>
     <i name="TIME">      0.40000000</i>
    </separator>
   </separator>
   <separator name="electronic mixer" >
    <i name="AMIX">      0.40000000</i>
    <i name="BMIX">      1.00000000</i>
    <i name="AMIN">      0.10000000</i>
    <i name="AMIX_MAG">      1.60000000</i>
    <i name="BMIX_MAG">      1.00000000</i>
    <separator name="electronic mixer details" >
     <i type="int" name="IMIX">     4</i>
     <i type="logical" name="MIXFIRST"> F  </i>
     <i type="int" name="MAXMIX">   -45</i>
     <i name="WC">    100.00000000</i>
     <i type="int" name="INIMIX">     1</i>
     <i type="int" name="MIXPRE">     1</i>
     <i type="int" name="MREMOVE">     5</i>
    </separator>
   </separator>
   <separator name="electronic dipolcorrection" >
    <i type="logical" name="LDIPOL"> F  </i>
    <i type="logical" name="LMONO"> F  </i>
    <i type="int" name="IDIPOL">     0</i>
    <i name="EPSILON">      1.00000000</i>
    <v name="DIPOL">   -100.00000000   -100.00000000   -100.00000000</v>
    <i name="EFIELD">      0.00000000</i>
   </separator>
  </separator>
  <separator name="grids" >
   <i type="int" name="NGX">   120</i>
   <i type="int" name="NGY">   120</i>
   <i type="int" name="NGZ">   120</i>
   <i type="int" name="NGXF">   240</i>
   <i type="int" name="NGYF">   240</i>
   <i type="int" name="NGZF">   240</i>
   <i type="logical" name="ADDGRID"> T  </i>
  </separator>
  <separator name="ionic" >
   <i type="int" name="NSW">     0</i>
   <i type="int" name="IBRION">    -1</i>
   <i type="int" name="MDALGO">     0</i>
   <i type="int" name="ISIF">     2</i>
   <i name="PSTRESS">      0.00000000</i>
   <i name="EDIFFG">      0.00000010</i>
   <i type="int" name="NFREE">     0</i>
   <i name="POTIM">      0.50000000</i>
   <i name="SMASS">     -3.00000000</i>
   <i name="SCALEE">      1.00000000</i>
  </separator>
  <separator name="ionic md" >
   <i name="TEBEG">      0.00010000</i>
   <i name="TEEND">      0.00010000</i>
   <i type="int" name="NBLOCK">     1</i>
   <i type="int" name="KBLOCK">     1</i>
   <i type="int" name="NPACO">   256</i>
   <i name="APACO">     16.00000000</i>
  </separator>
  <separator name="symmetry" >
   <i type="int" name="ISYM">     2</i>
   <i name="SYMPREC">      0.00001000</i>
  </separator>
  <separator name="dos" >
   <i type="int" name="LORBIT">     0</i>
   <v name="RWIGS">     -1.00000000</v>
   <i type="int" name="NEDOS">   301</i>
   <i name="EMIN">     10.00000000</i>
   <i name="EMAX">    -10.00000000</i>
   <i name="EFERMI">      0.00000000</i>
  </separator>
  <separator name="writing" >
   <i type="int" name="NWRITE">     2</i>
   <i type="logical" name="LWAVE"> F  </i>
   <i type="logical" name="LDOWNSAMPLE"> F  </i>
   <i type="logical" name="LCHARG"> F  </i>
   <i type="logical" name="LPARD"> F  </i>
   <i type="logical" name="LVTOT"> F  </i>
   <i type="logical" name="LVHAR"> F  </i>
   <i type="logical" name="LELF"> F  </i>
   <i type="logical" name="LOPTICS"> F  </i>
   <v name="STM">      0.00000000      0.00000000      0.00000000      0.00000000      0.00000000      0.00000000      0.00000000</v>
  </separator>
  <separator name="performance" >
   <i type="int" name="NPAR">     2</i>
   <i type="int" name="NSIM">     4</i>
   <i type="int" name="NBLK">    -1</i>
   <i type="logical" name="LPLANE"> T  </i>
   <i type="logical" name="LSCALAPACK"> T  </i>
   <i type="logical" name="LSCAAWARE"> F  </i>
   <i type="logical" name="LSCALU"> F  </i>
   <i type="logical" name="LASYNC"> F  </i>
   <i type="logical" name="LORBITALREAL"> F  </i>
  </separator>
  <separator name="miscellaneous" >
   <i type="int" name="IDIOT">     3</i>
   <i type="int" name="ISPECIAL">     0</i>
   <i type="logical" name="LMUSIC"> F  </i>
   <v name="POMASS">     28.08500000</v>
   <v name="DARWINR">      0.00000000</v>
   <v name="DARWINV">      1.00000000</v>
   <i type="logical" name="LCORR"> T  </i>
  </separator>
  <i type="logical" name="GGA_COMPAT"> T  </i>
  <i type="logical" name="LBERRY"> F  </i>
  <i type="int" name="ICORELEVEL">     0</i>
  <i type="logical" name="LDAU"> F  </i>
  <i type="int" name="I_CONSTRAINED_M">     0</i>
  <separator name="electronic exchange-correlation" >
   <i type="string" name="GGA">--</i>
   <i type="int" name="VOSKOWN">     0</i>
   <i type="logical" name="LHFCALC"> F  </i>
   <i type="string" name="PRECFOCK"></i>
   <i type="logical" name="LSYMGRAD"> F  </i>
   <i type="logical" name="LHFONE"> F  </i>
   <i type="logical" name="LRHFCALC"> F  </i>
   <i type="logical" name="LTHOMAS"> F  </i>
   <i type="logical" name="LMODELHF"> F  </i>
   <i name="ENCUT4O">     -1.00000000</i>
   <i type="int" name="EXXOEP">     0</i>
   <i type="int" name="FOURORBIT">     0</i>
   <i name="AEXX">      0.00000000</i>
   <i name="HFALPHA">      0.00000000</i>
   <i name="MCALPHA">      0.00000000</i>
   <i name="ALDAX">      1.00000000</i>
   <i name="AGGAX">      1.00000000</i>
   <i name="ALDAC">      1.00000000</i>
   <i name="AGGAC">      1.00000000</i>
   <i type="int" name="NKREDX">     1</i>
   <i type="int" name="NKREDY">     1</i>
   <i type="int" name="NKREDZ">     1</i>
   <i type="logical" name="SHIFTRED"> F  </i>
   <i type="logical" name="ODDONLY"> F  </i>
   <i type="logical" name="EVENONLY"> F  </i>
   <i type="int" name="LMAXFOCK">     0</i>
   <i type="int" name="NMAXFOCKAE">     0</i>
   <i type="logical" name="LFOCKAEDFT"> F  </i>
   <i name="HFSCREEN">      0.00000000</i>
   <i name="HFSCREENC">      0.00000000</i>
   <i type="int" name="NBANDSGWLOW">     0</i>
  </separator>
  <separator name="vdW DFT" >
   <i type="logical" name="LUSE_VDW"> F  </i>
   <i name="Zab_VDW">     -0.84910000</i>
   <i name="PARAM1">      0.12340000</i>
   <i name="PARAM2">      1.00000000</i>
   <i name="PARAM3">      0.00000000</i>
  </separator>
  <separator name="model GW" >
   <i type="int" name="MODEL_GW">     0</i>
   <i name="MODEL_EPS0">     12.26607635</i>
   <i name="MODEL_ALPHA">      1.00000000</i>
  </separator>
  <separator name="linear response parameters" >
   <i type="logical" name="LEPSILON"> F  </i>
   <i type="logical" name="LRPA"> F  </i>
   <i type="logical" name="LNABLA"> F  </i>
   <i type="logical" name="LVEL"> F  </i>
   <i type="int" name="KINTER">     0</i>
   <i name="CSHIFT">      0.10000000</i>
   <i name="OMEGAMAX">     -1.00000000</i>
   <i name="DEG_THRESHOLD">      0.00200000</i>
   <i name="RTIME">     -0.10000000</i>
   <i name="WPLASMAI">      0.00000000</i>
   <v name="DFIELD">      0.00000000      0.00000000      0.00000000</v>
   <v name="WPLASMA">      0.00000000      0.00000000      0.00000000      0.00000000      0.00000000      0.00000000      0.00000000      0.00000000      0.00000000</v>
  </separator>
  <separator name="orbital magnetization" >
   <i type="logical" name="NUCIND"> F  </i>
   <v name="MAGPOS">      0.00000000      0.00000000      0.00000000</v>
   <i type="logical" name="LNICSALL"> T  </i>
   <i type="logical" name="ORBITALMAG"> F  </i>
   <i type="logical" name="LMAGBLOCH"> F  </i>
   <i type="logical" name="LCHIMAG"> F  </i>
   <i type="logical" name="LGAUGE"> T  </i>
   <i type="int" name="MAGATOM">     0</i>
   <v name="MAGDIPOL">      0.00000000      0.00000000      0.00000000</v>
   <v name="AVECCONST">      0.00000000      0.00000000      0.00000000</v>
  </separator>
  <separator name="response functions" >
   <i type="logical" name="LADDER"> F  </i>
   <i type="logical" name="LRPAFORCE"> F  </i>
   <i type="logical" name="LFXC"> F  </i>
   <i type="logical" name="LHARTREE"> T  </i>
   <i type="int" name="IBSE">     0</i>
   <v type="int" name="KPOINT">    -1     0     0     0</v>
   <i type="logical" name="LTCTE"> F  </i>
   <i type="logical" name="LTETE"> F  </i>
   <i type="logical" name="LTRIPLET"> F  </i>
   <i type="logical" name="LFXCEPS"> F  </i>
   <i type="logical" name="LFXHEG"> F  </i>
   <i type="int" name="NATURALO">     2</i>
   <i type="logical" name="L2ORDER"> F  </i>
   <i type="logical" name="LMP2LT"> F  </i>
   <i type="logical" name="LUSEW"> F  </i>
   <i name="ENCUTGW">     -2.00000000</i>
   <i name="ENCUTGWSOFT">     -2.00000000</i>
   <i name="ENCUTLF">     -1.00000000</i>
   <i type="int" name="LMAXMP2">    -1</i>
   <i name="SCISSOR">      0.00000000</i>
   <i type="int" name="NOMEGA">     0</i>
   <i type="int" name="NOMEGAR">     0</i>
   <i type="int" name="NBANDSGW">    -1</i>
   <i type="int" name="NBANDSO">    -1</i>
   <i type="int" name="NBANDSV">    -1</i>
   <i type="int" name="NELM">   120</i>
   <i type="int" name="NELMHF">     1</i>
   <i type="int" name="DIM">     3</i>
   <i type="int" name="ANTIRES">     0</i>
   <i name="OMEGAMAX">    -30.00000000</i>
   <i name="OMEGAMIN">    -30.00000000</i>
   <i name="OMEGATL">   -200.00000000</i>
   <i type="int" name="OMEGAGRID">   140</i>
   <i name="CSHIFT">     -0.10000000</i>
   <i type="logical" name="SELFENERGY"> F  </i>
   <i type="logical" name="LSPECTRAL"> F  </i>
   <i type="logical" name="LSPECTRALGW"> F  </i>
   <i type="logical" name="LSINGLES"> F  </i>
   <i type="logical" name="LFERMIGW"> F  </i>
   <i type="logical" name="ODDONLYGW"> F  </i>
   <i type="logical" name="EVENONLYGW"> F  </i>
   <i type="int" name="NKREDLFX">     1</i>
   <i type="int" name="NKREDLFY">     1</i>
   <i type="int" name="NKREDLFZ">     1</i>
   <i type="int" name="MAXMEM">  2800</i>
   <i type="int" name="TELESCOPE">     0</i>
   <i type="int" name="TAUPAR">     1</i>
   <i type="int" name="OMEGAPAR">    -1</i>
   <i name="LAMBDA">      1.00000000</i>
  </separator>
  <separator name="External order field" >
   <i name="OFIELD_KAPPA">      0.00000000</i>
   <v name="OFIELD_K">      0.00000000      0.00000000      0.00000000</v>
   <i name="OFIELD_Q6_NEAR">      0.00000000</i>
   <i name="OFIELD_Q6_FAR">      0.00000000</i>
   <i name="OFIELD_A">      0.00000000</i>
  </separator>
 </parameters>
 <atominfo>
  <atoms>     128 </atoms>
  <types>       1 </types>
  <array name="atoms" >
   <dimension dim="1">ion</dimension>
   <field type="string">element</field>
   <field type="int">atomtype</field>
   <set>
    <rc><c>Si</c><c>   1</c></rc>
    <rc><c>Si</c><c>   1</c></rc>
    <rc><c>Si</c><c>   1</c></rc>
    <rc><c>Si</c><c>   1</c></rc>
    <rc><c>Si</c><c>   1</c></rc>
    <rc><c>Si</c><c>   1</c></rc>
    <rc><c>Si</c><c>   1</c></rc>
    <rc><c>Si</c><c>   1</c></rc>
    <rc><c>Si</c><c>   1</c></rc>
    <rc><c>Si</c><c>   1</c></rc>
    <rc><c>Si</c><c>   1</c></rc>
    <rc><c>Si</c><c>   1</c></rc>
    <rc><c>Si</c><c>   1</c></rc>
    <rc><c>Si</c><c>   1</c></rc>
    <rc><c>Si</c><c>   1</c></rc>
    <rc><c>Si</c><c>   1</c></rc>
    <rc><c>Si</c><c>   1</c></rc>
    <rc><c>Si</c><c>   1</c></rc>
    <rc><c>Si</c><c>   1</c></rc>
    <rc><c>Si</c><c>   1</c></rc>
    <rc><c>Si</c><c>   1</c></rc>
    <rc><c>Si</c><c>   1</c></rc>
    <rc><c>Si</c><c>   1</c></rc>
    <rc><c>Si</c><c>   1</c></rc>
    <rc><c>Si</c><c>   1</c></rc>
    <rc><c>Si</c><c>   1</c></rc>
    <rc><c>Si</c><c>   1</c></rc>
    <rc><c>Si</c><c>   1</c></rc>
    <rc><c>Si</c><c>   1</c></rc>
    <rc><c>Si</c><c>   1</c></rc>
    <rc><c>Si</c><c>   1</c></rc>
    <rc><c>Si</c><c>   1</c></rc>
    <rc><c>Si</c><c>   1</c></rc>
    <rc><c>Si</c><c>   1</c></rc>
    <rc><c>Si</c><c>   1</c></rc>
    <rc><c>Si</c><c>   1</c></rc>
    <rc><c>Si</c><c>   1</c></rc>
    <rc><c>Si</c><c>   1</c></rc>
    <rc><c>Si</c><c>   1</c></rc>
    <rc><c>Si</c><c>   1</c></rc>
    <rc><c>Si</c><c>   1</c></rc>
    <rc><c>Si</c><c>   1</c></rc>
    <rc><c>Si</c><c>   1</c></rc>
    <rc><c>Si</c><c>   1</c></rc>
    <rc><c>Si</c><c>   1</c></rc>
    <rc><c>Si</c><c>   1</c></rc>
    <rc><c>Si</c><c>   1</c></rc>
    <rc><c>Si</c><c>   1</c></rc>
    <rc><c>Si</c><c>   1</c></rc>
    <rc><c>Si</c><c>   1</c></rc>
    <rc><c>Si</c><c>   1</c></rc>
    <rc><c>Si</c><c>   1</c></rc>
    <rc><c>Si</c><c>   1</c></rc>
    <rc><c>Si</c><c>   1</c></rc>
    <rc><c>Si</c><c>   1</c></rc>
    <rc><c>Si</c><c>   1</c></rc>
    <rc><c>Si</c><c>   1</c></rc>
    <rc><c>Si</c><c>   1</c></rc>
    <rc><c>Si</c><c>   1</c></rc>
    <rc><c>Si</c><c>   1</c></rc>
    <rc><c>Si</c><c>   1</c></rc>
    <rc><c>Si</c><c>   1</c></rc>
    <rc><c>Si</c><c>   1</c></rc>
    <rc><c>Si</c><c>   1</c></rc>
    <rc><c>Si</c><c>   1</c></rc>
    <rc><c>Si</c><c>   1</c></rc>
    <rc><c>Si</c><c>   1</c></rc>
    <rc><c>Si</c><c>   1</c></rc>
    <rc><c>Si</c><c>   1</c></rc>
    <rc><c>Si</c><c>   1</c></rc>
    <rc><c>Si</c><c>   1</c></rc>
    <rc><c>Si</c><c>   1</c></rc>
    <rc><c>Si</c><c>   1</c></rc>
    <rc><c>Si</c><c>   1</c></rc>
    <rc><c>Si</c><c>   1</c></rc>
    <rc><c>Si</c><c>   1</c></rc>
    <rc><c>Si</c><c>   1</c></rc>
    <rc><c>Si</c><c>   1</c></rc>
    <rc><c>Si</c><c>   1</c></rc>
    <rc><c>Si</c><c>   1</c></rc>
    <rc><c>Si</c><c>   1</c></rc>
    <rc><c>Si</c><c>   1</c></rc>
    <rc><c>Si</c><c>   1</c></rc>
    <rc><c>Si</c><c>   1</c></rc>
    <rc><c>Si</c><c>   1</c></rc>
    <rc><c>Si</c><c>   1</c></rc>
    <rc><c>Si</c><c>   1</c></rc>
    <rc><c>Si</c><c>   1</c></rc>
    <rc><c>Si</c><c>   1</c></rc>
    <rc><c>Si</c><c>   1</c></rc>
    <rc><c>Si</c><c>   1</c></rc>
    <rc><c>Si</c><c>   1</c></rc>
    <rc><c>Si</c><c>   1</c></rc>
    <rc><c>Si</c><c>   1</c></rc>
    <rc><c>Si</c><c>   1</c></rc>
    <rc><c>Si</c><c>   1</c></rc>
    <rc><c>Si</c><c>   1</c></rc>
    <rc><c>Si</c><c>   1</c></rc>
    <rc><c>Si</c><c>   1</c></rc>
    <rc><c>Si</c><c>   1</c></rc>
    <rc><c>Si</c><c>   1</c></rc>
    <rc><c>Si</c><c>   1</c></rc>
    <rc><c>Si</c><c>   1</c></rc>
    <rc><c>Si</c><c>   1</c></rc>
    <rc><c>Si</c><c>   1</c></rc>
    <rc><c>Si</c><c>   1</c></rc>
    <rc><c>Si</c><c>   1</c></rc>
    <rc><c>Si</c><c>   1</c></rc>
    <rc><c>Si</c><c>   1</c></rc>
    <rc><c>Si</c><c>   1</c></rc>
    <rc><c>Si</c><c>   1</c></rc>
    <rc><c>Si</c><c>   1</c></rc>
    <rc><c>Si</c><c>   1</c></rc>
    <rc><c>Si</c><c>   1</c></rc>
    <rc><c>Si</c><c>   1</c></rc>
    <rc><c>Si</c><c>   1</c></rc>
    <rc><c>Si</c><c>   1</c></rc>
    <rc><c>Si</c><c>   1</c></rc>
    <rc><c>Si</c><c>   1</c></rc>
    <rc><c>Si</c><c>   1</c></rc>
    <rc><c>Si</c><c>   1</c></rc>
    <rc><c>Si</c><c>   1</c></rc>
    <rc><c>Si</c><c>   1</c></rc>
    <rc><c>Si</c><c>   1</c></rc>
    <rc><c>Si</c><c>   1</c></rc>
    <rc><c>Si</c><c>   1</c></rc>
    <rc><c>Si</c><c>   1</c></rc>
    <rc><c>Si</c><c>   1</c></rc>
   </set>
  </array>
  <array name="atomtypes" >
   <dimension dim="1">type</dimension>
   <field type="int">atomspertype</field>
   <field type="string">element</field>
   <field>mass</field>
   <field>valence</field>
   <field type="string">pseudopotential</field>
   <set>
    <rc><c> 128</c><c>Si</c><c>     28.08500000</c><c>      4.00000000</c><c> PAW_PBE Si 05Jan2001                   </c></rc>
   </set>
  </array>
 </atominfo>
 <structure name="initialpos" >
  <crystal>
   <varray name="basis" >
    <v>       0.00000000      10.93733369      10.93733369 </v>
    <v>      10.93733369       0.00000000      10.93733369 </v>
    <v>      10.93733369      10.93733369       0.00000000 </v>
   </varray>
   <i name="volume">   2616.76295363 </i>
   <varray name="rec_basis" >
    <v>      -0.04571498       0.04571498       0.04571498 </v>
    <v>       0.04571498      -0.04571498       0.04571498 </v>
    <v>       0.04571498       0.04571498      -0.04571498 </v>
   </varray>
  </crystal>
  <varray name="positions" >
   <v>       0.98834161       0.00075144       0.01585161 </v>
   <v>       0.26834655       0.99202476       0.00073253 </v>
   <v>       0.49817747       0.99605699       0.99529192 </v>
   <v>       0.74231931       0.00774228       0.00165114 </v>
   <v>       0.99516725       0.25513277       0.99074429 </v>
   <v>       0.26453401       0.24301887       0.99349173 </v>
   <v>       0.49752061       0.24873715       0.00503341 </v>
   <v>       0.74788260       0.24544029       0.00045662 </v>
   <v>       0.00802845       0.49625252       0.00154939 </v>
   <v>       0.24581549       0.49784764       0.00344595 </v>
   <v>       0.49188678       0.50811130       0.00499050 </v>
   <v>       0.75293227       0.49552074       0.00427941 </v>
   <v>       0.99985508       0.74435767       0.00610985 </v>
   <v>       0.24220721       0.74694921       0.99788594 </v>
   <v>       0.49153091       0.74834965       0.01031390 </v>
   <v>       0.73715096       0.75490059       0.00459262 </v>
   <v>       0.01503826       0.99160170       0.24434674 </v>
   <v>       0.24115557       0.00956025       0.24953106 </v>
   <v>       0.50581465       0.99969590       0.23835863 </v>
   <v>       0.74135879       0.99557668       0.25764537 </v>
   <v>       0.99571695       0.24688542       0.26520537 </v>
   <v>       0.24869642       0.26112492       0.24863659 </v>
   <v>       0.49781745       0.25278638       0.25061261 </v>
   <v>       0.74839498       0.25122378       0.25451734 </v>
   <v>       0.99274627       0.50989513       0.24811129 </v>
   <v>       0.25576542       0.48714037       0.25731644 </v>
   <v>       0.49161979       0.50150645       0.25023242 </v>
   <v>       0.75142057       0.50109621       0.25093315 </v>
   <v>       0.00821162       0.75046996       0.24474333 </v>
   <v>       0.24454493       0.74784651       0.25412934 </v>
   <v>       0.50582119       0.74273870       0.25233030 </v>
   <v>       0.74544407       0.75182214       0.25303349 </v>
   <v>       0.99544513       0.00904011       0.49326085 </v>
   <v>       0.25693022       0.99956322       0.49751033 </v>
   <v>       0.49791962       0.99899789       0.50566798 </v>
   <v>       0.75302230       0.00351082       0.50185997 </v>
   <v>       0.99483771       0.24174143       0.51008682 </v>
   <v>       0.23916301       0.25505219       0.50737107 </v>
   <v>       0.50660227       0.23975958       0.50310594 </v>
   <v>       0.75724500       0.23723800       0.48952179 </v>
   <v>       0.99772756       0.48725818       0.50327710 </v>
   <v>       0.23871177       0.50384620       0.49649832 </v>
   <v>       0.50783719       0.50934262       0.50127738 </v>
   <v>       0.74423644       0.49939799       0.50717766 </v>
   <v>       0.99784146       0.74927898       0.50211268 </v>
   <v>       0.24786273       0.75066635       0.49576734 </v>
   <v>       0.50330095       0.75509448       0.49463893 </v>
   <v>       0.75385116       0.75061419       0.49035467 </v>
   <v>       0.99990443       0.99148731       0.74968474 </v>
   <v>       0.24132669       0.00663602       0.75464487 </v>
   <v>       0.50148366       0.99703559       0.74932505 </v>
   <v>       0.75088285       0.00397587       0.74076763 </v>
   <v>       0.99660864       0.23531300       0.77073178 </v>
   <v>       0.25233649       0.25104782       0.75306099 </v>
   <v>       0.49053320       0.24764861       0.75302918 </v>
   <v>       0.76109240       0.24336982       0.76339026 </v>
   <v>       0.99009239       0.49776888       0.75819298 </v>
   <v>       0.23661406       0.50575065       0.74547179 </v>
   <v>       0.49313247       0.49851003       0.74688297 </v>
   <v>       0.75762251       0.50156645       0.74087178 </v>
   <v>       0.99822495       0.75004738       0.74412116 </v>
   <v>       0.24947436       0.75777724       0.74516214 </v>
   <v>       0.50038688       0.74556152       0.74790631 </v>
   <v>       0.74820608       0.74850913       0.74777789 </v>
   <v>       0.06904764       0.05881729       0.06033124 </v>
   <v>       0.32124599       0.04903927       0.06724534 </v>
   <v>       0.56783072       0.05506976       0.06715787 </v>
   <v>       0.80979753       0.06077980       0.06870020 </v>
   <v>       0.06620603       0.31166578       0.06128270 </v>
   <v>       0.31396881       0.31232358       0.06099830 </v>
   <v>       0.56862094       0.32003519       0.05412143 </v>
   <v>       0.80419478       0.32704111       0.06976896 </v>
   <v>       0.06146022       0.55510676       0.06366304 </v>
   <v>       0.31179825       0.55730884       0.07060782 </v>
   <v>       0.57005934       0.57255707       0.04569560 </v>
   <v>       0.81888508       0.56120067       0.05794878 </v>
   <v>       0.06515869       0.79832359       0.07038627 </v>
   <v>       0.31561799       0.80804997       0.05371037 </v>
   <v>       0.55840305       0.80678298       0.07150482 </v>
   <v>       0.80938940       0.82681205       0.04692081 </v>
   <v>       0.06566007       0.05730000       0.31785170 </v>
   <v>       0.32371412       0.06013640       0.30162589 </v>
   <v>       0.55295705       0.06932318       0.32463245 </v>
   <v>       0.79989456       0.07343158       0.31938522 </v>
   <v>       0.06654900       0.31506709       0.30593360 </v>
   <v>       0.31766426       0.30484583       0.32157565 </v>
   <v>       0.56633679       0.31801721       0.31437419 </v>
   <v>       0.81547374       0.29861856       0.31429016 </v>
   <v>       0.05535664       0.56590201       0.31036188 </v>
   <v>       0.31425724       0.55250408       0.31827509 </v>
   <v>       0.57134449       0.55662503       0.31333607 </v>
   <v>       0.81729002       0.55702999       0.31683992 </v>
   <v>       0.06541464       0.81869724       0.30593273 </v>
   <v>       0.29991668       0.81099191       0.30651346 </v>
   <v>       0.57503922       0.81632962       0.30324650 </v>
   <v>       0.80960586       0.82167686       0.30809459 </v>
   <v>       0.06103785       0.06261078       0.57193591 </v>
   <v>       0.30703388       0.06129423       0.56742829 </v>
   <v>       0.56798956       0.06870010       0.53780890 </v>
   <v>       0.82020629       0.06126047       0.56683337 </v>
   <v>       0.05531378       0.30430783       0.57498491 </v>
   <v>       0.29664614       0.31893926       0.56997074 </v>
   <v>       0.56383566       0.32103293       0.57148946 </v>
   <v>       0.81671315       0.32206429       0.55874643 </v>
   <v>       0.07104028       0.57449009       0.56153838 </v>
   <v>       0.30382002       0.55396448       0.56494052 </v>
   <v>       0.56866872       0.55389985       0.57066313 </v>
   <v>       0.82188265       0.56262646       0.56145682 </v>
   <v>       0.06240374       0.80929530       0.55915526 </v>
   <v>       0.30801582       0.82263369       0.55391851 </v>
   <v>       0.55198488       0.80954271       0.57229614 </v>
   <v>       0.80086916       0.82462458       0.55108334 </v>
   <v>       0.06134500       0.05346947       0.80894809 </v>
   <v>       0.31119833       0.06544896       0.81477778 </v>
   <v>       0.56626343       0.06369262       0.81587881 </v>
   <v>       0.81508194       0.06475773       0.80862447 </v>
   <v>       0.06512848       0.30741412       0.81657644 </v>
   <v>       0.31136835       0.31024521       0.82147691 </v>
   <v>       0.55933221       0.31669095       0.81098003 </v>
   <v>       0.80550035       0.31871693       0.81827805 </v>
   <v>       0.06235042       0.56549611       0.81090890 </v>
   <v>       0.31404575       0.55931128       0.81134530 </v>
   <v>       0.56097120       0.56532014       0.80146455 </v>
   <v>       0.81250928       0.57195143       0.80418890 </v>
   <v>       0.06888459       0.81036694       0.81455806 </v>
   <v>       0.31024639       0.81814938       0.81521847 </v>
   <v>       0.55491708       0.80931957       0.82150191 </v>
   <v>       0.81703928       0.80214058       0.82101944 </v>
  </varray>
 </structure>
 <calculation>
  <scstep>
   <time name="dav">   69.50   69.52</time>
   <time name="total">   70.50   70.53</time>
   <energy>
    <i name="alphaZ">    210.77028614 </i>
    <i name="ewald"> -14468.51731858 </i>
    <i name="hartreedc">   -754.73114227 </i>
    <i name="XCdc">  -1195.19427125 </i>
    <i name="pawpsdc">   4221.13331941 </i>
    <i name="pawaedc">  -1969.18571412 </i>
    <i name="eentropy">     -0.00215274 </i>
    <i name="bandstr">   2149.82271294 </i>
    <i name="atom">  13192.48085998 </i>
    <i name="e_fr_energy">   1386.57657952 </i>
    <i name="e_wo_entrp">   1386.57873226 </i>
    <i name="e_0_energy">   1386.57765589 </i>
   </energy>
  </scstep>
  <scstep>
   <time name="dav">   79.15   79.17</time>
   <time name="total">   79.16   79.18</time>
   <energy>
    <i name="e_fr_energy">   -535.85572693 </i>
    <i name="e_wo_entrp">   -535.85565515 </i>
    <i name="e_0_energy">   -535.85569104 </i>
   </energy>
  </scstep>
  <scstep>
   <time name="dav">   81.00   81.02</time>
   <time name="total">   81.00   81.03</time>
   <energy>
    <i name="e_fr_energy">   -685.03184735 </i>
    <i name="e_wo_entrp">   -685.03184735 </i>
    <i name="e_0_energy">   -685.03184735 </i>
   </energy>
  </scstep>
  <scstep>
   <time name="dav">   79.66   79.68</time>
   <time name="total">   79.66   79.68</time>
   <energy>
    <i name="e_fr_energy">   -689.23006144 </i>
    <i name="e_wo_entrp">   -689.23006144 </i>
    <i name="e_0_energy">   -689.23006144 </i>
   </energy>
  </scstep>
  <scstep>
   <time name="dav">   81.27   81.29</time>
   <time name="total">   84.45   84.48</time>
   <energy>
    <i name="e_fr_energy">   -689.37681641 </i>
    <i name="e_wo_entrp">   -689.37681641 </i>
    <i name="e_0_energy">   -689.37681641 </i>
   </energy>
  </scstep>
  <scstep>
   <time name="dav">   76.49   76.52</time>
   <time name="total">   80.68   80.70</time>
   <energy>
    <i name="e_fr_energy">   -680.78016027 </i>
    <i name="e_wo_entrp">   -680.78016027 </i>
    <i name="e_0_energy">   -680.78016027 </i>
   </energy>
  </scstep>
  <scstep>
   <time name="dav">   76.23   76.25</time>
   <time name="total">   80.40   80.42</time>
   <energy>
    <i name="e_fr_energy">   -677.22826325 </i>
    <i name="e_wo_entrp">   -677.22826325 </i>
    <i name="e_0_energy">   -677.22826325 </i>
   </energy>
  </scstep>
  <scstep>
   <time name="dav">   76.04   76.05</time>
   <time name="total">   80.20   80.22</time>
   <energy>
    <i name="e_fr_energy">   -677.28125364 </i>
    <i name="e_wo_entrp">   -677.28125364 </i>
    <i name="e_0_energy">   -677.28125364 </i>
   </energy>
  </scstep>
  <scstep>
   <time name="dav">   79.13   79.14</time>
   <time name="total">   83.29   83.31</time>
   <energy>
    <i name="e_fr_energy">   -677.30381410 </i>
    <i name="e_wo_entrp">   -677.30381410 </i>
    <i name="e_0_energy">   -677.30381410 </i>
   </energy>
  </scstep>
  <scstep>
   <time name="dav">   77.80   77.81</time>
   <time name="total">   81.97   81.99</time>
   <energy>
    <i name="e_fr_energy">   -677.30636333 </i>
    <i name="e_wo_entrp">   -677.30636333 </i>
    <i name="e_0_energy">   -677.30636333 </i>
   </energy>
  </scstep>
  <scstep>
   <time name="dav">   75.82   75.85</time>
   <time name="total">   79.98   80.00</time>
   <energy>
    <i name="e_fr_energy">   -677.30783594 </i>
    <i name="e_wo_entrp">   -677.30783594 </i>
    <i name="e_0_energy">   -677.30783594 </i>
   </energy>
  </scstep>
  <scstep>
   <time name="dav">   78.93   78.95</time>
   <time name="total">   83.06   83.09</time>
   <energy>
    <i name="e_fr_energy">   -677.30788947 </i>
    <i name="e_wo_entrp">   -677.30788947 </i>
    <i name="e_0_energy">   -677.30788947 </i>
   </energy>
  </scstep>
  <scstep>
   <time name="dav">   75.41   75.42</time>
   <time name="total">   79.57   79.59</time>
   <energy>
    <i name="e_fr_energy">   -677.30791992 </i>
    <i name="e_wo_entrp">   -677.30791992 </i>
    <i name="e_0_energy">   -677.30791992 </i>
   </energy>
  </scstep>
  <scstep>
   <time name="dav">   79.06   79.08</time>
   <time name="total">   83.22   83.23</time>
   <energy>
    <i name="e_fr_energy">   -677.30792320 </i>
    <i name="e_wo_entrp">   -677.30792320 </i>
    <i name="e_0_energy">   -677.30792320 </i>
   </energy>
  </scstep>
  <scstep>
   <time name="dav">   78.40   78.43</time>
   <time name="total">   82.55   82.58</time>
   <energy>
    <i name="e_fr_energy">   -677.30792724 </i>
    <i name="e_wo_entrp">   -677.30792724 </i>
    <i name="e_0_energy">   -677.30792724 </i>
   </energy>
  </scstep>
  <scstep>
   <time name="dav">   78.67   78.70</time>
   <time name="total">   82.82   82.85</time>
   <energy>
    <i name="e_fr_energy">   -677.30792665 </i>
    <i name="e_wo_entrp">   -677.30792665 </i>
    <i name="e_0_energy">   -677.30792665 </i>
   </energy>
  </scstep>
  <scstep>
   <time name="dav">   56.65   56.66</time>
   <time name="total">   60.75   60.77</time>
   <energy>
    <i name="e_fr_energy">   -677.30792652 </i>
    <i name="e_wo_entrp">   -677.30792652 </i>
    <i name="e_0_energy">   -677.30792652 </i>
   </energy>
  </scstep>
  <scstep>
   <time name="dav">   51.35   51.37</time>
   <time name="total">   55.56   55.58</time>
   <energy>
    <i name="e_fr_energy">   -677.30792666 </i>
    <i name="e_wo_entrp">   -677.30792666 </i>
    <i name="e_0_energy">   -677.30792666 </i>
   </energy>
  </scstep>
  <scstep>
   <time name="dav">   50.43   50.44</time>
   <time name="total">   54.54   54.55</time>
   <energy>
    <i name="e_fr_energy">   -677.30792661 </i>
    <i name="e_wo_entrp">   -677.30792661 </i>
    <i name="e_0_energy">   -677.30792661 </i>
   </energy>
  </scstep>
  <scstep>
   <time name="dav">   50.02   50.03</time>
   <time name="total">   51.01   51.03</time>
   <energy>
    <i name="alphaZ">    210.77028614 </i>
    <i name="ewald"> -14468.51731858 </i>
    <i name="hartreedc">  -1000.66137060 </i>
    <i name="XCdc">  -1155.66708486 </i>
    <i name="pawpsdc">   4735.43684538 </i>
    <i name="pawaedc">  -2497.28832170 </i>
    <i name="eentropy">     -0.00000000 </i>
    <i name="bandstr">    306.13817762 </i>
    <i name="atom">  13192.48085998 </i>
    <i name="e_fr_energy">   -677.30792662 </i>
    <i name="e_wo_entrp">   -677.30792662 </i>
    <i name="e_0_energy">   -677.30792662 </i>
   </energy>
  </scstep>
  <structure>
   <crystal>
    <varray name="basis" >
     <v>       0.00000000      10.93733369      10.93733369 </v>
     <v>      10.93733369       0.00000000      10.93733369 </v>
     <v>      10.93733369      10.93733369       0.00000000 </v>
    </varray>
    <i name="volume">   2616.76295363 </i>
    <varray name="rec_basis" >
     <v>      -0.04571498       0.04571498       0.04571498 </v>
     <v>       0.04571498      -0.04571498       0.04571498 </v>
     <v>       0.04571498       0.04571498      -0.04571498 </v>
    </varray>
   </crystal>
   <varray name="positions" >
    <v>       0.98834161       0.00075144       0.01585161 </v>
    <v>       0.26834655       0.99202476       0.00073253 </v>
    <v>       0.49817747       0.99605699       0.99529192 </v>
    <v>       0.74231931       0.00774228       0.00165114 </v>
    <v>       0.99516725       0.25513277       0.99074429 </v>
    <v>       0.26453401       0.24301887       0.99349173 </v>
    <v>       0.49752061       0.24873715       0.00503341 </v>
    <v>       0.74788260       0.24544029       0.00045662 </v>
    <v>       0.00802845       0.49625252       0.00154939 </v>
    <v>       0.24581549       0.49784764       0.00344595 </v>
    <v>       0.49188678       0.50811130       0.00499050 </v>
    <v>       0.75293227       0.49552074       0.00427941 </v>
    <v>       0.99985508       0.74435767       0.00610985 </v>
    <v>       0.24220721       0.74694921       0.99788594 </v>
    <v>       0.49153091       0.74834965       0.01031390 </v>
    <v>       0.73715096       0.75490059       0.00459262 </v>
    <v>       0.01503826       0.99160170       0.24434674 </v>
    <v>       0.24115557       0.00956025       0.24953106 </v>
    <v>       0.50581465       0.99969590       0.23835863 </v>
    <v>       0.74135879       0.99557668       0.25764537 </v>
    <v>       0.99571695       0.24688542       0.26520537 </v>
    <v>       0.24869642       0.26112492       0.24863659 </v>
    <v>       0.49781745       0.25278638       0.25061261 </v>
    <v>       0.74839498       0.25122378       0.25451734 </v>
    <v>       0.99274627       0.50989513       0.24811129 </v>
    <v>       0.25576542       0.48714037       0.25731644 </v>
    <v>       0.49161979       0.50150645       0.25023242 </v>
    <v>       0.75142057       0.50109621       0.25093315 </v>
    <v>       0.00821162       0.75046996       0.24474333 </v>
    <v>       0.24454493       0.74784651       0.25412934 </v>
    <v>       0.50582119       0.74273870       0.25233030 </v>
    <v>       0.74544407       0.75182214       0.25303349 </v>
    <v>       0.99544513       0.00904011       0.49326085 </v>
    <v>       0.25693022       0.99956322       0.49751033 </v>
    <v>       0.49791962       0.99899789       0.50566798 </v>
    <v>       0.75302230       0.00351082       0.50185997 </v>
    <v>       0.99483771       0.24174143       0.51008682 </v>
    <v>       0.23916301       0.25505219       0.50737107 </v>
    <v>       0.50660227       0.23975958       0.50310594 </v>
    <v>       0.75724500       0.23723800       0.48952179 </v>
    <v>       0.99772756       0.48725818       0.50327710 </v>
    <v>       0.23871177       0.50384620       0.49649832 </v>
    <v>       0.50783719       0.50934262       0.50127738 </v>
    <v>       0.74423644       0.49939799       0.50717766 </v>
    <v>       0.99784146       0.74927898       0.50211268 </v>
    <v>       0.24786273       0.75066635       0.49576734 </v>
    <v>       0.50330095       0.75509448       0.49463893 </v>
    <v>       0.75385116       0.75061419       0.49035467 </v>
    <v>       0.99990443       0.99148731       0.74968474 </v>
    <v>       0.24132669       0.00663602       0.75464487 </v>
    <v>       0.50148366       0.99703559       0.74932505 </v>
    <v>       0.75088285       0.00397587       0.74076763 </v>
    <v>       0.99660864       0.23531300       0.77073178 </v>
    <v>       0.25233649       0.25104782       0.75306099 </v>
    <v>       0.49053320       0.24764861       0.75302918 </v>
    <v>       0.76109240       0.24336982       0.76339026 </v>
    <v>       0.99009239       0.49776888       0.75819298 </v>
    <v>       0.23661406       0.50575065       0.74547179 </v>
    <v>       0.49313247       0.49851003       0.74688297 </v>
    <v>       0.75762251       0.50156645       0.74087178 </v>
    <v>       0.99822495       0.75004738       0.74412116 </v>
    <v>       0.24947436       0.75777724       0.74516214 </v>
    <v>       0.50038688       0.74556152       0.74790631 </v>
    <v>       0.74820608       0.74850913       0.74777789 </v>
    <v>       0.06904764       0.05881729       0.06033124 </v>
    <v>       0.32124599       0.04903927       0.06724534 </v>
    <v>       0.56783072       0.05506976       0.06715787 </v>
    <v>       0.80979753       0.06077980       0.06870020 </v>
    <v>       0.06620603       0.31166578       0.06128270 </v>
    <v>       0.31396881       0.31232358       0.06099830 </v>
    <v>       0.56862094       0.32003519       0.05412143 </v>
    <v>       0.80419478       0.32704111       0.06976896 </v>
    <v>       0.06146022       0.55510676       0.06366304 </v>
    <v>       0.31179825       0.55730884       0.07060782 </v>
    <v>       0.57005934       0.57255707       0.04569560 </v>
    <v>       0.81888508       0.56120067       0.05794878 </v>
    <v>       0.06515869       0.79832359       0.07038627 </v>
    <v>       0.31561799       0.80804997       0.05371037 </v>
    <v>       0.55840305       0.80678298       0.07150482 </v>
    <v>       0.80938940       0.82681205       0.04692081 </v>
    <v>       0.06566007       0.05730000       0.31785170 </v>
    <v>       0.32371412       0.06013640       0.30162589 </v>
    <v>       0.55295705       0.06932318       0.32463245 </v>
    <v>       0.79989456       0.07343158       0.31938522 </v>
    <v>       0.06654900       0.31506709       0.30593360 </v>
    <v>       0.31766426       0.30484583       0.32157565 </v>
    <v>       0.56633679       0.31801721       0.31437419 </v>
    <v>       0.81547374       0.29861856       0.31429016 </v>
    <v>       0.05535664       0.56590201       0.31036188 </v>
    <v>       0.31425724       0.55250408       0.31827509 </v>
    <v>       0.57134449       0.55662503       0.31333607 </v>
    <v>       0.81729002       0.55702999       0.31683992 </v>
    <v>       0.06541464       0.81869724       0.30593273 </v>
    <v>       0.29991668       0.81099191       0.30651346 </v>
    <v>       0.57503922       0.81632962       0.30324650 </v>
    <v>       0.80960586       0.82167686       0.30809459 </v>
    <v>       0.06103785       0.06261078       0.57193591 </v>
    <v>       0.30703388       0.06129423       0.56742829 </v>
    <v>       0.56798956       0.06870010       0.53780890 </v>
    <v>       0.82020629       0.06126047       0.56683337 </v>
    <v>       0.05531378       0.30430783       0.57498491 </v>
    <v>       0.29664614       0.31893926       0.56997074 </v>
    <v>       0.56383566       0.32103293       0.57148946 </v>
    <v>       0.81671315       0.32206429       0.55874643 </v>
    <v>       0.07104028       0.57449009       0.56153838 </v>
    <v>       0.30382002       0.55396448       0.56494052 </v>
    <v>       0.56866872       0.55389985       0.57066313 </v>
    <v>       0.82188265       0.56262646       0.56145682 </v>
    <v>       0.06240374       0.80929530       0.55915526 </v>
    <v>       0.30801582       0.82263369       0.55391851 </v>
    <v>       0.55198488       0.80954271       0.57229614 </v>
    <v>       0.80086916       0.82462458       0.55108334 </v>
    <v>       0.06134500       0.05346947       0.80894809 </v>
    <v>       0.31119833       0.06544896       0.81477778 </v>
    <v>       0.56626343       0.06369262       0.81587881 </v>
    <v>       0.81508194       0.06475773       0.80862447 </v>
    <v>       0.06512848       0.30741412       0.81657644 </v>
    <v>       0.31136835       0.31024521       0.82147691 </v>
    <v>       0.55933221       0.31669095       0.81098003 </v>
    <v>       0.80550035       0.31871693       0.81827805 </v>
    <v>       0.06235042       0.56549611       0.81090890 </v>
    <v>       0.31404575       0.55931128       0.81134530 </v>
    <v>       0.56097120       0.56532014       0.80146455 </v>
    <v>       0.81250928       0.57195143       0.80418890 </v>
    <v>       0.06888459       0.81036694       0.81455806 </v>
    <v>       0.31024639       0.81814938       0.81521847 </v>
    <v>       0.55491708       0.80931957       0.82150191 </v>
    <v>       0.81703928       0.80214058       0.82101944 </v>
   </varray>
  </structure>
  <varray name="forces" >
   <v>      -2.68248622       0.46214709       0.61193243 </v>
   <v>      -0.29856683      -2.04813305      -1.35457692 </v>
   <v>       0.31360931       2.35913665       0.60401551 </v>
   <v>      -1.31030631       0.55153777       1.57764425 </v>
   <v>       1.68815355       2.12993469      -0.86112778 </v>
   <v>       1.64983709       0.87778927      -2.18741873 </v>
   <v>      -0.40807855       0.12252137       0.86478150 </v>
   <v>       1.33595047       0.96923463       1.17650658 </v>
   <v>      -0.93881094      -1.52360074      -0.71681820 </v>
   <v>      -0.39289290       0.30577107       0.84571545 </v>
   <v>      -1.89165666      -0.14865404       1.03927384 </v>
   <v>       0.92149325      -2.28377034       2.37922934 </v>
   <v>      -0.46025801      -0.93908308      -0.07193658 </v>
   <v>      -0.36878609       1.41436444       0.80445667 </v>
   <v>      -0.59768153       0.02776136       1.40923204 </v>
   <v>      -1.20195696       1.19499551       0.61016719 </v>
   <v>       2.58044331      -1.81005069       0.48472779 </v>
   <v>      -1.37878563       1.82614174       0.10048828 </v>
   <v>       2.10453762       2.05582665      -0.45408448 </v>
   <v>       1.93527313      -0.79761055       1.63876614 </v>
   <v>      -2.02023159      -0.76261095       0.65607530 </v>
   <v>      -1.46616445       0.68135350      -0.50160230 </v>
   <v>      -0.26496296       0.67299592       1.51626966 </v>
   <v>      -0.58079806      -1.26813205       0.15373832 </v>
   <v>      -1.61918118       1.10676452      -0.04534420 </v>
   <v>       0.82935322      -1.31037206      -0.16394392 </v>
   <v>      -0.71816913       1.02142537       2.07925982 </v>
   <v>      -1.39445937       0.73368625       0.06451664 </v>
   <v>       1.52399916       0.29443460      -1.34911095 </v>
   <v>      -2.78302734      -0.93077402      -0.54170658 </v>
   <v>       1.27723773      -0.20285406      -0.51263399 </v>
   <v>      -2.30027480       1.09059910       1.98074475 </v>
   <v>      -0.26316392       3.11153166      -0.32335574 </v>
   <v>       0.33179344      -1.68213857       0.26689509 </v>
   <v>      -0.54423016      -0.79420684      -1.71214192 </v>
   <v>       0.42950490      -0.45733398       0.20574877 </v>
   <v>      -0.13371740      -0.53848620       2.09711419 </v>
   <v>      -0.71165628       0.53107670      -0.53783110 </v>
   <v>       2.89163647      -1.70158952       1.53225938 </v>
   <v>       3.61521810       0.62981002       0.14106896 </v>
   <v>       0.17018359       0.62203417       2.19225233 </v>
   <v>      -1.17894494       2.11727007       0.85186390 </v>
   <v>      -0.99215933      -1.59003782      -2.02228790 </v>
   <v>      -0.37308817       0.72775527       2.21099714 </v>
   <v>       0.52061011      -2.13157856       0.61203832 </v>
   <v>      -0.38295703       0.27216499      -0.30075230 </v>
   <v>      -0.41139634      -0.32684087      -1.05773564 </v>
   <v>       0.88068448      -0.20463956      -1.12079343 </v>
   <v>       0.71782107       0.28833319      -0.31022131 </v>
   <v>      -0.56502438       0.74678678       0.24823718 </v>
   <v>      -0.14391718      -0.54950788       0.79370600 </v>
   <v>       0.98320772       2.30560545      -1.17276904 </v>
   <v>      -0.13322465      -1.30924175       0.86430736 </v>
   <v>       0.36027692       0.04220960      -0.41004459 </v>
   <v>       0.25259566       1.18443935       1.45338128 </v>
   <v>      -0.66498891      -3.28884744      -0.19570835 </v>
   <v>      -1.02734946       0.73393533       1.74174494 </v>
   <v>      -0.57871220       2.54481307       0.75423156 </v>
   <v>       0.61997930       1.32753549       0.35994517 </v>
   <v>       1.49525813      -0.13927552      -0.76104509 </v>
   <v>       0.61856050       1.19785073       0.75753669 </v>
   <v>      -0.84199269       0.83261406       0.25072976 </v>
   <v>       1.90264031       0.57527271      -0.35265411 </v>
   <v>       1.29490427      -0.99393301       1.14957580 </v>
   <v>       0.20800755       0.00496494       0.91563736 </v>
   <v>       1.67387544      -0.87592682       0.73168326 </v>
   <v>      -0.39550588      -3.19339923       0.30647218 </v>
   <v>       0.56966810      -0.44309335      -0.80229586 </v>
   <v>      -0.54017257       0.56314364      -0.82473261 </v>
   <v>       0.23911504       0.18968394      -0.20122446 </v>
   <v>       0.76557901      -0.34618883      -1.70872890 </v>
   <v>      -3.34887062       1.17870163      -2.17899256 </v>
   <v>       1.42536254       0.33488487       1.07039207 </v>
   <v>       0.15966997      -0.88640958      -0.44973743 </v>
   <v>       0.55851677       1.14138719      -1.85972270 </v>
   <v>       0.98172319       0.26245065       0.02068459 </v>
   <v>       0.86601617      -2.07574707       0.89657386 </v>
   <v>       1.32285967      -0.07673926      -1.58177492 </v>
   <v>       0.16558965      -1.18246152       0.15264292 </v>
   <v>       0.16552517       1.73395673      -1.27714857 </v>
   <v>      -0.00489987      -2.08757168       0.18565084 </v>
   <v>       1.57045288      -0.53132412      -0.36486193 </v>
   <v>      -1.97769653      -0.84646434      -0.28000514 </v>
   <v>      -2.73414765       0.96428141      -0.17062130 </v>
   <v>       1.83997944       0.64089456      -0.55842266 </v>
   <v>       0.30543143      -0.63069545      -0.48887696 </v>
   <v>      -0.01739041      -0.66509910      -1.41554059 </v>
   <v>       1.34667191      -0.61386116       2.17126458 </v>
   <v>       0.00677896       1.82743866       0.27920877 </v>
   <v>       0.67927537      -1.61176592       0.36589761 </v>
   <v>       0.39546576      -0.98795698      -0.93480910 </v>
   <v>       1.43209493      -1.47864695      -0.85208783 </v>
   <v>      -0.33525746       1.13809188      -2.16654957 </v>
   <v>       1.63284853       2.26581585       2.54296328 </v>
   <v>       1.22874612      -1.27408928      -2.41373803 </v>
   <v>      -1.96079833       1.12079026      -0.60181670 </v>
   <v>      -2.14824238      -0.68611156       0.13361590 </v>
   <v>       0.61107980       0.37568818       1.01274188 </v>
   <v>       0.99990514       3.16671277      -0.78811029 </v>
   <v>      -0.82002842      -1.61400699      -0.63648939 </v>
   <v>       0.08875088       0.17343456      -0.53397131 </v>
   <v>      -1.22972643       0.92898150       0.81831202 </v>
   <v>      -2.11042455      -0.55357356      -0.47694446 </v>
   <v>      -0.70181597       0.49731433      -2.61106200 </v>
   <v>       0.37161597      -1.13934699      -3.96262987 </v>
   <v>      -0.02258307       0.24575999       2.29329226 </v>
   <v>       1.47067611      -1.66238816       1.18019567 </v>
   <v>      -0.15546949      -1.62141386      -0.60521401 </v>
   <v>       1.04094373      -0.49328264       0.85785056 </v>
   <v>      -1.09630197       1.36739705      -0.83366202 </v>
   <v>      -1.09219961      -0.30260133       2.21556765 </v>
   <v>      -0.32335536       2.13416568      -0.27461322 </v>
   <v>       1.73033919       0.87734392      -0.79019412 </v>
   <v>      -0.46674111       0.22029505       0.19902081 </v>
   <v>      -1.18921074      -1.40539543      -0.42863075 </v>
   <v>      -0.08172398       0.28111218      -1.08162607 </v>
   <v>      -0.64086416      -1.10130126       0.75782282 </v>
   <v>      -0.43971263      -2.38826895       1.05663434 </v>
   <v>      -0.84381554       1.26955073      -0.86493472 </v>
   <v>      -0.27526434       1.33621036       0.92428778 </v>
   <v>       0.74342217      -0.72046843      -1.75416162 </v>
   <v>       1.04454093      -1.63523350      -0.54952670 </v>
   <v>       0.02056881       1.35022742      -0.80622726 </v>
   <v>      -0.13450198       0.67788519      -2.05368079 </v>
   <v>      -0.43477858      -0.51734909      -1.49050698 </v>
   <v>      -0.92580327      -0.57627455      -0.04387382 </v>
   <v>      -0.64246734       0.04425665       0.48673268 </v>
   <v>       0.20796969      -2.04452179       0.09907140 </v>
  </varray>
  <varray name="stress" >
   <v>      15.89508078      -8.88054284      -6.17190008 </v>
   <v>      -8.88054284      13.36537777       0.53738096 </v>
   <v>      -6.17190009       0.53738096      16.04222779 </v>
  </varray>
  <energy>
   <i name="e_fr_energy">   -677.30792662 </i>
   <i name="e_wo_entrp">   -677.30792662 </i>
   <i name="e_0_energy">     -0.00000000 </i>
  </energy>
  <time name="totalsc"> 1630.66 1631.11</time>
  <eigenvalues>
   <array>
    <dimension dim="1">band</dimension>
    <dimension dim="2">kpoint</dimension>
    <dimension dim="3">spin</dimension>
    <field>eigene</field>
    <field>occ</field>
    <set>
     <set comment="spin 1">
      <set comment="kpoint 1">
       <r>   -6.2918    1.0000 </r>
       <r>   -5.6467    1.0000 </r>
       <r>   -5.6185    1.0000 </r>
       <r>   -5.6050    1.0000 </r>
       <r>   -5.5381    1.0000 </r>
       <r>   -5.5308    1.0000 </r>
       <r>   -5.4883    1.0000 </r>
       <r>   -5.4680    1.0000 </r>
       <r>   -5.4318    1.0000 </r>
       <r>   -5.3486    1.0000 </r>
       <r>   -5.2818    1.0000 </r>
       <r>   -5.2614    1.0000 </r>
       <r>   -5.1961    1.0000 </r>
       <r>   -5.1299    1.0000 </r>
       <r>   -5.1231    1.0000 </r>
       <r>   -4.5399    1.0000 </r>
       <r>   -4.4747    1.0000 </r>
       <r>   -4.4578    1.0000 </r>
       <r>   -4.4197    1.0000 </r>
       <r>   -4.3736    1.0000 </r>
       <r>   -4.3396    1.0000 </r>
       <r>   -4.2925    1.0000 </r>
       <r>   -4.2698    1.0000 </r>
       <r>   -4.2440    1.0000 </r>
       <r>   -4.2037    1.0000 </r>
       <r>   -4.1757    1.0000 </r>
       <r>   -4.1466    1.0000 </r>
       <r>   -4.1118    1.0000 </r>
       <r>   -4.0368    1.0000 </r>
       <r>   -3.9706    1.0000 </r>
       <r>   -3.9597    1.0000 </r>
       <r>   -3.9004    1.0000 </r>
       <r>   -3.8134    1.0000 </r>
       <r>   -3.7715    1.0000 </r>
       <r>   -3.7686    1.0000 </r>
       <r>   -3.7406    1.0000 </r>
       <r>   -3.7282    1.0000 </r>
       <r>   -3.7046    1.0000 </r>
       <r>   -3.6796    1.0000 </r>
       <r>   -3.6529    1.0000 </r>
       <r>   -3.6143    1.0000 </r>
       <r>   -3.6089    1.0000 </r>
       <r>   -3.5866    1.0000 </r>
       <r>   -3.5825    1.0000 </r>
       <r>   -3.5328    1.0000 </r>
       <r>   -3.4888    1.0000 </r>
       <r>   -3.4813    1.0000 </r>
       <r>   -3.4389    1.0000 </r>
       <r>   -3.4247    1.0000 </r>
       <r>   -3.4049    1.0000 </r>
       <r>   -3.3749    1.0000 </r>
       <r>   -3.3438    1.0000 </r>
       <r>   -3.3215    1.0000 </r>
       <r>   -3.2793    1.0000 </r>
       <r>   -3.2708    1.0000 </r>
       <r>   -2.3912    1.0000 </r>
       <r>   -2.3339    1.0000 </r>
       <r>   -2.2736    1.0000 </r>
       <r>   -2.2654    1.0000 </r>
       <r>   -2.2443    1.0000 </r>
       <r>   -2.2011    1.0000 </r>
       <r>   -2.1375    1.0000 </r>
       <r>   -2.1223    1.0000 </r>
       <r>   -2.1151    1.0000 </r>
       <r>   -2.0773    1.0000 </r>
       <r>   -2.0209    1.0000 </r>
       <r>   -1.9811    1.0000 </r>
       <r>   -1.9657    1.0000 </r>
       <r>   -1.9074    1.0000 </r>
       <r>   -1.8804    1.0000 </r>
       <r>   -1.8672    1.0000 </r>
       <r>   -1.8326    1.0000 </r>
       <r>   -1.8025    1.0000 </r>
       <r>   -1.3966    1.0000 </r>
       <r>   -1.3387    1.0000 </r>
       <r>   -1.2510    1.0000 </r>
       <r>   -1.1597    1.0000 </r>
       <r>   -1.0433    1.0000 </r>
       <r>   -0.9990    1.0000 </r>
       <r>   -0.9453    1.0000 </r>
       <r>   -0.9196    1.0000 </r>
       <r>   -0.9138    1.0000 </r>
       <r>   -0.8841    1.0000 </r>
       <r>   -0.8574    1.0000 </r>
       <r>   -0.8300    1.0000 </r>
       <r>   -0.8228    1.0000 </r>
       <r>   -0.7909    1.0000 </r>
       <r>   -0.7543    1.0000 </r>
       <r>   -0.7083    1.0000 </r>
       <r>   -0.6980    1.0000 </r>
       <r>   -0.6648    1.0000 </r>
       <r>   -0.6564    1.0000 </r>
       <r>   -0.6209    1.0000 </r>
       <r>   -0.5924    1.0000 </r>
       <r>   -0.5777    1.0000 </r>
       <r>   -0.5407    1.0000 </r>
       <r>   -0.5174    1.0000 </r>
       <r>   -0.4804    1.0000 </r>
       <r>   -0.4774    1.0000 </r>
       <r>   -0.4028    1.0000 </r>
       <r>   -0.3841    1.0000 </r>
       <r>   -0.0483    1.0000 </r>
       <r>   -0.0124    1.0000 </r>
       <r>    0.0297    1.0000 </r>
       <r>    0.0774    1.0000 </r>
       <r>    0.1154    1.0000 </r>
       <r>    0.1795    1.0000 </r>
       <r>    0.2254    1.0000 </r>
       <r>    0.2301    1.0000 </r>
       <r>    0.2778    1.0000 </r>
       <r>    0.3095    1.0000 </r>
       <r>    0.3477    1.0000 </r>
       <r>    0.3709    1.0000 </r>
       <r>    1.4067    1.0000 </r>
       <r>    1.4402    1.0000 </r>
       <r>    1.4840    1.0000 </r>
       <r>    1.5097    1.0000 </r>
       <r>    1.5313    1.0000 </r>
       <r>    1.5963    1.0000 </r>
       <r>    1.6065    1.0000 </r>
       <r>    1.6373    1.0000 </r>
       <r>    1.6498    1.0000 </r>
       <r>    1.6626    1.0000 </r>
       <r>    1.6726    1.0000 </r>
       <r>    1.6912    1.0000 </r>
       <r>    1.7070    1.0000 </r>
       <r>    1.7313    1.0000 </r>
       <r>    1.7404    1.0000 </r>
       <r>    1.7538    1.0000 </r>
       <r>    1.7654    1.0000 </r>
       <r>    1.7687    1.0000 </r>
       <r>    1.7848    1.0000 </r>
       <r>    1.7982    1.0000 </r>
       <r>    1.8086    1.0000 </r>
       <r>    1.8353    1.0000 </r>
       <r>    1.8531    1.0000 </r>
       <r>    1.8626    1.0000 </r>
       <r>    1.8917    1.0000 </r>
       <r>    1.9058    1.0000 </r>
       <r>    1.9126    1.0000 </r>
       <r>    1.9249    1.0000 </r>
       <r>    1.9432    1.0000 </r>
       <r>    1.9536    1.0000 </r>
       <r>    1.9698    1.0000 </r>
       <r>    1.9821    1.0000 </r>
       <r>    2.0025    1.0000 </r>
       <r>    2.0079    1.0000 </r>
       <r>    2.0197    1.0000 </r>
       <r>    2.0334    1.0000 </r>
       <r>    2.0553    1.0000 </r>
       <r>    2.0698    1.0000 </r>
       <r>    2.0808    1.0000 </r>
       <r>    2.0957    1.0000 </r>
       <r>    2.1147    1.0000 </r>
       <r>    2.1206    1.0000 </r>
       <r>    2.1302    1.0000 </r>
       <r>    2.1412    1.0000 </r>
       <r>    2.1508    1.0000 </r>
       <r>    2.1728    1.0000 </r>
       <r>    2.1767    1.0000 </r>
       <r>    2.2023    1.0000 </r>
       <r>    2.2146    1.0000 </r>
       <r>    2.2425    1.0000 </r>
       <r>    2.2502    1.0000 </r>
       <r>    2.2543    1.0000 </r>
       <r>    2.2796    1.0000 </r>
       <r>    2.3010    1.0000 </r>
       <r>    2.3229    1.0000 </r>
       <r>    2.3357    1.0000 </r>
       <r>    2.3676    1.0000 </r>
       <r>    2.3824    1.0000 </r>
       <r>    2.3979    1.0000 </r>
       <r>    2.4159    1.0000 </r>
       <r>    2.4981    1.0000 </r>
       <r>    2.5261    1.0000 </r>
       <r>    2.7390    1.0000 </r>
       <r>    2.7696    1.0000 </r>
       <r>    2.8116    1.0000 </r>
       <r>    2.8352    1.0000 </r>
       <r>    2.8423    1.0000 </r>
       <r>    2.9142    1.0000 </r>
       <r>    3.1356    1.0000 </r>
       <r>    3.2375    1.0000 </r>
       <r>    3.2655    1.0000 </r>
       <r>    3.2876    1.0000 </r>
       <r>    3.3063    1.0000 </r>
       <r>    3.3153    1.0000 </r>
       <r>    3.3428    1.0000 </r>
       <r>    3.3595    1.0000 </r>
       <r>    3.3757    1.0000 </r>
       <r>    3.3916    1.0000 </r>
       <r>    3.3932    1.0000 </r>
       <r>    3.4044    1.0000 </r>
       <r>    3.4207    1.0000 </r>
       <r>    3.4438    1.0000 </r>
       <r>    3.4664    1.0000 </r>
       <r>    3.4859    1.0000 </r>
       <r>    3.4970    1.0000 </r>
       <r>    3.5153    1.0000 </r>
       <r>    3.5239    1.0000 </r>
       <r>    3.5331    1.0000 </r>
       <r>    3.5626    1.0000 </r>
       <r>    3.5674    1.0000 </r>
       <r>    3.6059    1.0000 </r>
       <r>    3.6105    1.0000 </r>
       <r>    3.6327    1.0000 </r>
       <r>    3.6679    1.0000 </r>
       <r>    3.7131    1.0000 </r>
       <r>    3.7571    1.0000 </r>
       <r>    3.7729    1.0000 </r>
       <r>    3.7972    1.0000 </r>
       <r>    3.8354    1.0000 </r>
       <r>    3.8573    1.0000 </r>
       <r>    3.9120    1.0000 </r>
       <r>    3.9365    1.0000 </r>
       <r>    3.9569    1.0000 </r>
       <r>    3.9853    1.0000 </r>
       <r>    4.1420    1.0000 </r>
       <r>    4.1533    1.0000 </r>
       <r>    4.1817    1.0000 </r>
       <r>    4.2299    1.0000 </r>
       <r>    4.2564    1.0000 </r>
       <r>    4.2624    1.0000 </r>
       <r>    4.2868    1.0000 </r>
       <r>    4.3026    1.0000 </r>
       <r>    4.3177    1.0000 </r>
       <r>    4.3504    1.0000 </r>
       <r>    4.4084    1.0000 </r>
       <r>    4.4305    1.0000 </r>
       <r>    4.4516    1.0000 </r>
       <r>    4.4759    1.0000 </r>
       <r>    4.4911    1.0000 </r>
       <r>    4.5222    1.0000 </r>
       <r>    4.5461    1.0000 </r>
       <r>    4.6001    1.0000 </r>
       <r>    4.6103    1.0000 </r>
       <r>    4.6524    1.0000 </r>
       <r>    4.7593    1.0000 </r>
       <r>    4.8305    1.0000 </r>
       <r>    4.8608    1.0000 </r>
       <r>    4.8691    1.0000 </r>
       <r>    4.8884    1.0000 </r>
       <r>    4.9000    1.0000 </r>
       <r>    4.9290    1.0000 </r>
       <r>    4.9804    1.0000 </r>
       <r>    5.0176    1.0000 </r>
       <r>    5.0233    1.0000 </r>
       <r>    5.0792    1.0000 </r>
       <r>    5.0819    1.0000 </r>
       <r>    5.1270    1.0000 </r>
       <r>    5.1942    1.0000 </r>
       <r>    5.2646    1.0000 </r>
       <r>    5.2987    1.0000 </r>
       <r>    5.6458    1.0000 </r>
       <r>    5.7452    1.0000 </r>
       <r>    5.8947    1.0000 </r>
       <r>    6.1137    0.0000 </r>
       <r>    6.1959    0.0000 </r>
       <r>    6.2060    0.0000 </r>
       <r>    6.2131    0.0000 </r>
       <r>    6.2946    0.0000 </r>
       <r>    6.3753    0.0000 </r>
       <r>    6.4949    0.0000 </r>
       <r>    6.5410    0.0000 </r>
       <r>    6.5933    0.0000 </r>
       <r>    6.6540    0.0000 </r>
       <r>    6.6936    0.0000 </r>
       <r>    6.7044    0.0000 </r>
       <r>    6.7635    0.0000 </r>
       <r>    6.8129    0.0000 </r>
       <r>    6.8404    0.0000 </r>
       <r>    6.8709    0.0000 </r>
       <r>    6.8820    0.0000 </r>
       <r>    6.8958    0.0000 </r>
       <r>    6.9328    0.0000 </r>
       <r>    6.9453    0.0000 </r>
       <r>    6.9550    0.0000 </r>
       <r>    6.9660    0.0000 </r>
       <r>    6.9964    0.0000 </r>
       <r>    6.9984    0.0000 </r>
       <r>    7.0127    0.0000 </r>
       <r>    7.0540    0.0000 </r>
       <r>    7.0877    0.0000 </r>
       <r>    7.1006    0.0000 </r>
       <r>    7.1083    0.0000 </r>
       <r>    7.1296    0.0000 </r>
       <r>    7.1451    0.0000 </r>
       <r>    7.1686    0.0000 </r>
       <r>    7.1893    0.0000 </r>
       <r>    7.2034    0.0000 </r>
       <r>    7.2120    0.0000 </r>
       <r>    7.2377    0.0000 </r>
       <r>    7.2574    0.0000 </r>
       <r>    7.2925    0.0000 </r>
       <r>    7.3353    0.0000 </r>
       <r>    7.3423    0.0000 </r>
       <r>    7.4208    0.0000 </r>
       <r>    7.4673    0.0000 </r>
       <r>    7.5103    0.0000 </r>
       <r>    7.5178    0.0000 </r>
       <r>    7.5254    0.0000 </r>
       <r>    7.5517    0.0000 </r>
       <r>    7.5903    0.0000 </r>
       <r>    7.6548    0.0000 </r>
       <r>    7.7717    0.0000 </r>
       <r>    7.8090    0.0000 </r>
       <r>    7.8640    0.0000 </r>
       <r>    7.9059    0.0000 </r>
       <r>    7.9473    0.0000 </r>
       <r>    7.9590    0.0000 </r>
       <r>    7.9666    0.0000 </r>
       <r>    8.0153    0.0000 </r>
       <r>    8.0601    0.0000 </r>
       <r>    8.0701    0.0000 </r>
       <r>    8.0733    0.0000 </r>
       <r>    8.1097    0.0000 </r>
       <r>    8.1287    0.0000 </r>
       <r>    8.1777    0.0000 </r>
       <r>    8.2625    0.0000 </r>
       <r>    8.5183    0.0000 </r>
       <r>    8.5534    0.0000 </r>
       <r>    8.5893    0.0000 </r>
      </set>
      <set comment="kpoint 2">
       <r>   -6.1077    1.0000 </r>
       <r>   -6.0889    1.0000 </r>
       <r>   -5.6768    1.0000 </r>
       <r>   -5.6233    1.0000 </r>
       <r>   -5.6015    1.0000 </r>
       <r>   -5.5659    1.0000 </r>
       <r>   -5.5489    1.0000 </r>
       <r>   -5.5376    1.0000 </r>
       <r>   -5.1906    1.0000 </r>
       <r>   -5.1608    1.0000 </r>
       <r>   -5.1254    1.0000 </r>
       <r>   -5.0809    1.0000 </r>
       <r>   -5.0187    1.0000 </r>
       <r>   -4.9664    1.0000 </r>
       <r>   -4.7437    1.0000 </r>
[...]
       <r>    -3.1072    37.3640   100.9832 </r>
       <r>    -3.0527    49.5101   103.6846 </r>
       <r>    -2.9981    47.2198   106.2612 </r>
       <r>    -2.9435    44.4810   108.6882 </r>
       <r>    -2.8890    28.6036   110.2490 </r>
       <r>    -2.8344    44.5215   112.6783 </r>
       <r>    -2.7798    27.5001   114.1788 </r>
       <r>    -2.7253    28.7138   115.7455 </r>
       <r>    -2.6707    29.0334   117.3297 </r>
       <r>    -2.6161    39.8932   119.5065 </r>
       <r>    -2.5616    42.8213   121.8430 </r>
       <r>    -2.5070    10.8809   122.4367 </r>
       <r>    -2.4525     5.7411   122.7500 </r>
       <r>    -2.3979     0.7936   122.7933 </r>
       <r>    -2.3433     4.2064   123.0228 </r>
       <r>    -2.2888     4.2398   123.2542 </r>
       <r>    -2.2342    24.1598   124.5724 </r>
       <r>    -2.1796    18.8822   125.6027 </r>
       <r>    -2.1251    32.4402   127.3728 </r>
       <r>    -2.0705    29.6779   128.9921 </r>
       <r>    -2.0159    17.3712   129.9400 </r>
       <r>    -1.9614    27.1613   131.4220 </r>
       <r>    -1.9068    13.0465   132.1339 </r>
       <r>    -1.8522    11.2250   132.7464 </r>
       <r>    -1.7977     8.0986   133.1883 </r>
       <r>    -1.7431     2.2993   133.3137 </r>
       <r>    -1.6886     9.1119   133.8109 </r>
       <r>    -1.6340     8.4687   134.2730 </r>
       <r>    -1.5794    33.4987   136.1008 </r>
       <r>    -1.5249    42.4201   138.4155 </r>
       <r>    -1.4703    34.8391   140.3165 </r>
       <r>    -1.4157    28.4755   141.8702 </r>
       <r>    -1.3612    44.2841   144.2865 </r>
       <r>    -1.3066    57.7151   147.4357 </r>
       <r>    -1.2520    58.6923   150.6382 </r>
       <r>    -1.1975    54.6567   153.6205 </r>
       <r>    -1.1429    69.9387   157.4367 </r>
       <r>    -1.0884    52.1623   160.2829 </r>
       <r>    -1.0338    55.5292   163.3129 </r>
       <r>    -0.9792    60.5782   166.6183 </r>
       <r>    -0.9247    66.9811   170.2731 </r>
       <r>    -0.8701    77.7300   174.5144 </r>
       <r>    -0.8155    68.4047   178.2468 </r>
       <r>    -0.7610    51.1641   181.0386 </r>
       <r>    -0.7064    50.5043   183.7943 </r>
       <r>    -0.6518    40.8545   186.0235 </r>
       <r>    -0.5973    21.1506   187.1776 </r>
       <r>    -0.5427    29.3277   188.7778 </r>
       <r>    -0.4881    29.8339   190.4057 </r>
       <r>    -0.4336    19.7754   191.4847 </r>
       <r>    -0.3790    35.1906   193.4049 </r>
       <r>    -0.3245    52.8286   196.2874 </r>
       <r>    -0.2699    43.4305   198.6572 </r>
       <r>    -0.2153    60.0150   201.9319 </r>
       <r>    -0.1608    52.0176   204.7702 </r>
       <r>    -0.1062    33.9602   206.6232 </r>
       <r>    -0.0516    41.2694   208.8751 </r>
       <r>     0.0029    34.5087   210.7580 </r>
       <r>     0.0575    45.5281   213.2422 </r>
       <r>     0.1121    10.7644   213.8296 </r>
       <r>     0.1666     3.2821   214.0087 </r>
       <r>     0.2212     6.2151   214.3478 </r>
       <r>     0.2758    19.0554   215.3876 </r>
       <r>     0.3303    25.9936   216.8059 </r>
       <r>     0.3849    33.2967   218.6227 </r>
       <r>     0.4394    22.5702   219.8542 </r>
       <r>     0.4940    20.7341   220.9856 </r>
       <r>     0.5486    24.6309   222.3295 </r>
       <r>     0.6031    20.7392   223.4612 </r>
       <r>     0.6577    23.5708   224.7473 </r>
       <r>     0.7123    18.2014   225.7404 </r>
       <r>     0.7668    15.9136   226.6087 </r>
       <r>     0.8214    19.3405   227.6641 </r>
       <r>     0.8760     6.7123   228.0303 </r>
       <r>     0.9305    16.5417   228.9329 </r>
       <r>     0.9851    21.1358   230.0862 </r>
       <r>     1.0396    30.2533   231.7369 </r>
       <r>     1.0942    27.2429   233.2234 </r>
       <r>     1.1488    34.2082   235.0899 </r>
       <r>     1.2033    24.8551   236.4461 </r>
       <r>     1.2579    12.8399   237.1467 </r>
       <r>     1.3125    29.2119   238.7407 </r>
       <r>     1.3670    26.2338   240.1721 </r>
       <r>     1.4216    53.5708   243.0952 </r>
       <r>     1.4762    57.9499   246.2572 </r>
       <r>     1.5307    84.6041   250.8735 </r>
       <r>     1.5853    78.1613   255.1384 </r>
       <r>     1.6399    89.7990   260.0382 </r>
       <r>     1.6944    80.9037   264.4527 </r>
       <r>     1.7490    52.2478   267.3036 </r>
       <r>     1.8035    55.3055   270.3213 </r>
       <r>     1.8581    37.6156   272.3738 </r>
       <r>     1.9127    17.8064   273.3454 </r>
       <r>     1.9672    18.1904   274.3379 </r>
       <r>     2.0218    32.9723   276.1370 </r>
       <r>     2.0764    58.6711   279.3384 </r>
       <r>     2.1309    94.3392   284.4859 </r>
       <r>     2.1855   123.9615   291.2498 </r>
       <r>     2.2401   114.5767   297.5015 </r>
       <r>     2.2946   112.1240   303.6195 </r>
       <r>     2.3492   120.3788   310.1880 </r>
       <r>     2.4038   106.0298   315.9735 </r>
       <r>     2.4583    77.7588   320.2164 </r>
       <r>     2.5129    45.7656   322.7136 </r>
       <r>     2.5674    26.7356   324.1724 </r>
       <r>     2.6220    41.6343   326.4442 </r>
       <r>     2.6766    67.5208   330.1284 </r>
       <r>     2.7311    80.5628   334.5243 </r>
       <r>     2.7857    97.7687   339.8590 </r>
       <r>     2.8403    94.7408   345.0285 </r>
       <r>     2.8948    80.8615   349.4406 </r>
       <r>     2.9494    90.3438   354.3702 </r>
       <r>     3.0040   103.6629   360.0265 </r>
       <r>     3.0585   104.7986   365.7447 </r>
       <r>     3.1131    73.4404   369.7520 </r>
       <r>     3.1677    70.0167   373.5724 </r>
       <r>     3.2222    88.6359   378.4087 </r>
       <r>     3.2768    94.6243   383.5718 </r>
       <r>     3.3313    86.5556   388.2947 </r>
       <r>     3.3859    99.0855   393.7012 </r>
       <r>     3.4405    88.9777   398.5563 </r>
       <r>     3.4950    90.2210   403.4791 </r>
       <r>     3.5496    81.7348   407.9389 </r>
       <r>     3.6042    85.1037   412.5826 </r>
       <r>     3.6587    84.6443   417.2012 </r>
       <r>     3.7133    67.4051   420.8791 </r>
       <r>     3.7679    79.0765   425.1939 </r>
       <r>     3.8224    69.7730   429.0010 </r>
       <r>     3.8770    87.2262   433.7605 </r>
       <r>     3.9315    66.0277   437.3633 </r>
       <r>     3.9861    71.6372   441.2721 </r>
       <r>     4.0407    73.8508   445.3017 </r>
       <r>     4.0952    65.2227   448.8606 </r>
       <r>     4.1498    66.3917   452.4832 </r>
       <r>     4.2044    70.8237   456.3476 </r>
       <r>     4.2589    70.3513   460.1863 </r>
       <r>     4.3135    73.9560   464.2216 </r>
       <r>     4.3681    72.2654   468.1648 </r>
       <r>     4.4226    74.9645   472.2551 </r>
       <r>     4.4772    59.8261   475.5195 </r>
       <r>     4.5318    62.3910   478.9239 </r>
       <r>     4.5863    56.0875   481.9842 </r>
       <r>     4.6409    69.8420   485.7951 </r>
       <r>     4.6954    52.4552   488.6573 </r>
       <r>     4.7500    28.2303   490.1977 </r>
       <r>     4.8046    18.9786   491.2333 </r>
       <r>     4.8591    29.9428   492.8671 </r>
       <r>     4.9137    49.8062   495.5847 </r>
       <r>     4.9683    21.4680   496.7562 </r>
       <r>     5.0228    42.2953   499.0640 </r>
       <r>     5.0774    38.5559   501.1677 </r>
       <r>     5.1320    30.6175   502.8384 </r>
       <r>     5.1865     8.1807   503.2847 </r>
       <r>     5.2411     6.4763   503.6381 </r>
       <r>     5.2957    15.5880   504.4887 </r>
       <r>     5.3502    15.1223   505.3138 </r>
       <r>     5.4048    28.3618   506.8613 </r>
       <r>     5.4593     7.1613   507.2521 </r>
       <r>     5.5139    32.4087   509.0205 </r>
       <r>     5.5685    12.7106   509.7140 </r>
       <r>     5.6230     9.8493   510.2514 </r>
       <r>     5.6776    18.3891   511.2548 </r>
       <r>     5.7322     4.6437   511.5082 </r>
       <r>     5.7867     4.4312   511.7500 </r>
       <r>     5.8413     0.0000   511.7500 </r>
       <r>     5.8959     2.5866   511.8911 </r>
       <r>     5.9504     1.9952   512.0000 </r>
       <r>     6.0050     0.0000   512.0000 </r>
       <r>     6.0595     0.0000   512.0000 </r>
       <r>     6.1141     2.3919   512.1305 </r>
       <r>     6.1687    17.8097   513.1023 </r>
       <r>     6.2232    25.2328   514.4791 </r>
       <r>     6.2778     4.9124   514.7471 </r>
       <r>     6.3324    16.0979   515.6255 </r>
       <r>     6.3869    31.9566   517.3692 </r>
       <r>     6.4415    23.1846   518.6342 </r>
       <r>     6.4961    28.7670   520.2039 </r>
       <r>     6.5506    13.8245   520.9582 </r>
       <r>     6.6052    16.5457   521.8610 </r>
       <r>     6.6598    15.0370   522.6815 </r>
       <r>     6.7143    32.0134   524.4283 </r>
       <r>     6.7689    36.0042   526.3928 </r>
       <r>     6.8234    29.3411   527.9938 </r>
       <r>     6.8780    35.9129   529.9534 </r>
       <r>     6.9326    23.5916   531.2406 </r>
       <r>     6.9871    47.8335   533.8506 </r>
       <r>     7.0417    46.5370   536.3899 </r>
       <r>     7.0963    33.3663   538.2105 </r>
       <r>     7.1508    31.5789   539.9336 </r>
       <r>     7.2054    43.3651   542.2998 </r>
       <r>     7.2600    64.7728   545.8341 </r>
       <r>     7.3145    62.1061   549.2228 </r>
       <r>     7.3691    69.6491   553.0232 </r>
       <r>     7.4237    72.4908   556.9786 </r>
       <r>     7.4782    88.2575   561.7943 </r>
       <r>     7.5328    86.6652   566.5232 </r>
       <r>     7.5873    75.5592   570.6460 </r>
       <r>     7.6419    90.0227   575.5580 </r>
       <r>     7.6965    77.0822   579.7640 </r>
       <r>     7.7510    91.0204   584.7304 </r>
       <r>     7.8056   109.7675   590.7198 </r>
       <r>     7.8602    94.5623   595.8795 </r>
       <r>     7.9147    93.1371   600.9615 </r>
       <r>     7.9693    82.5473   605.4657 </r>
       <r>     8.0239    90.0734   610.3804 </r>
       <r>     8.0784    79.8159   614.7355 </r>
       <r>     8.1330    83.2395   619.2774 </r>
       <r>     8.1876    78.5487   623.5634 </r>
       <r>     8.2421   101.0134   629.0751 </r>
       <r>     8.2967    87.5261   633.8509 </r>
       <r>     8.3512    80.6209   638.2500 </r>
       <r>     8.4058    61.5524   641.6086 </r>
       <r>     8.4604    28.6357   643.1711 </r>
       <r>     8.5149     2.9024   643.3295 </r>
       <r>     8.5695     7.6665   643.7478 </r>
       <r>     8.6241     4.6224   644.0000 </r>
       <r>     8.6786     0.0000   644.0000 </r>
       <r>     8.7332     0.0000   644.0000 </r>
       <r>     8.7878     0.0000   644.0000 </r>
       <r>     8.8423     0.0000   644.0000 </r>
       <r>     8.8969     0.0000   644.0000 </r>
       <r>     8.9514     0.0000   644.0000 </r>
       <r>     9.0060     0.0000   644.0000 </r>
       <r>     9.0606     0.0000   644.0000 </r>
       <r>     9.1151     0.0000   644.0000 </r>
       <r>     9.1697     0.0000   644.0000 </r>
       <r>     9.2243     0.0000   644.0000 </r>
       <r>     9.2788     0.0000   644.0000 </r>
       <r>     9.3334     0.0000   644.0000 </r>
      </set>
     </set>
    </array>
   </total>
  </dos>
 </calculation>
 <structure name="finalpos" >
  <crystal>
   <varray name="basis" >
    <v>       0.00000000      10.93733369      10.93733369 </v>
    <v>      10.93733369       0.00000000      10.93733369 </v>
    <v>      10.93733369      10.93733369       0.00000000 </v>
   </varray>
   <i name="volume">   2616.76295363 </i>
   <varray name="rec_basis" >
    <v>      -0.04571498       0.04571498       0.04571498 </v>
    <v>       0.04571498      -0.04571498       0.04571498 </v>
    <v>       0.04571498       0.04571498      -0.04571498 </v>
   </varray>
  </crystal>
  <varray name="positions" >
   <v>       0.98834161       0.00075144       0.01585161 </v>
   <v>       0.26834655       0.99202476       0.00073253 </v>
   <v>       0.49817747       0.99605699       0.99529192 </v>
   <v>       0.74231931       0.00774228       0.00165114 </v>
   <v>       0.99516725       0.25513277       0.99074429 </v>
   <v>       0.26453401       0.24301887       0.99349173 </v>
   <v>       0.49752061       0.24873715       0.00503341 </v>
   <v>       0.74788260       0.24544029       0.00045662 </v>
   <v>       0.00802845       0.49625252       0.00154939 </v>
   <v>       0.24581549       0.49784764       0.00344595 </v>
   <v>       0.49188678       0.50811130       0.00499050 </v>
   <v>       0.75293227       0.49552074       0.00427941 </v>
   <v>       0.99985508       0.74435767       0.00610985 </v>
   <v>       0.24220721       0.74694921       0.99788594 </v>
   <v>       0.49153091       0.74834965       0.01031390 </v>
   <v>       0.73715096       0.75490059       0.00459262 </v>
   <v>       0.01503826       0.99160170       0.24434674 </v>
   <v>       0.24115557       0.00956025       0.24953106 </v>
   <v>       0.50581465       0.99969590       0.23835863 </v>
   <v>       0.74135879       0.99557668       0.25764537 </v>
   <v>       0.99571695       0.24688542       0.26520537 </v>
   <v>       0.24869642       0.26112492       0.24863659 </v>
   <v>       0.49781745       0.25278638       0.25061261 </v>
   <v>       0.74839498       0.25122378       0.25451734 </v>
   <v>       0.99274627       0.50989513       0.24811129 </v>
   <v>       0.25576542       0.48714037       0.25731644 </v>
   <v>       0.49161979       0.50150645       0.25023242 </v>
   <v>       0.75142057       0.50109621       0.25093315 </v>
   <v>       0.00821162       0.75046996       0.24474333 </v>
   <v>       0.24454493       0.74784651       0.25412934 </v>
   <v>       0.50582119       0.74273870       0.25233030 </v>
   <v>       0.74544407       0.75182214       0.25303349 </v>
   <v>       0.99544513       0.00904011       0.49326085 </v>
   <v>       0.25693022       0.99956322       0.49751033 </v>
   <v>       0.49791962       0.99899789       0.50566798 </v>
   <v>       0.75302230       0.00351082       0.50185997 </v>
   <v>       0.99483771       0.24174143       0.51008682 </v>
   <v>       0.23916301       0.25505219       0.50737107 </v>
   <v>       0.50660227       0.23975958       0.50310594 </v>
   <v>       0.75724500       0.23723800       0.48952179 </v>
   <v>       0.99772756       0.48725818       0.50327710 </v>
   <v>       0.23871177       0.50384620       0.49649832 </v>
   <v>       0.50783719       0.50934262       0.50127738 </v>
   <v>       0.74423644       0.49939799       0.50717766 </v>
   <v>       0.99784146       0.74927898       0.50211268 </v>
   <v>       0.24786273       0.75066635       0.49576734 </v>
   <v>       0.50330095       0.75509448       0.49463893 </v>
   <v>       0.75385116       0.75061419       0.49035467 </v>
   <v>       0.99990443       0.99148731       0.74968474 </v>
   <v>       0.24132669       0.00663602       0.75464487 </v>
   <v>       0.50148366       0.99703559       0.74932505 </v>
   <v>       0.75088285       0.00397587       0.74076763 </v>
   <v>       0.99660864       0.23531300       0.77073178 </v>
   <v>       0.25233649       0.25104782       0.75306099 </v>
   <v>       0.49053320       0.24764861       0.75302918 </v>
   <v>       0.76109240       0.24336982       0.76339026 </v>
   <v>       0.99009239       0.49776888       0.75819298 </v>
   <v>       0.23661406       0.50575065       0.74547179 </v>
   <v>       0.49313247       0.49851003       0.74688297 </v>
   <v>       0.75762251       0.50156645       0.74087178 </v>
   <v>       0.99822495       0.75004738       0.74412116 </v>
   <v>       0.24947436       0.75777724       0.74516214 </v>
   <v>       0.50038688       0.74556152       0.74790631 </v>
   <v>       0.74820608       0.74850913       0.74777789 </v>
   <v>       0.06904764       0.05881729       0.06033124 </v>
   <v>       0.32124599       0.04903927       0.06724534 </v>
   <v>       0.56783072       0.05506976       0.06715787 </v>
   <v>       0.80979753       0.06077980       0.06870020 </v>
   <v>       0.06620603       0.31166578       0.06128270 </v>
   <v>       0.31396881       0.31232358       0.06099830 </v>
   <v>       0.56862094       0.32003519       0.05412143 </v>
   <v>       0.80419478       0.32704111       0.06976896 </v>
   <v>       0.06146022       0.55510676       0.06366304 </v>
   <v>       0.31179825       0.55730884       0.07060782 </v>
   <v>       0.57005934       0.57255707       0.04569560 </v>
   <v>       0.81888508       0.56120067       0.05794878 </v>
   <v>       0.06515869       0.79832359       0.07038627 </v>
   <v>       0.31561799       0.80804997       0.05371037 </v>
   <v>       0.55840305       0.80678298       0.07150482 </v>
   <v>       0.80938940       0.82681205       0.04692081 </v>
   <v>       0.06566007       0.05730000       0.31785170 </v>
   <v>       0.32371412       0.06013640       0.30162589 </v>
   <v>       0.55295705       0.06932318       0.32463245 </v>
   <v>       0.79989456       0.07343158       0.31938522 </v>
   <v>       0.06654900       0.31506709       0.30593360 </v>
   <v>       0.31766426       0.30484583       0.32157565 </v>
   <v>       0.56633679       0.31801721       0.31437419 </v>
   <v>       0.81547374       0.29861856       0.31429016 </v>
   <v>       0.05535664       0.56590201       0.31036188 </v>
   <v>       0.31425724       0.55250408       0.31827509 </v>
   <v>       0.57134449       0.55662503       0.31333607 </v>
   <v>       0.81729002       0.55702999       0.31683992 </v>
   <v>       0.06541464       0.81869724       0.30593273 </v>
   <v>       0.29991668       0.81099191       0.30651346 </v>
   <v>       0.57503922       0.81632962       0.30324650 </v>
   <v>       0.80960586       0.82167686       0.30809459 </v>
   <v>       0.06103785       0.06261078       0.57193591 </v>
   <v>       0.30703388       0.06129423       0.56742829 </v>
   <v>       0.56798956       0.06870010       0.53780890 </v>
   <v>       0.82020629       0.06126047       0.56683337 </v>
   <v>       0.05531378       0.30430783       0.57498491 </v>
   <v>       0.29664614       0.31893926       0.56997074 </v>
   <v>       0.56383566       0.32103293       0.57148946 </v>
   <v>       0.81671315       0.32206429       0.55874643 </v>
   <v>       0.07104028       0.57449009       0.56153838 </v>
   <v>       0.30382002       0.55396448       0.56494052 </v>
   <v>       0.56866872       0.55389985       0.57066313 </v>
   <v>       0.82188265       0.56262646       0.56145682 </v>
   <v>       0.06240374       0.80929530       0.55915526 </v>
   <v>       0.30801582       0.82263369       0.55391851 </v>
   <v>       0.55198488       0.80954271       0.57229614 </v>
   <v>       0.80086916       0.82462458       0.55108334 </v>
   <v>       0.06134500       0.05346947       0.80894809 </v>
   <v>       0.31119833       0.06544896       0.81477778 </v>
   <v>       0.56626343       0.06369262       0.81587881 </v>
   <v>       0.81508194       0.06475773       0.80862447 </v>
   <v>       0.06512848       0.30741412       0.81657644 </v>
   <v>       0.31136835       0.31024521       0.82147691 </v>
   <v>       0.55933221       0.31669095       0.81098003 </v>
   <v>       0.80550035       0.31871693       0.81827805 </v>
   <v>       0.06235042       0.56549611       0.81090890 </v>
   <v>       0.31404575       0.55931128       0.81134530 </v>
   <v>       0.56097120       0.56532014       0.80146455 </v>
   <v>       0.81250928       0.57195143       0.80418890 </v>
   <v>       0.06888459       0.81036694       0.81455806 </v>
   <v>       0.31024639       0.81814938       0.81521847 </v>
   <v>       0.55491708       0.80931957       0.82150191 </v>
   <v>       0.81703928       0.80214058       0.82101944 </v>
  </varray>
 </structure>
</modeling>
