potpaw_PBE@./ARUN.APL1ZEROSTATE         
           1
     0.000000   10.937334   10.937334
    10.937334    0.000000   10.937334
    10.937334   10.937334    0.000000
   Si
 128
Direct configuration=     1
   0.98834161  0.00075144  0.01585161
   0.26834655  0.99202476  0.00073253
   0.49817747  0.99605699  0.99529192
   0.74231931  0.00774228  0.00165114
   0.99516725  0.25513277  0.99074429
   0.26453401  0.24301887  0.99349173
   0.49752061  0.24873715  0.00503341
   0.74788260  0.24544029  0.00045662
   0.00802845  0.49625252  0.00154939
   0.24581549  0.49784764  0.00344595
   0.49188678  0.50811130  0.00499050
   0.75293227  0.49552074  0.00427941
   0.99985508  0.74435767  0.00610985
   0.24220721  0.74694921  0.99788594
   0.49153091  0.74834965  0.01031390
   0.73715096  0.75490059  0.00459262
   0.01503826  0.99160170  0.24434674
   0.24115557  0.00956025  0.24953106
   0.50581465  0.99969590  0.23835863
   0.74135879  0.99557668  0.25764537
   0.99571695  0.24688542  0.26520537
   0.24869642  0.26112492  0.24863659
   0.49781745  0.25278638  0.25061261
   0.74839498  0.25122378  0.25451734
   0.99274627  0.50989513  0.24811129
   0.25576542  0.48714037  0.25731644
   0.49161979  0.50150645  0.25023242
   0.75142057  0.50109621  0.25093315
   0.00821162  0.75046996  0.24474333
   0.24454493  0.74784651  0.25412934
   0.50582119  0.74273870  0.25233030
   0.74544407  0.75182214  0.25303349
   0.99544513  0.00904011  0.49326085
   0.25693022  0.99956322  0.49751033
   0.49791962  0.99899789  0.50566798
   0.75302230  0.00351082  0.50185997
   0.99483771  0.24174143  0.51008682
   0.23916301  0.25505219  0.50737107
   0.50660227  0.23975958  0.50310594
   0.75724500  0.23723800  0.48952179
   0.99772756  0.48725818  0.50327710
   0.23871177  0.50384620  0.49649832
   0.50783719  0.50934262  0.50127738
   0.74423644  0.49939799  0.50717766
   0.99784146  0.74927898  0.50211268
   0.24786273  0.75066635  0.49576734
   0.50330095  0.75509448  0.49463893
   0.75385116  0.75061419  0.49035467
   0.99990443  0.99148731  0.74968474
   0.24132669  0.00663602  0.75464487
   0.50148366  0.99703559  0.74932505
   0.75088285  0.00397587  0.74076763
   0.99660864  0.23531300  0.77073178
   0.25233649  0.25104782  0.75306099
   0.49053320  0.24764861  0.75302918
   0.76109240  0.24336982  0.76339026
   0.99009239  0.49776888  0.75819298
   0.23661406  0.50575065  0.74547179
   0.49313247  0.49851003  0.74688297
   0.75762251  0.50156645  0.74087178
   0.99822495  0.75004738  0.74412116
   0.24947436  0.75777724  0.74516214
   0.50038688  0.74556152  0.74790631
   0.74820608  0.74850913  0.74777789
   0.06904764  0.05881729  0.06033124
   0.32124599  0.04903927  0.06724534
   0.56783072  0.05506976  0.06715787
   0.80979753  0.06077980  0.06870020
   0.06620603  0.31166578  0.06128270
   0.31396881  0.31232358  0.06099830
   0.56862094  0.32003519  0.05412143
   0.80419478  0.32704111  0.06976896
   0.06146022  0.55510676  0.06366304
   0.31179825  0.55730884  0.07060782
   0.57005934  0.57255707  0.04569560
   0.81888508  0.56120067  0.05794878
   0.06515869  0.79832359  0.07038627
   0.31561799  0.80804997  0.05371037
   0.55840305  0.80678298  0.07150482
   0.80938940  0.82681205  0.04692081
   0.06566007  0.05730000  0.31785170
   0.32371412  0.06013640  0.30162589
   0.55295705  0.06932318  0.32463245
   0.79989456  0.07343158  0.31938522
   0.06654900  0.31506709  0.30593360
   0.31766426  0.30484583  0.32157565
   0.56633679  0.31801721  0.31437419
   0.81547374  0.29861856  0.31429016
   0.05535664  0.56590201  0.31036188
   0.31425724  0.55250408  0.31827509
   0.57134449  0.55662503  0.31333607
   0.81729002  0.55702999  0.31683992
   0.06541464  0.81869724  0.30593273
   0.29991668  0.81099191  0.30651346
   0.57503922  0.81632962  0.30324650
   0.80960586  0.82167686  0.30809459
   0.06103785  0.06261078  0.57193591
   0.30703388  0.06129423  0.56742829
   0.56798956  0.06870010  0.53780890
   0.82020629  0.06126047  0.56683337
   0.05531378  0.30430783  0.57498491
   0.29664614  0.31893926  0.56997074
   0.56383566  0.32103293  0.57148946
   0.81671315  0.32206429  0.55874643
   0.07104028  0.57449009  0.56153838
   0.30382002  0.55396448  0.56494052
   0.56866872  0.55389985  0.57066313
   0.82188265  0.56262646  0.56145682
   0.06240374  0.80929530  0.55915526
   0.30801582  0.82263369  0.55391851
   0.55198488  0.80954271  0.57229614
   0.80086916  0.82462458  0.55108334
   0.06134500  0.05346947  0.80894809
   0.31119833  0.06544896  0.81477778
   0.56626343  0.06369262  0.81587881
   0.81508194  0.06475773  0.80862447
   0.06512848  0.30741412  0.81657644
   0.31136835  0.31024521  0.82147691
   0.55933221  0.31669095  0.81098003
   0.80550035  0.31871693  0.81827805
   0.06235042  0.56549611  0.81090890
   0.31404575  0.55931128  0.81134530
   0.56097120  0.56532014  0.80146455
   0.81250928  0.57195143  0.80418890
   0.06888459  0.81036694  0.81455806
   0.31024639  0.81814938  0.81521847
   0.55491708  0.80931957  0.82150191
   0.81703928  0.80214058  0.82101944
