 128 128   0   0
  0.2044346E+02  0.1546773E-08  0.1546773E-08  0.1546773E-08  0.5000000E-15
  1.000000000000000E-004
  CAR 
 potpaw_PBE@./ARUN.APL1ZEROSTATE         
      9.34928979     -7.05358746  301      5.86367838      1.00000000
     -7.054  0.0000E+00  0.0000E+00
     -6.999  0.0000E+00  0.0000E+00
     -6.944  0.0000E+00  0.0000E+00
     -6.890  0.0000E+00  0.0000E+00
     -6.835  0.0000E+00  0.0000E+00
     -6.780  0.0000E+00  0.0000E+00
     -6.726  0.0000E+00  0.0000E+00
     -6.671  0.0000E+00  0.0000E+00
     -6.616  0.0000E+00  0.0000E+00
     -6.562  0.0000E+00  0.0000E+00
     -6.507  0.0000E+00  0.0000E+00
     -6.452  0.0000E+00  0.0000E+00
     -6.397  0.0000E+00  0.0000E+00
     -6.343  0.1972E-05  0.1078E-06
     -6.288  0.4561E+01  0.2494E+00
     -6.233  0.1126E-01  0.2500E+00
     -6.179  0.6937E-02  0.2504E+00
     -6.124  0.1807E+02  0.1238E+01
     -6.069  0.3138E+02  0.2954E+01
     -6.015  0.1380E+02  0.3709E+01
     -5.960  0.7561E+00  0.3750E+01
     -5.905  0.2562E+01  0.3890E+01
     -5.851  0.9716E+01  0.4421E+01
     -5.796  0.1590E+02  0.5291E+01
     -5.741  0.3357E+02  0.7126E+01
     -5.687  0.2050E+02  0.8247E+01
     -5.632  0.2199E+02  0.9449E+01
     -5.577  0.2766E+02  0.1096E+02
     -5.523  0.2351E+02  0.1225E+02
     -5.468  0.1869E+02  0.1327E+02
     -5.413  0.1663E+02  0.1418E+02
     -5.359  0.1095E+02  0.1478E+02
     -5.304  0.1058E+02  0.1536E+02
     -5.249  0.1730E+02  0.1630E+02
     -5.195  0.2688E+02  0.1777E+02
     -5.140  0.2580E+02  0.1918E+02
     -5.085  0.4408E+02  0.2159E+02
     -5.031  0.3823E+02  0.2368E+02
     -4.976  0.2357E+02  0.2497E+02
     -4.921  0.3321E+02  0.2679E+02
     -4.867  0.3113E+02  0.2849E+02
     -4.812  0.1919E+02  0.2954E+02
     -4.757  0.3393E+02  0.3139E+02
     -4.703  0.4098E+02  0.3363E+02
     -4.648  0.4202E+02  0.3593E+02
     -4.593  0.3209E+02  0.3769E+02
     -4.538  0.3154E+02  0.3941E+02
     -4.484  0.2394E+02  0.4072E+02
     -4.429  0.2631E+02  0.4216E+02
     -4.374  0.1848E+02  0.4317E+02
     -4.320  0.2443E+02  0.4450E+02
     -4.265  0.3503E+02  0.4642E+02
     -4.210  0.6176E+02  0.4980E+02
     -4.156  0.4961E+02  0.5251E+02
     -4.101  0.6576E+02  0.5610E+02
     -4.046  0.5375E+02  0.5904E+02
     -3.992  0.4478E+02  0.6149E+02
     -3.937  0.5375E+02  0.6443E+02
     -3.882  0.3962E+02  0.6660E+02
     -3.828  0.6711E+02  0.7027E+02
     -3.773  0.5627E+02  0.7334E+02
     -3.718  0.4739E+02  0.7593E+02
     -3.664  0.4354E+02  0.7831E+02
     -3.609  0.1575E+02  0.7918E+02
     -3.554  0.3189E+02  0.8092E+02
     -3.500  0.4059E+02  0.8314E+02
     -3.445  0.5106E+02  0.8593E+02
     -3.390  0.5359E+02  0.8886E+02
     -3.336  0.4498E+02  0.9132E+02
     -3.281  0.5341E+02  0.9424E+02
     -3.226  0.2893E+02  0.9582E+02
     -3.172  0.2999E+02  0.9746E+02
     -3.117  0.5154E+02  0.1003E+03
     -3.062  0.3465E+02  0.1022E+03
     -3.008  0.5745E+02  0.1053E+03
     -2.953  0.2785E+02  0.1068E+03
     -2.898  0.4583E+02  0.1093E+03
     -2.844  0.3654E+02  0.1113E+03
     -2.789  0.2640E+02  0.1128E+03
     -2.734  0.3400E+02  0.1146E+03
     -2.679  0.3376E+02  0.1165E+03
     -2.625  0.2657E+02  0.1179E+03
     -2.570  0.3463E+02  0.1198E+03
     -2.515  0.3484E+02  0.1217E+03
     -2.461  0.1388E+02  0.1225E+03
     -2.406  0.9152E+01  0.1230E+03
     -2.351  0.6079E-12  0.1230E+03
     -2.297  0.5951E+01  0.1233E+03
     -2.242  0.1586E+02  0.1242E+03
     -2.187  0.1822E+02  0.1252E+03
     -2.133  0.2444E+02  0.1265E+03
     -2.078  0.2216E+02  0.1277E+03
     -2.023  0.3488E+02  0.1296E+03
     -1.969  0.1184E+02  0.1303E+03
     -1.914  0.2612E+02  0.1317E+03
     -1.859  0.1169E+02  0.1324E+03
     -1.805  0.9553E+01  0.1329E+03
     -1.750  0.4796E+01  0.1331E+03
     -1.695  0.6543E+01  0.1335E+03
     -1.641  0.9272E+01  0.1340E+03
     -1.586  0.2459E+02  0.1354E+03
     -1.531  0.3890E+02  0.1375E+03
     -1.477  0.2747E+02  0.1390E+03
     -1.422  0.3971E+02  0.1412E+03
     -1.367  0.4231E+02  0.1435E+03
     -1.313  0.5609E+02  0.1465E+03
     -1.258  0.5562E+02  0.1496E+03
     -1.203  0.6095E+02  0.1529E+03
     -1.149  0.7688E+02  0.1571E+03
     -1.094  0.6237E+02  0.1605E+03
     -1.039  0.7391E+02  0.1646E+03
     -0.985  0.6184E+02  0.1679E+03
     -0.930  0.7140E+02  0.1718E+03
     -0.875  0.5171E+02  0.1747E+03
     -0.820  0.5713E+02  0.1778E+03
     -0.766  0.5891E+02  0.1810E+03
     -0.711  0.4859E+02  0.1837E+03
     -0.656  0.4213E+02  0.1860E+03
     -0.602  0.2468E+02  0.1873E+03
     -0.547  0.3784E+02  0.1894E+03
     -0.492  0.7329E+01  0.1898E+03
     -0.438  0.2540E+02  0.1912E+03
     -0.383  0.4044E+02  0.1934E+03
     -0.328  0.4162E+02  0.1957E+03
     -0.274  0.5373E+02  0.1986E+03
     -0.219  0.5142E+02  0.2014E+03
     -0.164  0.5405E+02  0.2044E+03
     -0.110  0.2837E+02  0.2059E+03
     -0.055  0.4508E+02  0.2084E+03
     -0.000  0.4990E+02  0.2111E+03
      0.054  0.3012E+02  0.2128E+03
      0.109  0.1588E+02  0.2136E+03
      0.164  0.6665E+01  0.2140E+03
      0.218  0.1541E+02  0.2148E+03
      0.273  0.1688E+02  0.2158E+03
      0.328  0.2428E+02  0.2171E+03
      0.382  0.2114E+02  0.2182E+03
      0.437  0.3526E+02  0.2202E+03
      0.492  0.1422E+02  0.2210E+03
      0.546  0.1708E+02  0.2219E+03
      0.601  0.2471E+02  0.2232E+03
      0.656  0.1953E+02  0.2243E+03
      0.710  0.2687E+02  0.2258E+03
      0.765  0.2274E+02  0.2270E+03
      0.820  0.1174E+02  0.2277E+03
      0.874  0.8979E+01  0.2282E+03
      0.929  0.1523E+02  0.2290E+03
      0.984  0.2549E+02  0.2304E+03
      1.038  0.1916E+02  0.2314E+03
      1.093  0.3813E+02  0.2335E+03
      1.148  0.3215E+02  0.2353E+03
      1.203  0.1380E+02  0.2360E+03
      1.257  0.2872E+02  0.2376E+03
      1.312  0.2357E+02  0.2389E+03
      1.367  0.3264E+02  0.2407E+03
      1.421  0.5679E+02  0.2438E+03
      1.476  0.6338E+02  0.2472E+03
      1.531  0.7003E+02  0.2511E+03
      1.585  0.8840E+02  0.2559E+03
      1.640  0.8213E+02  0.2604E+03
      1.695  0.6289E+02  0.2638E+03
      1.749  0.5530E+02  0.2669E+03
      1.804  0.6351E+02  0.2703E+03
      1.859  0.3462E+02  0.2722E+03
      1.913  0.2521E+02  0.2736E+03
      1.968  0.1759E+02  0.2746E+03
      2.023  0.3552E+02  0.2765E+03
      2.077  0.7274E+02  0.2805E+03
      2.132  0.9033E+02  0.2854E+03
      2.187  0.1029E+03  0.2910E+03
      2.241  0.1256E+03  0.2979E+03
      2.296  0.1108E+03  0.3040E+03
      2.351  0.1162E+03  0.3103E+03
      2.405  0.8925E+02  0.3152E+03
      2.460  0.6900E+02  0.3190E+03
      2.515  0.6163E+02  0.3223E+03
      2.569  0.3425E+02  0.3242E+03
      2.624  0.5419E+02  0.3272E+03
      2.679  0.6263E+02  0.3306E+03
      2.733  0.7712E+02  0.3348E+03
      2.788  0.7846E+02  0.3391E+03
      2.843  0.8955E+02  0.3440E+03
      2.897  0.9312E+02  0.3491E+03
      2.952  0.1053E+03  0.3549E+03
      3.007  0.1059E+03  0.3606E+03
      3.062  0.7884E+02  0.3650E+03
      3.116  0.8355E+02  0.3695E+03
      3.171  0.7520E+02  0.3736E+03
      3.226  0.8423E+02  0.3782E+03
      3.280  0.1014E+03  0.3838E+03
      3.335  0.8829E+02  0.3886E+03
      3.390  0.7651E+02  0.3928E+03
      3.444  0.8387E+02  0.3974E+03
      3.499  0.9875E+02  0.4028E+03
      3.554  0.7436E+02  0.4068E+03
      3.608  0.8897E+02  0.4117E+03
      3.663  0.8044E+02  0.4161E+03
      3.718  0.7485E+02  0.4202E+03
      3.772  0.7681E+02  0.4244E+03
      3.827  0.8289E+02  0.4289E+03
      3.882  0.8382E+02  0.4335E+03
      3.936  0.7633E+02  0.4377E+03
      3.991  0.6479E+02  0.4412E+03
      4.046  0.5603E+02  0.4443E+03
      4.100  0.6633E+02  0.4479E+03
      4.155  0.8305E+02  0.4525E+03
      4.210  0.7087E+02  0.4563E+03
      4.264  0.7557E+02  0.4605E+03
      4.319  0.7960E+02  0.4648E+03
      4.374  0.6803E+02  0.4685E+03
      4.428  0.5849E+02  0.4717E+03
      4.483  0.5914E+02  0.4750E+03
      4.538  0.7478E+02  0.4791E+03
      4.592  0.6988E+02  0.4829E+03
      4.647  0.5261E+02  0.4858E+03
      4.702  0.4984E+02  0.4885E+03
      4.756  0.3958E+02  0.4906E+03
      4.811  0.2230E+02  0.4919E+03
      4.866  0.2256E+02  0.4931E+03
      4.921  0.3859E+02  0.4952E+03
      4.975  0.3098E+02  0.4969E+03
      5.030  0.4435E+02  0.4993E+03
      5.085  0.2562E+02  0.5007E+03
      5.139  0.3379E+02  0.5026E+03
      5.194  0.1136E+02  0.5032E+03
      5.249  0.1379E+02  0.5040E+03
      5.303  0.4908E+01  0.5042E+03
      5.358  0.7272E+01  0.5046E+03
      5.413  0.2551E+02  0.5060E+03
      5.467  0.3051E+02  0.5077E+03
      5.522  0.1565E+02  0.5085E+03
      5.577  0.2648E+02  0.5100E+03
      5.631  0.2110E+02  0.5111E+03
      5.686  0.6382E+01  0.5115E+03
      5.741  0.1890E+00  0.5115E+03
      5.795  0.3407E+01  0.5117E+03
      5.850  0.5738E+01  0.5120E+03
      5.905  0.0000E+00  0.5120E+03
      5.959  0.0000E+00  0.5120E+03
      6.014  0.0000E+00  0.5120E+03
      6.069  0.3148E-03  0.5120E+03
      6.123  0.4573E+01  0.5123E+03
      6.178  0.2032E+02  0.5134E+03
      6.233  0.1385E+02  0.5141E+03
      6.287  0.8416E+01  0.5146E+03
      6.342  0.2882E+02  0.5162E+03
      6.397  0.2436E+02  0.5175E+03
      6.451  0.2940E+02  0.5191E+03
      6.506  0.2861E+02  0.5207E+03
      6.561  0.1082E+02  0.5212E+03
      6.615  0.1567E+02  0.5221E+03
      6.670  0.2746E+02  0.5236E+03
      6.725  0.1096E+02  0.5242E+03
      6.780  0.4273E+02  0.5265E+03
      6.834  0.3683E+02  0.5286E+03
      6.889  0.3550E+02  0.5305E+03
      6.944  0.2954E+02  0.5321E+03
      6.998  0.4778E+02  0.5347E+03
      7.053  0.3164E+02  0.5365E+03
      7.108  0.3637E+02  0.5384E+03
      7.162  0.2790E+02  0.5400E+03
      7.217  0.3626E+02  0.5420E+03
      7.272  0.5955E+02  0.5452E+03
      7.326  0.8315E+02  0.5498E+03
      7.381  0.7559E+02  0.5539E+03
      7.436  0.5992E+02  0.5572E+03
      7.490  0.9418E+02  0.5623E+03
      7.545  0.8120E+02  0.5668E+03
      7.600  0.7912E+02  0.5711E+03
      7.654  0.7902E+02  0.5754E+03
      7.709  0.1061E+03  0.5812E+03
      7.764  0.8257E+02  0.5857E+03
      7.818  0.9862E+02  0.5911E+03
      7.873  0.1020E+03  0.5967E+03
      7.928  0.8607E+02  0.6014E+03
      7.982  0.8522E+02  0.6061E+03
      8.037  0.9809E+02  0.6114E+03
      8.092  0.7784E+02  0.6157E+03
      8.146  0.8384E+02  0.6203E+03
      8.201  0.9887E+02  0.6257E+03
      8.256  0.7730E+02  0.6299E+03
      8.310  0.8659E+02  0.6346E+03
      8.365  0.6979E+02  0.6384E+03
      8.420  0.6494E+02  0.6420E+03
      8.474  0.2650E+02  0.6434E+03
      8.529  0.5676E+01  0.6437E+03
      8.584  0.5178E-01  0.6438E+03
      8.638  0.4561E+01  0.6440E+03
      8.693  0.0000E+00  0.6440E+03
      8.748  0.0000E+00  0.6440E+03
      8.803  0.0000E+00  0.6440E+03
      8.857  0.0000E+00  0.6440E+03
      8.912  0.0000E+00  0.6440E+03
      8.967  0.0000E+00  0.6440E+03
      9.021  0.0000E+00  0.6440E+03
      9.076  0.0000E+00  0.6440E+03
      9.131  0.0000E+00  0.6440E+03
      9.185  0.0000E+00  0.6440E+03
      9.240  0.0000E+00  0.6440E+03
      9.295  0.0000E+00  0.6440E+03
      9.349  0.0000E+00  0.6440E+03
