 vasp.5.4.4.18Apr17-6-g9f103f2a35 (build Nov 08 2017 09:05:29) complex          
  
 executed on          Intel_17.33 date 2020.07.18  19:45:26
 running on   32 total cores
 distrk:  each k-point on   32 cores,    1 groups
 distr:  one band on NCORES_PER_BAND=  16 cores,    2 groups


--------------------------------------------------------------------------------------------------------


 INCAR:
 POTCAR:   PAW_PBE Si 05Jan2001                   

 ----------------------------------------------------------------------------- 
|                                                                             |
|           W    W    AA    RRRRR   N    N  II  N    N   GGGG   !!!           |
|           W    W   A  A   R    R  NN   N  II  NN   N  G    G  !!!           |
|           W    W  A    A  R    R  N N  N  II  N N  N  G       !!!           |
|           W WW W  AAAAAA  RRRRR   N  N N  II  N  N N  G  GGG   !            |
|           WW  WW  A    A  R   R   N   NN  II  N   NN  G    G                |
|           W    W  A    A  R    R  N    N  II  N    N   GGGG   !!!           |
|                                                                             |
|      For optimal performance we recommend to set                            |
|        NCORE= 4 - approx SQRT( number of cores)                             |
|      NCORE specifies how many cores store one orbital (NPAR=cpu/NCORE).     |
|      This setting can  greatly improve the performance of VASP for DFT.     |
|      The default,   NCORE=1            might be grossly inefficient         |
|      on modern multi-core architectures or massively parallel machines.     |
|      Do your own testing !!!!                                               |
|      Unfortunately you need to use the default for GW and RPA calculations. |
|      (for HF NCORE is supported but not extensively tested yet)             |
|                                                                             |
 ----------------------------------------------------------------------------- 

 POTCAR:   PAW_PBE Si 05Jan2001                   
   VRHFIN =Si: s2p2                                                             
   LEXCH  = PE                                                                  
   EATOM  =   103.0669 eV,    7.5752 Ry                                         
                                                                                
   TITEL  = PAW_PBE Si 05Jan2001                                                
   LULTRA =        F    use ultrasoft PP ?                                      
   IUNSCR =        1    unscreen: 0-lin 1-nonlin 2-no                           
   RPACOR =    1.500    partial core radius                                     
   POMASS =   28.085; ZVAL   =    4.000    mass and valenz                      
   RCORE  =    1.900    outmost cutoff radius                                   
   RWIGS  =    2.480; RWIGS  =    1.312    wigner-seitz radius (au A)           
   ENMAX  =  245.345; ENMIN  =  184.009 eV                                      
   ICORE  =        2    local potential                                         
   LCOR   =        T    correct aug charges                                     
   LPAW   =        T    paw PP                                                  
   EAUG   =  322.069                                                            
   DEXC   =    -.007                                                            
   RMAX   =    2.944    core radius for proj-oper                               
   RAUG   =    1.300    factor for augmentation sphere                          
   RDEP   =    1.993    radius for radial grids                                 
   QCUT   =   -4.246; QGAM   =    8.493    optimization parameters              
                                                                                
   Description                                                                  
     l     E      TYP  RCUT    TYP  RCUT                                        
     0   .000     23  1.900                                                     
     0   .000     23  1.900                                                     
     1   .000     23  1.900                                                     
     1   .000     23  1.900                                                     
     2   .000      7  1.900                                                     
  local pseudopotential read in
  partial core-charges read in
  atomic valenz-charges read in
  non local Contribution for L=           0  read in
    real space projection operators read in
  non local Contribution for L=           0  read in
    real space projection operators read in
  non local Contribution for L=           1  read in
    real space projection operators read in
  non local Contribution for L=           1  read in
    real space projection operators read in
    PAW grid and wavefunctions read in
 
   number of l-projection  operators is LMAX  =           4
   number of lm-projection operators is LMMAX =           8
 

 ----------------------------------------------------------------------------- 
|                                                                             |
|  ADVICE TO THIS USER RUNNING 'VASP/VAMP'   (HEAR YOUR MASTER'S VOICE ...):  |
|                                                                             |
|      You have a (more or less) 'large supercell' and for larger cells       |
|      it might be more efficient to use real space projection operators      |
|      So try LREAL= Auto  in the INCAR   file.                               |
|      Mind: If you want to do a very accurate calculations keep the          |
|      reciprocal projection scheme          (i.e. LREAL=.FALSE.)             |
|                                                                             |
 ----------------------------------------------------------------------------- 

 PAW_PBE Si 05Jan2001                   :
 energy of atom  1       EATOM= -103.0669
 kinetic energy error for atom=    0.0006 (will be added to EATOM!!)
 
 
 POSCAR: kk                                      
  positions in direct lattice
  No initial velocities read in
 exchange correlation table for  LEXCH =        8
   RHO(1)=    0.500       N(1)  =     2000
   RHO(2)=  100.500       N(2)  =     4000
 


--------------------------------------------------------------------------------------------------------


 ion  position               nearest neighbor table
   1  0.991  0.995  0.012-  68 2.16  77 2.25  65 2.31 113 2.39
   2  0.249  0.991  0.002- 114 2.22  78 2.26  66 2.32  65 2.44
   3  0.504  0.002  0.002-  67 2.26 115 2.36  66 2.49  79 2.50
   4  0.747  0.011  0.001-  68 2.32  67 2.39 116 2.59  80 2.61
   5  0.997  0.243  0.014-  69 2.27  65 2.29  72 2.33 117 2.50
   6  0.250  0.244  0.995- 118 2.29  66 2.32  70 2.46  69 2.47
   7  0.502  0.247  1.000-  67 2.25 119 2.35  71 2.45  70 2.60
   8  0.748  0.250  0.997-  68 2.22 120 2.36  71 2.37  72 2.48
   9  0.997  0.507  0.984-  76 2.24 121 2.27  69 2.36  73 2.52
  10  0.245  0.499  0.005-  74 2.23  73 2.24 122 2.33  70 2.34
  11  0.495  0.506  0.997-  74 2.28  71 2.35 123 2.43  75 2.44
  12  0.761  0.495  0.005-  72 2.29 124 2.33  75 2.42  76 2.49
  13  0.003  0.745  0.005-  73 2.42  77 2.46 125 2.53  80 2.54
  14  0.256  0.757  0.995- 126 2.24  78 2.35  77 2.36  74 2.65
  15  0.493  0.744  0.018-  75 2.24  78 2.29  79 2.46 127 2.61
  16  0.760  0.749  0.991-  80 2.27 128 2.28  76 2.32  79 2.36
  17  0.995  0.993  0.246-  93 2.26  65 2.31  84 2.46  81 2.52
  18  0.263  0.998  0.245-  82 2.27  94 2.32  66 2.39  81 2.68
  19  0.498  0.007  0.245-  67 2.34  83 2.39  82 2.49  95 2.49
  20  0.751  0.993  0.249-  96 2.29  84 2.46  83 2.49  68 2.57
  21  0.002  0.254  0.242-  81 2.34  69 2.34  85 2.42  88 2.50
  22  0.239  0.254  0.263-  85 2.23  86 2.29  82 2.33  70 2.40
  23  0.503  0.246  0.243-  71 2.31  83 2.37  87 2.38  86 2.43
  24  0.748  0.248  0.258-  84 2.17  87 2.27  88 2.35  72 2.44
  25  0.007  0.498  0.241-  73 2.22  85 2.35  89 2.36  92 2.55
  26  0.238  0.502  0.253-  74 2.44  89 2.45  90 2.48  86 2.53
  27  0.498  0.505  0.239-  90 2.36  75 2.36  91 2.39  87 2.44
  28  0.742  0.500  0.255-  88 2.27  91 2.30  76 2.38  92 2.39
  29  0.005  0.747  0.255-  96 2.24  93 2.29  89 2.29  77 2.47
  30  0.240  0.753  0.254-  93 2.30  78 2.35  94 2.37  90 2.38
  31  0.496  0.745  0.252-  94 2.30  79 2.30  95 2.32  91 2.38
  32  0.752  0.745  0.249-  80 2.27  92 2.29  95 2.43  96 2.49
  33  0.993  0.002  0.505- 100 2.24  97 2.34  81 2.44 109 2.69
  34  0.253  0.004  0.509-  98 2.19  97 2.33 110 2.43  82 2.47
  35  0.500  0.998  0.499-  83 2.21  99 2.23  98 2.24 111 2.32
  36  0.750  0.998  0.507- 100 2.27 112 2.28  84 2.52  99 2.56
  37  0.005  0.250  0.504- 101 2.30  97 2.37  85 2.38 104 2.41
  38  0.244  0.245  0.502- 101 2.26  86 2.27  98 2.44 102 2.44
  39  0.500  0.240  0.506-  99 2.30 103 2.43 102 2.44  87 2.60
  40  0.741  0.263  0.489- 103 2.16  88 2.21 104 2.50 100 2.64
  41  0.999  0.488  0.514- 108 2.20 101 2.26 105 2.36  89 2.47
  42  0.244  0.513  0.496- 106 2.25  90 2.31 105 2.34 102 2.50
  43  0.500  0.509  0.497- 107 2.29  91 2.32 106 2.39 103 2.49
  44  0.743  0.494  0.501- 104 2.21  92 2.32 107 2.36 108 2.62
  45  0.997  0.766  0.493-  93 2.26 109 2.26 112 2.29 105 2.50
  46  0.254  0.743  0.503- 109 2.33 106 2.35 110 2.38  94 2.50
  47  0.498  0.746  0.505- 107 2.20 110 2.26 111 2.44  95 2.51
  48  0.754  0.755  0.497- 108 2.41 111 2.45  96 2.45 112 2.46
  49  0.997  0.015  0.735- 116 2.31  97 2.33 113 2.49 125 2.58
  50  0.240  0.014  0.752- 113 2.27 114 2.29 126 2.35  98 2.39
  51  0.500  0.014  0.738-  99 2.17 115 2.29 127 2.48 114 2.49
  52  0.737  0.006  0.749- 116 2.29 128 2.30 100 2.32 115 2.36
  53  0.010  0.245  0.749- 117 2.25 101 2.34 113 2.34 120 2.46
  54  0.258  0.254  0.747- 118 2.33 102 2.34 117 2.52 114 2.53
  55  0.503  0.252  0.749- 115 2.37 118 2.38 103 2.43 119 2.47
  56  0.742  0.241  0.759- 119 2.29 116 2.30 120 2.47 104 2.58
  57  0.994  0.499  0.756- 121 2.27 124 2.41 117 2.42 105 2.46
  58  0.251  0.500  0.740- 106 2.27 118 2.36 122 2.40 121 2.50
  59  0.501  0.491  0.749- 119 2.14 107 2.41 122 2.46 123 2.48
  60  0.744  0.494  0.748- 123 2.24 120 2.31 108 2.47 124 2.51
  61  0.000  0.747  0.748- 121 2.22 109 2.23 125 2.29 128 2.52
  62  0.242  0.734  0.758- 122 2.28 125 2.32 110 2.57 126 2.66
  63  0.502  0.749  0.743- 111 2.21 123 2.32 127 2.47 126 2.60
  64  0.755  0.741  0.748- 124 2.30 112 2.30 128 2.44 127 2.48
  65  0.055  0.061  0.064-   5 2.29   1 2.31  17 2.31   2 2.44
  66  0.307  0.061  0.057-   6 2.32   2 2.32  18 2.39   3 2.49
  67  0.558  0.068  0.060-   7 2.25   3 2.26  19 2.34   4 2.39
  68  0.822  0.075  0.046-   1 2.16   8 2.22   4 2.32  20 2.57
  69  0.055  0.320  0.057-   5 2.27  21 2.34   9 2.36   6 2.47
  70  0.296  0.314  0.073-  10 2.34  22 2.40   6 2.46   7 2.60
  71  0.561  0.320  0.061-  23 2.31  11 2.35   8 2.37   7 2.45
  72  0.813  0.314  0.065-  12 2.29   5 2.33  24 2.44   8 2.48
  73  0.068  0.553  0.065-  25 2.22  10 2.24  13 2.42   9 2.52
  74  0.315  0.548  0.061-  10 2.23  11 2.28  26 2.44  14 2.65
  75  0.570  0.568  0.053-  15 2.24  27 2.36  12 2.42  11 2.44
  76  0.823  0.567  0.068-   9 2.24  16 2.32  28 2.38  12 2.49
  77  0.070  0.819  0.059-   1 2.25  14 2.36  13 2.46  29 2.47
  78  0.313  0.813  0.068-   2 2.26  15 2.29  14 2.35  30 2.35
  79  0.574  0.805  0.071-  31 2.30  16 2.36  15 2.46   3 2.50
  80  0.802  0.805  0.070-  16 2.27  32 2.27  13 2.54   4 2.61
  81  0.051  0.070  0.312-  21 2.34  33 2.44  17 2.52  18 2.68
  82  0.301  0.069  0.314-  18 2.27  22 2.33  34 2.47  19 2.49
  83  0.554  0.060  0.325-  35 2.21  23 2.37  19 2.39  20 2.49
  84  0.801  0.076  0.308-  24 2.17  20 2.46  17 2.46  36 2.52
  85  0.062  0.312  0.315-  22 2.23  25 2.35  37 2.38  21 2.42
  86  0.312  0.302  0.323-  38 2.27  22 2.29  23 2.43  26 2.53
  87  0.569  0.312  0.300-  24 2.27  23 2.38  27 2.44  39 2.60
  88  0.804  0.321  0.314-  40 2.21  28 2.27  24 2.35  21 2.50
  89  0.044  0.567  0.320-  29 2.29  25 2.36  26 2.45  41 2.47
  90  0.312  0.565  0.313-  42 2.31  27 2.36  30 2.38  26 2.48
  91  0.560  0.557  0.314-  28 2.30  43 2.32  31 2.38  27 2.39
  92  0.805  0.564  0.317-  32 2.29  44 2.32  28 2.39  25 2.55
  93  0.058  0.815  0.315-  17 2.26  45 2.26  29 2.29  30 2.30
  94  0.314  0.815  0.305-  31 2.30  18 2.32  30 2.37  46 2.50
  95  0.560  0.810  0.306-  31 2.32  32 2.43  19 2.49  47 2.51
  96  0.828  0.812  0.303-  29 2.24  20 2.29  48 2.45  32 2.49
  97  0.070  0.063  0.551-  34 2.33  49 2.33  33 2.34  37 2.37
  98  0.322  0.053  0.564-  34 2.19  35 2.24  50 2.39  38 2.44
  99  0.548  0.058  0.568-  51 2.17  35 2.23  39 2.30  36 2.56
 100  0.815  0.054  0.566-  33 2.24  36 2.27  52 2.32  40 2.64
 101  0.066  0.309  0.565-  38 2.26  41 2.26  37 2.30  53 2.34
 102  0.308  0.314  0.562-  54 2.34  39 2.44  38 2.44  42 2.50
 103  0.570  0.312  0.556-  40 2.16  55 2.43  39 2.43  43 2.49
 104  0.814  0.320  0.555-  44 2.21  37 2.41  40 2.50  56 2.58
 105  0.058  0.568  0.561-  42 2.34  41 2.36  57 2.46  45 2.50
 106  0.311  0.558  0.560-  42 2.25  58 2.27  46 2.35  43 2.39
 107  0.556  0.571  0.559-  47 2.20  43 2.29  44 2.36  59 2.41
 108  0.826  0.564  0.554-  41 2.20  48 2.41  60 2.47  44 2.62
 109  0.070  0.789  0.573-  61 2.23  45 2.26  46 2.33  33 2.69
 110  0.319  0.813  0.556-  47 2.26  46 2.38  34 2.43  62 2.57
 111  0.560  0.815  0.568-  63 2.21  35 2.32  47 2.44  48 2.45
 112  0.816  0.818  0.566-  36 2.28  45 2.29  64 2.30  48 2.46
 113  0.060  0.061  0.823-  50 2.27  53 2.34   1 2.39  49 2.49
 114  0.305  0.054  0.827-   2 2.22  50 2.29  51 2.49  54 2.53
 115  0.551  0.065  0.816-  51 2.29  52 2.36   3 2.36  55 2.37
 116  0.815  0.060  0.797-  52 2.29  56 2.30  49 2.31   4 2.59
 117  0.059  0.308  0.816-  53 2.25  57 2.42   5 2.50  54 2.52
 118  0.314  0.314  0.814-   6 2.29  54 2.33  58 2.36  55 2.38
 119  0.563  0.322  0.815-  59 2.14  56 2.29   7 2.35  55 2.47
 120  0.816  0.311  0.810-  60 2.31   8 2.36  53 2.46  56 2.47
 121  0.053  0.571  0.804-  61 2.22  57 2.27   9 2.27  58 2.50
 122  0.306  0.553  0.820-  62 2.28  10 2.33  58 2.40  59 2.46
 123  0.567  0.566  0.805-  60 2.24  63 2.32  11 2.43  59 2.48
 124  0.803  0.560  0.822-  64 2.30  12 2.33  57 2.41  60 2.51
 125  0.060  0.812  0.805-  61 2.29  62 2.32  13 2.53  49 2.58
 126  0.297  0.828  0.819-  14 2.24  50 2.35  63 2.60  62 2.66
 127  0.559  0.818  0.812-  63 2.47  64 2.48  51 2.48  15 2.61
 128  0.801  0.824  0.811-  16 2.28  52 2.30  64 2.44  61 2.52
 
  LATTYP: Found a face centered cubic cell.
 ALAT       =    21.8746673814
  
  Lattice vectors:
  
 A1 = (   0.0000000000,  10.9373336907,  10.9373336907)
 A2 = (  10.9373336907,   0.0000000000,  10.9373336907)
 A3 = (  10.9373336907,  10.9373336907,   0.0000000000)


Analysis of symmetry for initial positions (statically):
=====================================================================
 Subroutine PRICEL returns:
 Original cell was already a primitive cell.
 

 Routine SETGRP: Setting up the symmetry group for a 
 face centered cubic supercell.


 Subroutine GETGRP returns: Found  1 space group operations
 (whereof  1 operations were pure point group operations)
 out of a pool of 48 trial point group operations.


The static configuration has the point symmetry C_1 .


Analysis of symmetry for dynamics (positions and initial velocities):
=====================================================================
 Subroutine PRICEL returns:
 Original cell was already a primitive cell.
 

 Routine SETGRP: Setting up the symmetry group for a 
 face centered cubic supercell.


 Subroutine GETGRP returns: Found  1 space group operations
 (whereof  1 operations were pure point group operations)
 out of a pool of 48 trial point group operations.


The dynamic configuration has the point symmetry C_1 .


 Subroutine INISYM returns: Found  1 space group operations
 (whereof  1 operations are pure point group operations),
 and found     1 'primitive' translations

 
 
 KPOINTS: KPOINTS File, automatically generated by

Automatic generation of k-mesh.
Space group operators:
 irot       det(A)        alpha          n_x          n_y          n_z        tau_x        tau_y        tau_z
    1     1.000000     0.000001     1.000000     0.000000     0.000000     0.000000     0.000000     0.000000
 
 Subroutine IBZKPT returns following result:
 ===========================================
 
 Found      8 irreducible k-points:
 
 Following reciprocal coordinates:
            Coordinates               Weight
  0.000000  0.000000  0.000000      1.000000
  0.500000  0.000000  0.000000      1.000000
  0.000000  0.500000  0.000000      1.000000
  0.500000  0.500000  0.000000      1.000000
  0.000000  0.000000  0.500000      1.000000
  0.500000  0.000000  0.500000      1.000000
  0.000000  0.500000  0.500000      1.000000
  0.500000  0.500000  0.500000      1.000000
 
 Following cartesian coordinates:
            Coordinates               Weight
  0.000000  0.000000  0.000000      1.000000
 -0.022857  0.022857  0.022857      1.000000
  0.022857 -0.022857  0.022857      1.000000
  0.000000  0.000000  0.045715      1.000000
  0.022857  0.022857 -0.022857      1.000000
  0.000000  0.045715  0.000000      1.000000
  0.045715  0.000000  0.000000      1.000000
  0.022857  0.022857  0.022857      1.000000
 


--------------------------------------------------------------------------------------------------------




 Dimension of arrays:
   k-points           NKPTS =      8   k-points in BZ     NKDIM =      8   number of bands    NBANDS=    322
   number of dos      NEDOS =    301   number of ions     NIONS =    128
   non local maximal  LDIM  =      4   non local SUM 2l+1 LMDIM =      8
   total plane-waves  NPLWV = ******
   max r-space proj   IRMAX =      1   max aug-charges    IRDMAX= 176811
   dimension x,y,z NGX =   120 NGY =  120 NGZ =  120
   dimension x,y,z NGXF=   240 NGYF=  240 NGZF=  240
   support grid    NGXF=   480 NGYF=  480 NGZF=  480
   ions per type =             128
   NGX,Y,Z   is equivalent  to a cutoff of  12.90, 12.90, 12.90 a.u.
   NGXF,Y,Z  is equivalent  to a cutoff of  25.80, 25.80, 25.80 a.u.

 SYSTEM =  potpaw_PBE@./ARUN.APL1ZEROSTATE         
 POSCAR =  kk                                      

 Startparameter for this run:
   NWRITE =      2    write-flag & timer
   PREC   = accura    normal or accurate (medium, high low for compatibility)
   ISTART =      0    job   : 0-new  1-cont  2-samecut
   ICHARG =      2    charge: 1-file 2-atom 10-const
   ISPIN  =      1    spin polarized calculation?
   LNONCOLLINEAR =      F non collinear calculations
   LSORBIT =      F    spin-orbit coupling
   INIWAV =      1    electr: 0-lowe 1-rand  2-diag
   LASPH  =      F    aspherical Exc in radial PAW
   METAGGA=      F    non-selfconsistent MetaGGA calc.

 Electronic Relaxation 1
   ENCUT  =  500.0 eV  36.75 Ry    6.06 a.u.  28.20 28.20 28.20*2*pi/ulx,y,z
   ENINI  =  500.0     initial cutoff
   ENAUG  =  322.1 eV  augmentation charge cutoff
   NELM   =    120;   NELMIN=  4; NELMDL= -5     # of ELM steps 
   EDIFF  = 0.1E-07   stopping-criterion for ELM
   LREAL  =      F    real-space projection
   NLSPLINE    = F    spline interpolate recip. space projectors
   LCOMPAT=      F    compatible to vasp.4.4
   GGA_COMPAT  = T    GGA compatible to vasp.4.4-vasp.4.6
   LMAXPAW     = -100 max onsite density
   LMAXMIX     =    2 max onsite mixed and CHGCAR
   VOSKOWN=      0    Vosko Wilk Nusair interpolation
   ROPT   =    0.00000
 Ionic relaxation
   EDIFFG = 0.1E-06   stopping-criterion for IOM
   NSW    =      0    number of steps for IOM
   NBLOCK =      1;   KBLOCK =      1    inner block; outer block 
   IBRION =     -1    ionic relax: 0-MD 1-quasi-New 2-CG
   NFREE  =      0    steps in history (QN), initial steepest desc. (CG)
   ISIF   =      2    stress and relaxation
   IWAVPR =     10    prediction:  0-non 1-charg 2-wave 3-comb
   ISYM   =      2    0-nonsym 1-usesym 2-fastsym
   LCORR  =      T    Harris-Foulkes like correction to forces

   POTIM  = 0.5000    time-step for ionic-motion
   TEIN   =    0.0    initial temperature
   TEBEG  =    0.0;   TEEND  =   0.0 temperature during run
   SMASS  =  -3.00    Nose mass-parameter (am)
   estimated Nose-frequenzy (Omega)   =  0.10E-29 period in steps =****** mass=  -0.547E-26a.u.
   SCALEE = 1.0000    scale energy and forces
   NPACO  =    256;   APACO  = 16.0  distance and # of slots for P.C.
   PSTRESS=    0.0 pullay stress

  Mass of Ions in am
   POMASS =  28.09
  Ionic Valenz
   ZVAL   =   4.00
  Atomic Wigner-Seitz radii
   RWIGS  =  -1.00
  virtual crystal weights 
   VCA    =   1.00
   NELECT =     512.0000    total number of electrons
   NUPDOWN=      -1.0000    fix difference up-down

 DOS related values:
   EMIN   =  10.00;   EMAX   =-10.00  energy-range for DOS
   EFERMI =   0.00
   ISMEAR =     0;   SIGMA  =   0.01  broadening in eV -4-tet -1-fermi 0-gaus

 Electronic relaxation 2 (details)
   IALGO  =     38    algorithm
   LDIAG  =      T    sub-space diagonalisation (order eigenvalues)
   LSUBROT=      F    optimize rotation matrix (better conditioning)
   TURBO    =      0    0=normal 1=particle mesh
   IRESTART =      0    0=no restart 2=restart with 2 vectors
   NREBOOT  =      0    no. of reboots
   NMIN     =      0    reboot dimension
   EREF     =   0.00    reference energy to select bands
   IMIX   =      4    mixing-type and parameters
     AMIX     =   0.40;   BMIX     =  1.00
     AMIX_MAG =   1.60;   BMIX_MAG =  1.00
     AMIN     =   0.10
     WC   =   100.;   INIMIX=   1;  MIXPRE=   1;  MAXMIX= -45

 Intra band minimization:
   WEIMIN = 0.0000     energy-eigenvalue tresh-hold
   EBREAK =  0.78E-11  absolut break condition
   DEPER  =   0.30     relativ break condition  

   TIME   =   0.40     timestep for ELM

  volume/ion in A,a.u.               =      20.44       137.96
  Fermi-wavevector in a.u.,A,eV,Ry     =   0.950408  1.796010 12.289804  0.903275
  Thomas-Fermi vector in A             =   2.078782
 
 Write flags
   LWAVE        =      F    write WAVECAR
   LDOWNSAMPLE  =      F    k-point downsampling of WAVECAR
   LCHARG       =      F    write CHGCAR
   LVTOT        =      F    write LOCPOT, total local potential
   LVHAR        =      F    write LOCPOT, Hartree potential only
   LELF         =      F    write electronic localiz. function (ELF)
   LORBIT       =      0    0 simple, 1 ext, 2 COOP (PROOUT), +10 PAW based schemes


 Dipole corrections
   LMONO  =      F    monopole corrections only (constant potential shift)
   LDIPOL =      F    correct potential (dipole corrections)
   IDIPOL =      0    1-x, 2-y, 3-z, 4-all directions 
   EPSILON=  1.0000000 bulk dielectric constant

 Exchange correlation treatment:
   GGA     =    --    GGA type
   LEXCH   =     8    internal setting for exchange type
   VOSKOWN=      0    Vosko Wilk Nusair interpolation
   LHFCALC =     F    Hartree Fock is set to
   LHFONE  =     F    Hartree Fock one center treatment
   AEXX    =    0.0000 exact exchange contribution

 Linear response parameters
   LEPSILON=     F    determine dielectric tensor
   LRPA    =     F    only Hartree local field effects (RPA)
   LNABLA  =     F    use nabla operator in PAW spheres
   LVEL    =     F    velocity operator in full k-point grid
   LINTERFAST=   F  fast interpolation
   KINTER  =     0    interpolate to denser k-point grid
   CSHIFT  =0.1000    complex shift for real part using Kramers Kronig
   OMEGAMAX=  -1.0    maximum frequency
   DEG_THRESHOLD= 0.2000000E-02 threshold for treating states as degnerate
   RTIME   =   -0.100 relaxation time in fs
  (WPLASMAI=    0.000 imaginary part of plasma frequency in eV, 0.658/RTIME)
   DFIELD  = 0.0000000 0.0000000 0.0000000 field for delta impulse in time
 
 Orbital magnetization related:
   ORBITALMAG=     F  switch on orbital magnetization
   LCHIMAG   =     F  perturbation theory with respect to B field
   DQ        =  0.001000  dq finite difference perturbation B field
   LLRAUG    =     F  two centre corrections for induced B field



--------------------------------------------------------------------------------------------------------


 Static calculation
 charge density and potential will be updated during run
 non-spin polarized calculation
 Variant of blocked Davidson
 Davidson routine will perform the subspace rotation
 perform sub-space diagonalisation
    after iterative eigenvector-optimisation
 modified Broyden-mixing scheme, WC =      100.0
 initial mixing is a Kerker type mixing with AMIX =  0.4000 and BMIX =      1.0000
 Hartree-type preconditioning will be used
 using additional bands           66
 reciprocal scheme for non local part
 use partial core corrections
 calculate Harris-corrections to forces 
   (improved forces if not selfconsistent)
 use gradient corrections 
 use of overlap-Matrix (Vanderbilt PP)
 Gauss-broadening in eV      SIGMA  =   0.01


--------------------------------------------------------------------------------------------------------


  energy-cutoff  :      500.00
  volume of cell :     2616.76
      direct lattice vectors                 reciprocal lattice vectors
     0.000000000 10.937333691 10.937333691    -0.045714981  0.045714981  0.045714981
    10.937333691  0.000000000 10.937333691     0.045714981 -0.045714981  0.045714981
    10.937333691 10.937333691  0.000000000     0.045714981  0.045714981 -0.045714981

  length of vectors
    15.467725642 15.467725642 15.467725642     0.079180669  0.079180669  0.079180669


 
 k-points in units of 2pi/SCALE and weight: KPOINTS File, automatically generated by
   0.00000000  0.00000000  0.00000000       0.125
  -0.02285749  0.02285749  0.02285749       0.125
   0.02285749 -0.02285749  0.02285749       0.125
   0.00000000  0.00000000  0.04571498       0.125
   0.02285749  0.02285749 -0.02285749       0.125
   0.00000000  0.04571498  0.00000000       0.125
   0.04571498  0.00000000  0.00000000       0.125
   0.02285749  0.02285749  0.02285749       0.125
 
 k-points in reciprocal lattice and weights: KPOINTS File, automatically generated by
   0.00000000  0.00000000  0.00000000       0.125
   0.50000000  0.00000000  0.00000000       0.125
   0.00000000  0.50000000  0.00000000       0.125
   0.50000000  0.50000000  0.00000000       0.125
   0.00000000  0.00000000  0.50000000       0.125
   0.50000000  0.00000000  0.50000000       0.125
   0.00000000  0.50000000  0.50000000       0.125
   0.50000000  0.50000000  0.50000000       0.125
 
 position of ions in fractional coordinates (direct lattice) 
   0.99056633  0.99547043  0.01192237
   0.24872191  0.99090753  0.00234209
   0.50363226  0.00231495  0.00227637
   0.74747162  0.01100117  0.00101133
   0.99686599  0.24253183  0.01412982
   0.25004980  0.24444214  0.99501024
   0.50183804  0.24665734  0.99969520
   0.74833844  0.24976289  0.99691837
   0.99694981  0.50663135  0.98360156
   0.24460826  0.49908651  0.00455106
   0.49501778  0.50589791  0.99685683
   0.76097636  0.49456988  0.00473227
   0.00332148  0.74470469  0.00525153
   0.25637792  0.75672547  0.99458423
   0.49349633  0.74382383  0.01790539
   0.75951163  0.74892958  0.99079106
   0.99515231  0.99278261  0.24627468
   0.26279916  0.99811545  0.24501632
   0.49825231  0.00736216  0.24527221
   0.75067073  0.99272962  0.24855441
   0.00174286  0.25440661  0.24186167
   0.23861456  0.25354512  0.26345519
   0.50331652  0.24645897  0.24316117
   0.74839605  0.24754758  0.25796669
   0.00742012  0.49800762  0.24087531
   0.23793046  0.50180702  0.25312242
   0.49770921  0.50536684  0.23929310
   0.74227684  0.50030021  0.25468864
   0.00469510  0.74738413  0.25487482
   0.23967194  0.75280973  0.25418912
   0.49551195  0.74543352  0.25202797
   0.75228904  0.74490051  0.24937730
   0.99286940  0.00162015  0.50497033
   0.25282339  0.00433615  0.50887800
   0.49989213  0.99829871  0.49925280
   0.75009132  0.99835299  0.50675049
   0.00472981  0.24969969  0.50350737
   0.24407747  0.24495891  0.50220193
   0.50017495  0.24001110  0.50595606
   0.74077271  0.26254245  0.48893200
   0.99877770  0.48820726  0.51432756
   0.24358305  0.51262710  0.49558608
   0.49968067  0.50913205  0.49692583
   0.74275967  0.49399172  0.50077240
   0.99742882  0.76580923  0.49348152
   0.25385004  0.74333443  0.50283366
   0.49820264  0.74568602  0.50513624
   0.75365455  0.75481901  0.49730361
   0.99745838  0.01539115  0.73531996
   0.23961877  0.01418931  0.75176270
   0.49973640  0.01438037  0.73795629
   0.73741728  0.00600833  0.74873898
   0.01027301  0.24539842  0.74941797
   0.25801803  0.25390113  0.74697592
   0.50309929  0.25224887  0.74907044
   0.74230476  0.24073765  0.75916480
   0.99434430  0.49895909  0.75579888
   0.25092816  0.50001550  0.73968251
   0.50074590  0.49110363  0.74918027
   0.74398564  0.49392559  0.74837230
   0.00049171  0.74661741  0.74818363
   0.24243675  0.73371688  0.75840048
   0.50167269  0.74939212  0.74260209
   0.75526903  0.74111019  0.74769719
   0.05525250  0.06148192  0.06359411
   0.30746261  0.06078837  0.05730654
   0.55845962  0.06823723  0.06019313
   0.82163856  0.07507971  0.04577673
   0.05475965  0.32027266  0.05658287
   0.29575707  0.31429221  0.07334612
   0.56132230  0.31975767  0.06087990
   0.81307887  0.31367524  0.06478406
   0.06768908  0.55300228  0.06495017
   0.31528177  0.54751987  0.06121134
   0.57017041  0.56817145  0.05253675
   0.82280618  0.56691863  0.06777972
   0.06970819  0.81858530  0.05946626
   0.31272153  0.81250930  0.06813350
   0.57367902  0.80451071  0.07132126
   0.80248227  0.80529742  0.06986315
   0.05096750  0.06992119  0.31225968
   0.30112624  0.06934133  0.31409752
   0.55441993  0.06012140  0.32468216
   0.80138972  0.07649389  0.30756204
   0.06187799  0.31202481  0.31548491
   0.31157006  0.30216990  0.32284918
   0.56946214  0.31210156  0.29983156
   0.80404043  0.32093031  0.31427421
   0.04377406  0.56741589  0.32014160
   0.31150859  0.56469894  0.31290819
   0.56009254  0.55700477  0.31423435
   0.80546420  0.56388631  0.31711951
   0.05792816  0.81476496  0.31529395
   0.31398051  0.81467125  0.30499125
   0.56041012  0.81011038  0.30635983
   0.82768480  0.81243281  0.30319543
   0.06993569  0.06291685  0.55110477
   0.32229802  0.05276063  0.56424186
   0.54767033  0.05822225  0.56781477
   0.81533756  0.05400640  0.56588571
   0.06573198  0.30949415  0.56459522
   0.30760774  0.31449961  0.56206621
   0.57004330  0.31195691  0.55637415
   0.81442753  0.32002804  0.55537230
   0.05834772  0.56787859  0.56112834
   0.31148659  0.55783258  0.56020311
   0.55637618  0.57122436  0.55928084
   0.82585092  0.56449317  0.55411198
   0.07028865  0.78910494  0.57261813
   0.31949071  0.81251563  0.55626323
   0.55967344  0.81473150  0.56792765
   0.81631442  0.81801283  0.56637455
   0.06038818  0.06073136  0.82261463
   0.30491075  0.05433230  0.82666632
   0.55090782  0.06509062  0.81636455
   0.81542414  0.06001129  0.79701713
   0.05920513  0.30759921  0.81629911
   0.31441873  0.31423223  0.81449449
   0.56275448  0.32242579  0.81464314
   0.81551261  0.31127424  0.81007986
   0.05331343  0.57110438  0.80379919
   0.30624672  0.55329173  0.82026862
   0.56692708  0.56551820  0.80466019
   0.80320744  0.55981849  0.82179966
   0.06014838  0.81155690  0.80493213
   0.29708566  0.82787506  0.81860227
   0.55933459  0.81788066  0.81151820
   0.80114797  0.82371720  0.81126068
 
 position of ions in cartesian coordinates  (Angst):
  11.01819118 10.96455346 21.72194679
  10.86350255  2.74597073 13.55824088
   0.05021685  5.53329155  5.53371351
   0.13138467  8.18640776  8.29566991
   2.80719406 11.05759847 13.55570753
  13.55630426 13.61763716  5.40842342
  13.63177363 16.42277016  8.18654377
  13.63536893 19.08845609 10.91656729
  16.29917462 21.66195122 16.44516884
   5.50845221  2.72513862  8.13403783
  16.43613008 16.31713041 10.94734894
   5.46103419  8.37481073 13.73232818
   8.20252145  0.09376590  8.18141187
  19.15465856 13.68219051 11.08064981
   8.33128665  5.59337122 13.53298342
  19.02790509 19.14364455 16.49832486
  13.55198301 13.57790119 21.74270759
  13.59654702  5.55414742 13.79104389
   2.76314633  8.13217571  5.53007409
  13.57633767 10.92885883 19.06815147
   5.42785176  2.66438404  2.80159231
   5.65460492  5.49130438  5.38291458
   5.35513890  8.16447561  8.20054478
   5.52897834 11.00692510 10.89296781
   8.08140913  2.71568998  5.52803179
   8.25691513  5.37080918  8.09075561
   8.14459423  8.06084017 10.97097750
   8.25756494 10.90414415 13.59047983
  10.96204058  2.83900288  8.22574145
  11.01388250  5.40152329 10.85510325
  10.90956918  8.17609352 13.57263467
  10.87474816 10.95555893 16.37526169
   5.54074913 16.38237295 10.87706405
   5.61319439  8.33098231  2.81263967
  16.37922057 10.92798147 16.38621321
  16.46181897 13.74649828 19.12331888
   8.23807698  5.55875961  2.78278029
   8.17194743  8.16230678  5.34875414
   8.15889180 11.00439063  8.09566180
   8.21912683 13.44969075 10.97359275
  10.96505780 16.54933712 16.26365065
  11.02716402  8.08453951  8.27092279
  11.00359070 10.90021779 11.03372127
  10.88006714 13.60092523 13.52676272
  13.77328316 16.30658389 19.28512301
  13.62975624  8.27610218 10.90653931
  13.68066048 10.97385220 13.60482538
  13.69488293 13.68214685 16.49867878
   8.21077791 18.95197485 11.07787326
   8.37747270 10.84306992  2.77598364
   8.22855717 13.53705804  5.62306672
   8.25492315 16.25458683  8.13109395
  10.88063888  8.30899381  2.79636379
  10.94692626 10.99195421  5.59903071
  10.95176336 13.69539820  8.26149487
  10.93626674 16.42207355 10.75186290
  13.72370662 19.14190005 16.33275747
  13.55899074 10.83463938  8.21332135
  13.56539889 13.67085960 10.84818928
  13.58742661 16.32241682 13.53944822
  16.34913772  8.18851202  8.17138176
  16.31978544 10.94649075 10.67651793
  16.31843851 13.60904847 13.68331329
  16.28358313 16.43844306 16.36639879
   1.36799829  1.29986503  1.27676336
   1.29164340  3.98960189  4.02768378
   1.40468571  6.76641165  6.85439260
   1.32184724  9.48721047  9.80770701
   4.12179477  1.21779036  4.10185356
   4.23972973  4.03700471  6.67231251
   4.16316004  6.80523308  9.63666561
   4.13933562  9.60147979 12.32368571
   6.75875225  1.45071984  6.78870862
   6.65789635  4.11783078  9.43674941
   6.78889280  6.81075605 12.45042481
   6.94190769  9.74063515 15.19988402
   9.60354286  1.41282401  9.71556227
   9.63188417  4.16553853 12.30702511
   9.57926649  7.05458328 15.07372095
   9.57192322  9.54113293 17.58482293
   4.18003966  3.97273680  1.32219987
   4.19379863  6.72890758  4.05192739
   4.20872497  9.61503291  6.72144363
   4.20054785 12.12897543  9.60170595
   6.86328326  4.12734403  4.08949978
   6.83604218  6.93885491  6.71267872
   6.69291679  9.50775528  9.64195636
   6.94744383 12.23138040 12.30418033
   9.70751239  3.98026696  6.68478843
   9.59868204  6.82945470  9.58337420
   9.52903291  9.56280497 12.21806603
   9.63585468 12.27807265 14.97704349
  12.35983131  4.08205470  9.54493578
  12.24612240  6.76990065 12.34444091
  12.21120721  9.48015214 14.98984002
  12.20199834 12.36881443 17.93851357
   6.71575934  6.79252674  1.45305249
   6.74836216  9.69638255  4.10214160
   6.84717580 12.20043272  6.62684931
   6.77996679 15.10689971  9.50830491
   9.56020706  6.89409894  4.10397337
   9.58729294  9.51191423  6.80419575
   9.49722650 12.32000350  9.64673057
   9.57454561 14.98195778 12.40791910
  12.34832552  6.77541642  6.84924611
  12.22832940  9.53396114  9.50803381
  12.36471260 12.20231311 12.33294332
  12.23455783 15.09311473 15.20665725
  14.89361967  7.03168609  9.39947453
  14.97079108  9.57841301 12.38113102
  15.12260452 12.33294947 15.03232549
  15.14150670 15.12293061 17.87518250
   9.66144979  9.65769637  1.32472481
   9.63577591 12.37643605  3.92916120
   9.64076937 14.95431419  6.73738049
   9.37360585 17.63580826  9.57492947
  12.29245099  9.57568205  4.01186157
  12.34526073 12.34730051  6.87576525
  12.43650224 15.06505740  9.68151197
  12.26462397 17.77964721 12.32404375
  15.03777910  9.37452665  6.82946590
  15.02308783 12.32107413  9.40105880
  14.98609832 15.00150765 12.38593188
  15.11121874 17.77324488 14.90786947
  17.68007994  9.46167417  9.53413157
  18.00807196 12.20265118 12.30407072
  17.82127902 14.99347440 15.06306269
  17.88229864 17.63545152 17.77169256
 


--------------------------------------------------------------------------------------------------------


 k-point  1 :   0.0000 0.0000 0.0000  plane waves:   66299
 k-point  2 :   0.5000 0.0000 0.0000  plane waves:   66394
 k-point  3 :   0.0000 0.5000 0.0000  plane waves:   66394
 k-point  4 :   0.5000 0.5000 0.0000  plane waves:   66552
 k-point  5 :   0.0000 0.0000 0.5000  plane waves:   66394
 k-point  6 :   0.5000 0.0000 0.5000  plane waves:   66552
 k-point  7 :   0.0000 0.5000 0.5000  plane waves:   66552
 k-point  8 :   0.5000 0.5000 0.5000  plane waves:   66394

 maximum and minimum number of plane-waves per node :      4207     4110

 maximum number of plane-waves:     66552
 maximum index in each direction: 
   IXMAX=   28   IYMAX=   28   IZMAX=   28
   IXMIN=  -28   IYMIN=  -28   IZMIN=  -28


 parallel 3D FFT for wavefunctions:
    minimum data exchange during FFTs selected (reduces bandwidth)
 parallel 3D FFT for charge:
    minimum data exchange during FFTs selected (reduces bandwidth)


 total amount of memory used by VASP MPI-rank0   221701. kBytes
=======================================================================

   base      :      30000. kBytes
   nonl-proj :      10690. kBytes
   fftplans  :      66746. kBytes
   grid      :      26864. kBytes
   one-center:         24. kBytes
   wavefun   :      87377. kBytes
 
     INWAV:  cpu time    0.0000: real time    0.0000
 Broyden mixing: mesh for mixing (old mesh)
   NGX = 57   NGY = 57   NGZ = 57
  (NGX  =240   NGY  =240   NGZ  =240)
  gives a total of 185193 points

 initial charge density was supplied:
 charge density of overlapping atoms calculated
 number of electron     512.0000000 magnetization 
 keeping initial charge density in first step


--------------------------------------------------------------------------------------------------------


 Maximum index for augmentation-charges         5608 (set IRDMAX)


--------------------------------------------------------------------------------------------------------


 First call to EWALD:  gamma=   0.129
 Maximum number of real-space cells 3x 3x 3
 Maximum number of reciprocal cells 3x 3x 3

    FEWALD:  cpu time    0.0060: real time    0.0060


--------------------------------------- Iteration      1(   1)  ---------------------------------------


    POTLOK:  cpu time    0.4939: real time    0.4994
    SETDIJ:  cpu time    0.5110: real time    0.5112
     EDDAV:  cpu time   70.4359: real time   70.4588
       DOS:  cpu time    0.0035: real time    0.0034
    --------------------------------------------
      LOOP:  cpu time   71.4443: real time   71.4729

 eigenvalue-minimisations  :  5152
 total energy-change (2. order) : 0.1383224E+04  (-0.1908180E+05)
 number of electron     512.0000000 magnetization 
 augmentation part      512.0000000 magnetization 

 Free energy of the ion-electron system (eV)
  ---------------------------------------------------
  alpha Z        PSCENC =       210.77028614
  Ewald energy   TEWEN  =    -14471.15499842
  -Hartree energ DENC   =      -757.22752324
  -exchange      EXHF   =         0.00000000
  -V(xc)+E(xc)   XCENC  =     -1195.36601411
  PAW double counting   =      4221.13331941    -1969.18571412
  entropy T*S    EENTRO =        -0.00140771
  eigenvalues    EBANDS =      2151.77495027
  atomic energy  EATOM  =     13192.48085998
  Solvation  Ediel_sol  =         0.00000000
  ---------------------------------------------------
  free energy    TOTEN  =      1383.22375820 eV

  energy without entropy =     1383.22516591  energy(sigma->0) =     1383.22446206


--------------------------------------------------------------------------------------------------------




--------------------------------------- Iteration      1(   2)  ---------------------------------------


     EDDAV:  cpu time   80.3503: real time   80.3800
       DOS:  cpu time    0.0011: real time    0.0011
    --------------------------------------------
      LOOP:  cpu time   80.3515: real time   80.3811

 eigenvalue-minimisations  :  6120
 total energy-change (2. order) :-0.1919812E+04  (-0.1826374E+04)
 number of electron     512.0000000 magnetization 
 augmentation part      512.0000000 magnetization 

 Free energy of the ion-electron system (eV)
  ---------------------------------------------------
  alpha Z        PSCENC =       210.77028614
  Ewald energy   TEWEN  =    -14471.15499842
  -Hartree energ DENC   =      -757.22752324
  -exchange      EXHF   =         0.00000000
  -V(xc)+E(xc)   XCENC  =     -1195.36601411
  PAW double counting   =      4221.13331941    -1969.18571412
  entropy T*S    EENTRO =        -0.00000000
  eigenvalues    EBANDS =       231.96192666
  atomic energy  EATOM  =     13192.48085998
  Solvation  Ediel_sol  =         0.00000000
  ---------------------------------------------------
  free energy    TOTEN  =      -536.58785770 eV

  energy without entropy =     -536.58785770  energy(sigma->0) =     -536.58785770


--------------------------------------------------------------------------------------------------------




--------------------------------------- Iteration      1(   3)  ---------------------------------------


     EDDAV:  cpu time   81.8316: real time   81.8549
       DOS:  cpu time    0.0017: real time    0.0017
    --------------------------------------------
      LOOP:  cpu time   81.8333: real time   81.8566

 eigenvalue-minimisations  :  6264
 total energy-change (2. order) :-0.1493274E+03  (-0.1462851E+03)
 number of electron     512.0000000 magnetization 
 augmentation part      512.0000000 magnetization 

 Free energy of the ion-electron system (eV)
  ---------------------------------------------------
  alpha Z        PSCENC =       210.77028614
  Ewald energy   TEWEN  =    -14471.15499842
  -Hartree energ DENC   =      -757.22752324
  -exchange      EXHF   =         0.00000000
  -V(xc)+E(xc)   XCENC  =     -1195.36601411
  PAW double counting   =      4221.13331941    -1969.18571412
  entropy T*S    EENTRO =        -0.00000000
  eigenvalues    EBANDS =        82.63450462
  atomic energy  EATOM  =     13192.48085998
  Solvation  Ediel_sol  =         0.00000000
  ---------------------------------------------------
  free energy    TOTEN  =      -685.91527974 eV

  energy without entropy =     -685.91527974  energy(sigma->0) =     -685.91527974


--------------------------------------------------------------------------------------------------------




--------------------------------------- Iteration      1(   4)  ---------------------------------------


     EDDAV:  cpu time   81.2500: real time   81.2774
       DOS:  cpu time    0.0010: real time    0.0010
    --------------------------------------------
      LOOP:  cpu time   81.2509: real time   81.2784

 eigenvalue-minimisations  :  6200
 total energy-change (2. order) :-0.4292409E+01  (-0.4255799E+01)
 number of electron     512.0000000 magnetization 
 augmentation part      512.0000000 magnetization 

 Free energy of the ion-electron system (eV)
  ---------------------------------------------------
  alpha Z        PSCENC =       210.77028614
  Ewald energy   TEWEN  =    -14471.15499842
  -Hartree energ DENC   =      -757.22752324
  -exchange      EXHF   =         0.00000000
  -V(xc)+E(xc)   XCENC  =     -1195.36601411
  PAW double counting   =      4221.13331941    -1969.18571412
  entropy T*S    EENTRO =        -0.00000000
  eigenvalues    EBANDS =        78.34209539
  atomic energy  EATOM  =     13192.48085998
  Solvation  Ediel_sol  =         0.00000000
  ---------------------------------------------------
  free energy    TOTEN  =      -690.20768897 eV

  energy without entropy =     -690.20768897  energy(sigma->0) =     -690.20768897


--------------------------------------------------------------------------------------------------------




--------------------------------------- Iteration      1(   5)  ---------------------------------------


     EDDAV:  cpu time   82.3198: real time   82.3524
       DOS:  cpu time    0.0010: real time    0.0010
    CHARGE:  cpu time    3.2310: real time    3.2316
    MIXING:  cpu time    0.0295: real time    0.0296
    --------------------------------------------
      LOOP:  cpu time   85.5814: real time   85.6146

 eigenvalue-minimisations  :  6312
 total energy-change (2. order) :-0.1501292E+00  (-0.1496974E+00)
 number of electron     511.9999998 magnetization 
 augmentation part      -30.1800031 magnetization 

 Broyden mixing:
  rms(total) = 0.23950E+01    rms(broyden)= 0.23950E+01
  rms(prec ) = 0.29025E+01
  weight for this iteration     100.00

 Free energy of the ion-electron system (eV)
  ---------------------------------------------------
  alpha Z        PSCENC =       210.77028614
  Ewald energy   TEWEN  =    -14471.15499842
  -Hartree energ DENC   =      -757.22752324
  -exchange      EXHF   =         0.00000000
  -V(xc)+E(xc)   XCENC  =     -1195.36601411
  PAW double counting   =      4221.13331941    -1969.18571412
  entropy T*S    EENTRO =        -0.00000000
  eigenvalues    EBANDS =        78.19196623
  atomic energy  EATOM  =     13192.48085998
  Solvation  Ediel_sol  =         0.00000000
  ---------------------------------------------------
  free energy    TOTEN  =      -690.35781813 eV

  energy without entropy =     -690.35781813  energy(sigma->0) =     -690.35781813


--------------------------------------------------------------------------------------------------------




--------------------------------------- Iteration      1(   6)  ---------------------------------------


    POTLOK:  cpu time    0.4918: real time    0.4932
    SETDIJ:  cpu time    0.5053: real time    0.5053
     EDDAV:  cpu time   78.1985: real time   78.2230
       DOS:  cpu time    0.0010: real time    0.0010
    CHARGE:  cpu time    3.2239: real time    3.2250
    MIXING:  cpu time    0.0395: real time    0.0395
    --------------------------------------------
      LOOP:  cpu time   82.4600: real time   82.4870

 eigenvalue-minimisations  :  5928
 total energy-change (2. order) : 0.8462480E+01  (-0.5901873E+00)
 number of electron     511.9999998 magnetization 
 augmentation part      -29.8399663 magnetization 

 Broyden mixing:
  rms(total) = 0.14223E+01    rms(broyden)= 0.14223E+01
  rms(prec ) = 0.17141E+01
  weight for this iteration     100.00

 eigenvalues of (default mixing * dielectric matrix)
  average eigenvalue GAMMA=   2.4285
  2.4285

 Free energy of the ion-electron system (eV)
  ---------------------------------------------------
  alpha Z        PSCENC =       210.77028614
  Ewald energy   TEWEN  =    -14471.15499842
  -Hartree energ DENC   =      -852.19210407
  -exchange      EXHF   =         0.00000000
  -V(xc)+E(xc)   XCENC  =     -1180.76043878
  PAW double counting   =      4465.09315648    -2219.89520761
  entropy T*S    EENTRO =        -0.00000000
  eigenvalues    EBANDS =       173.76310787
  atomic energy  EATOM  =     13192.48085998
  Solvation  Ediel_sol  =         0.00000000
  ---------------------------------------------------
  free energy    TOTEN  =      -681.89533840 eV

  energy without entropy =     -681.89533840  energy(sigma->0) =     -681.89533840


--------------------------------------------------------------------------------------------------------




--------------------------------------- Iteration      1(   7)  ---------------------------------------


    POTLOK:  cpu time    0.4901: real time    0.4927
    SETDIJ:  cpu time    0.5088: real time    0.5088
     EDDAV:  cpu time   77.1097: real time   77.1301
       DOS:  cpu time    0.0011: real time    0.0011
    CHARGE:  cpu time    3.2058: real time    3.2059
    MIXING:  cpu time    0.0283: real time    0.0283
    --------------------------------------------
      LOOP:  cpu time   81.3437: real time   81.3670

 eigenvalue-minimisations  :  5816
 total energy-change (2. order) : 0.3530991E+01  (-0.1119171E+01)
 number of electron     511.9999998 magnetization 
 augmentation part      -29.3940376 magnetization 

 Broyden mixing:
  rms(total) = 0.15593E+00    rms(broyden)= 0.15593E+00
  rms(prec ) = 0.20204E+00
  weight for this iteration     100.00

 eigenvalues of (default mixing * dielectric matrix)
  average eigenvalue GAMMA=   2.1164
  2.1164  2.1164

 Free energy of the ion-electron system (eV)
  ---------------------------------------------------
  alpha Z        PSCENC =       210.77028614
  Ewald energy   TEWEN  =    -14471.15499842
  -Hartree energ DENC   =     -1001.93935655
  -exchange      EXHF   =         0.00000000
  -V(xc)+E(xc)   XCENC  =     -1156.93525287
  PAW double counting   =      4783.61754733    -2546.91277890
  entropy T*S    EENTRO =        -0.00000000
  eigenvalues    EBANDS =       311.70934616
  atomic energy  EATOM  =     13192.48085998
  Solvation  Ediel_sol  =         0.00000000
  ---------------------------------------------------
  free energy    TOTEN  =      -678.36434712 eV

  energy without entropy =     -678.36434712  energy(sigma->0) =     -678.36434712


--------------------------------------------------------------------------------------------------------




--------------------------------------- Iteration      1(   8)  ---------------------------------------


    POTLOK:  cpu time    0.4900: real time    0.4931
    SETDIJ:  cpu time    0.5051: real time    0.5058
     EDDAV:  cpu time   77.5830: real time   77.6006
       DOS:  cpu time    0.0010: real time    0.0010
    CHARGE:  cpu time    3.2007: real time    3.2009
    MIXING:  cpu time    0.0426: real time    0.0426
    --------------------------------------------
      LOOP:  cpu time   81.8226: real time   81.8441

 eigenvalue-minimisations  :  5872
 total energy-change (2. order) :-0.5536633E-01  (-0.1063601E+00)
 number of electron     511.9999998 magnetization 
 augmentation part      -29.4629650 magnetization 

 Broyden mixing:
  rms(total) = 0.60868E-01    rms(broyden)= 0.60868E-01
  rms(prec ) = 0.75513E-01
  weight for this iteration     100.00

 eigenvalues of (default mixing * dielectric matrix)
  average eigenvalue GAMMA=   2.0158
  2.6844  1.6815  1.6815

 Free energy of the ion-electron system (eV)
  ---------------------------------------------------
  alpha Z        PSCENC =       210.77028614
  Ewald energy   TEWEN  =    -14471.15499842
  -Hartree energ DENC   =      -995.55304712
  -exchange      EXHF   =         0.00000000
  -V(xc)+E(xc)   XCENC  =     -1157.01198916
  PAW double counting   =      4736.47614563    -2498.30337699
  entropy T*S    EENTRO =        -0.00000000
  eigenvalues    EBANDS =       303.87640648
  atomic energy  EATOM  =     13192.48085998
  Solvation  Ediel_sol  =         0.00000000
  ---------------------------------------------------
  free energy    TOTEN  =      -678.41971345 eV

  energy without entropy =     -678.41971345  energy(sigma->0) =     -678.41971345


--------------------------------------------------------------------------------------------------------




--------------------------------------- Iteration      1(   9)  ---------------------------------------


    POTLOK:  cpu time    0.4909: real time    0.4922
    SETDIJ:  cpu time    0.5091: real time    0.5091
     EDDAV:  cpu time   79.4288: real time   79.4503
       DOS:  cpu time    0.0012: real time    0.0012
    CHARGE:  cpu time    3.2061: real time    3.2062
    MIXING:  cpu time    0.0289: real time    0.0289
    --------------------------------------------
      LOOP:  cpu time   83.6649: real time   83.6878

 eigenvalue-minimisations  :  6056
 total energy-change (2. order) :-0.2163713E-01  (-0.1009279E-01)
 number of electron     511.9999998 magnetization 
 augmentation part      -29.4670851 magnetization 

 Broyden mixing:
  rms(total) = 0.28132E-01    rms(broyden)= 0.28132E-01
  rms(prec ) = 0.32659E-01
  weight for this iteration     100.00

 eigenvalues of (default mixing * dielectric matrix)
  average eigenvalue GAMMA=   1.8002
  2.5943  1.8494  1.8494  0.9078

 Free energy of the ion-electron system (eV)
  ---------------------------------------------------
  alpha Z        PSCENC =       210.77028614
  Ewald energy   TEWEN  =    -14471.15499842
  -Hartree energ DENC   =     -1002.21711205
  -exchange      EXHF   =         0.00000000
  -V(xc)+E(xc)   XCENC  =     -1155.85502093
  PAW double counting   =      4739.73792980    -2501.65597156
  entropy T*S    EENTRO =        -0.00000000
  eigenvalues    EBANDS =       309.45267645
  atomic energy  EATOM  =     13192.48085998
  Solvation  Ediel_sol  =         0.00000000
  ---------------------------------------------------
  free energy    TOTEN  =      -678.44135059 eV

  energy without entropy =     -678.44135059  energy(sigma->0) =     -678.44135059


--------------------------------------------------------------------------------------------------------




--------------------------------------- Iteration      1(  10)  ---------------------------------------


    POTLOK:  cpu time    0.4931: real time    0.4936
    SETDIJ:  cpu time    0.5057: real time    0.5059
     EDDAV:  cpu time   79.4366: real time   79.4597
       DOS:  cpu time    0.0016: real time    0.0016
    CHARGE:  cpu time    3.2099: real time    3.2121
    MIXING:  cpu time    0.0378: real time    0.0379
    --------------------------------------------
      LOOP:  cpu time   83.6847: real time   83.7108

 eigenvalue-minimisations  :  6056
 total energy-change (2. order) :-0.2380504E-02  (-0.8748369E-03)
 number of electron     511.9999998 magnetization 
 augmentation part      -29.4767247 magnetization 

 Broyden mixing:
  rms(total) = 0.10855E-01    rms(broyden)= 0.10855E-01
  rms(prec ) = 0.13074E-01
  weight for this iteration     100.00

 eigenvalues of (default mixing * dielectric matrix)
  average eigenvalue GAMMA=   1.8592
  2.6911  2.6911  1.5051  1.5051  0.9036

 Free energy of the ion-electron system (eV)
  ---------------------------------------------------
  alpha Z        PSCENC =       210.77028614
  Ewald energy   TEWEN  =    -14471.15499842
  -Hartree energ DENC   =     -1001.06806882
  -exchange      EXHF   =         0.00000000
  -V(xc)+E(xc)   XCENC  =     -1156.02886758
  PAW double counting   =      4732.66467205    -2494.40708937
  entropy T*S    EENTRO =        -0.00000000
  eigenvalues    EBANDS =       308.29947492
  atomic energy  EATOM  =     13192.48085998
  Solvation  Ediel_sol  =         0.00000000
  ---------------------------------------------------
  free energy    TOTEN  =      -678.44373109 eV

  energy without entropy =     -678.44373109  energy(sigma->0) =     -678.44373109


--------------------------------------------------------------------------------------------------------




--------------------------------------- Iteration      1(  11)  ---------------------------------------


    POTLOK:  cpu time    0.4937: real time    0.4945
    SETDIJ:  cpu time    0.5051: real time    0.5053
     EDDAV:  cpu time   76.8849: real time   76.9203
       DOS:  cpu time    0.0013: real time    0.0013
    CHARGE:  cpu time    3.2104: real time    3.2108
    MIXING:  cpu time    0.0400: real time    0.0400
    --------------------------------------------
      LOOP:  cpu time   81.1354: real time   81.1722

 eigenvalue-minimisations  :  5784
 total energy-change (2. order) :-0.1377510E-02  (-0.2202418E-03)
 number of electron     511.9999998 magnetization 
 augmentation part      -29.4792018 magnetization 

 Broyden mixing:
  rms(total) = 0.38562E-02    rms(broyden)= 0.38562E-02
  rms(prec ) = 0.54320E-02
  weight for this iteration     100.00

 eigenvalues of (default mixing * dielectric matrix)
  average eigenvalue GAMMA=   1.7834
  2.8431  2.0901  2.0901  1.5528  1.2607  0.8634

 Free energy of the ion-electron system (eV)
  ---------------------------------------------------
  alpha Z        PSCENC =       210.77028614
  Ewald energy   TEWEN  =    -14471.15499842
  -Hartree energ DENC   =     -1000.94970321
  -exchange      EXHF   =         0.00000000
  -V(xc)+E(xc)   XCENC  =     -1156.04456831
  PAW double counting   =      4728.52056044    -2490.16785658
  entropy T*S    EENTRO =        -0.00000000
  eigenvalues    EBANDS =       308.10031135
  atomic energy  EATOM  =     13192.48085998
  Solvation  Ediel_sol  =         0.00000000
  ---------------------------------------------------
  free energy    TOTEN  =      -678.44510860 eV

  energy without entropy =     -678.44510860  energy(sigma->0) =     -678.44510860


--------------------------------------------------------------------------------------------------------




--------------------------------------- Iteration      1(  12)  ---------------------------------------


    POTLOK:  cpu time    0.4904: real time    0.4916
    SETDIJ:  cpu time    0.5049: real time    0.5049
     EDDAV:  cpu time   80.4417: real time   80.4633
       DOS:  cpu time    0.0010: real time    0.0010
    CHARGE:  cpu time    3.2021: real time    3.2030
    MIXING:  cpu time    0.0530: real time    0.0529
    --------------------------------------------
      LOOP:  cpu time   84.6931: real time   84.7168

 eigenvalue-minimisations  :  6152
 total energy-change (2. order) :-0.5306141E-04  (-0.4332310E-04)
 number of electron     511.9999998 magnetization 
 augmentation part      -29.4772553 magnetization 

 Broyden mixing:
  rms(total) = 0.17337E-02    rms(broyden)= 0.17337E-02
  rms(prec ) = 0.20670E-02
  weight for this iteration     100.00

 eigenvalues of (default mixing * dielectric matrix)
  average eigenvalue GAMMA=   1.8338
  3.1714  2.6891  1.7818  1.7818  0.8952  1.2586  1.2586

 Free energy of the ion-electron system (eV)
  ---------------------------------------------------
  alpha Z        PSCENC =       210.77028614
  Ewald energy   TEWEN  =    -14471.15499842
  -Hartree energ DENC   =     -1001.57421505
  -exchange      EXHF   =         0.00000000
  -V(xc)+E(xc)   XCENC  =     -1155.97489075
  PAW double counting   =      4729.83980141    -2491.53195352
  entropy T*S    EENTRO =        -0.00000000
  eigenvalues    EBANDS =       308.69994855
  atomic energy  EATOM  =     13192.48085998
  Solvation  Ediel_sol  =         0.00000000
  ---------------------------------------------------
  free energy    TOTEN  =      -678.44516166 eV

  energy without entropy =     -678.44516166  energy(sigma->0) =     -678.44516166


--------------------------------------------------------------------------------------------------------




--------------------------------------- Iteration      1(  13)  ---------------------------------------


    POTLOK:  cpu time    0.4886: real time    0.4926
    SETDIJ:  cpu time    0.5051: real time    0.5052
     EDDAV:  cpu time   76.4420: real time   76.4844
       DOS:  cpu time    0.0010: real time    0.0010
    CHARGE:  cpu time    3.2146: real time    3.2150
    MIXING:  cpu time    0.0438: real time    0.0438
    --------------------------------------------
      LOOP:  cpu time   80.6950: real time   80.7420

 eigenvalue-minimisations  :  5760
 total energy-change (2. order) :-0.2821479E-04  (-0.1127599E-04)
 number of electron     511.9999998 magnetization 
 augmentation part      -29.4771403 magnetization 

 Broyden mixing:
  rms(total) = 0.52423E-03    rms(broyden)= 0.52421E-03
  rms(prec ) = 0.68929E-03
  weight for this iteration     100.00

 eigenvalues of (default mixing * dielectric matrix)
  average eigenvalue GAMMA=   1.7868
  3.1417  2.5454  1.9686  1.9686  1.3852  1.3852  0.9499  0.9499

 Free energy of the ion-electron system (eV)
  ---------------------------------------------------
  alpha Z        PSCENC =       210.77028614
  Ewald energy   TEWEN  =    -14471.15499842
  -Hartree energ DENC   =     -1001.57925157
  -exchange      EXHF   =         0.00000000
  -V(xc)+E(xc)   XCENC  =     -1155.98441412
  PAW double counting   =      4729.33074230    -2491.01324206
  entropy T*S    EENTRO =        -0.00000000
  eigenvalues    EBANDS =       308.70482787
  atomic energy  EATOM  =     13192.48085998
  Solvation  Ediel_sol  =         0.00000000
  ---------------------------------------------------
  free energy    TOTEN  =      -678.44518988 eV

  energy without entropy =     -678.44518988  energy(sigma->0) =     -678.44518988


--------------------------------------------------------------------------------------------------------




--------------------------------------- Iteration      1(  14)  ---------------------------------------


    POTLOK:  cpu time    0.4879: real time    0.4917
    SETDIJ:  cpu time    0.5045: real time    0.5045
     EDDAV:  cpu time   80.1399: real time   80.1709
       DOS:  cpu time    0.0010: real time    0.0010
    CHARGE:  cpu time    3.2234: real time    3.2234
    MIXING:  cpu time    0.0295: real time    0.0295
    --------------------------------------------
      LOOP:  cpu time   84.3862: real time   84.4212

 eigenvalue-minimisations  :  6128
 total energy-change (2. order) :-0.2062254E-05  (-0.8145541E-06)
 number of electron     511.9999998 magnetization 
 augmentation part      -29.4770974 magnetization 

 Broyden mixing:
  rms(total) = 0.19280E-03    rms(broyden)= 0.19274E-03
  rms(prec ) = 0.26071E-03
  weight for this iteration     100.00

 eigenvalues of (default mixing * dielectric matrix)
  average eigenvalue GAMMA=   1.7754
  3.2358  2.6298  2.1918  1.6808  1.6808  1.3030  1.3030  0.9250  1.0283

 Free energy of the ion-electron system (eV)
  ---------------------------------------------------
  alpha Z        PSCENC =       210.77028614
  Ewald energy   TEWEN  =    -14471.15499842
  -Hartree energ DENC   =     -1001.60941813
  -exchange      EXHF   =         0.00000000
  -V(xc)+E(xc)   XCENC  =     -1155.97928458
  PAW double counting   =      4729.43337181    -2491.11743691
  entropy T*S    EENTRO =        -0.00000000
  eigenvalues    EBANDS =       308.73142817
  atomic energy  EATOM  =     13192.48085998
  Solvation  Ediel_sol  =         0.00000000
  ---------------------------------------------------
  free energy    TOTEN  =      -678.44519194 eV

  energy without entropy =     -678.44519194  energy(sigma->0) =     -678.44519194


--------------------------------------------------------------------------------------------------------




--------------------------------------- Iteration      1(  15)  ---------------------------------------


    POTLOK:  cpu time    0.4905: real time    0.4924
    SETDIJ:  cpu time    0.5050: real time    0.5050
     EDDAV:  cpu time   79.2629: real time   79.2842
       DOS:  cpu time    0.0017: real time    0.0017
    CHARGE:  cpu time    3.2112: real time    3.2115
    MIXING:  cpu time    0.0372: real time    0.0372
    --------------------------------------------
      LOOP:  cpu time   83.5084: real time   83.5319

 eigenvalue-minimisations  :  6040
 total energy-change (2. order) :-0.3853678E-05  (-0.2173221E-06)
 number of electron     511.9999998 magnetization 
 augmentation part      -29.4769565 magnetization 

 Broyden mixing:
  rms(total) = 0.64658E-04    rms(broyden)= 0.64478E-04
  rms(prec ) = 0.84868E-04
  weight for this iteration     100.00

 eigenvalues of (default mixing * dielectric matrix)
  average eigenvalue GAMMA=   1.7194
  3.2479  2.5919  2.1356  1.6936  1.6936  1.4499  1.4499  0.9369  0.9369  1.0582

 Free energy of the ion-electron system (eV)
  ---------------------------------------------------
  alpha Z        PSCENC =       210.77028614
  Ewald energy   TEWEN  =    -14471.15499842
  -Hartree energ DENC   =     -1001.63586253
  -exchange      EXHF   =         0.00000000
  -V(xc)+E(xc)   XCENC  =     -1155.97779483
  PAW double counting   =      4729.50615813    -2491.19257533
  entropy T*S    EENTRO =        -0.00000000
  eigenvalues    EBANDS =       308.75873106
  atomic energy  EATOM  =     13192.48085998
  Solvation  Ediel_sol  =         0.00000000
  ---------------------------------------------------
  free energy    TOTEN  =      -678.44519579 eV

  energy without entropy =     -678.44519579  energy(sigma->0) =     -678.44519579


--------------------------------------------------------------------------------------------------------




--------------------------------------- Iteration      1(  16)  ---------------------------------------


    POTLOK:  cpu time    0.4902: real time    0.4939
    SETDIJ:  cpu time    0.5023: real time    0.5024
     EDDAV:  cpu time   80.3145: real time   80.3401
       DOS:  cpu time    0.0010: real time    0.0010
    CHARGE:  cpu time    3.1126: real time    3.1136
    MIXING:  cpu time    0.0196: real time    0.0196
    --------------------------------------------
      LOOP:  cpu time   84.4404: real time   84.4706

 eigenvalue-minimisations  :  6120
 total energy-change (2. order) : 0.4518261E-06  (-0.1696499E-07)
 number of electron     511.9999998 magnetization 
 augmentation part      -29.4769595 magnetization 

 Broyden mixing:
  rms(total) = 0.30756E-04    rms(broyden)= 0.30377E-04
  rms(prec ) = 0.39825E-04
  weight for this iteration     100.00

 eigenvalues of (default mixing * dielectric matrix)
  average eigenvalue GAMMA=   1.7186
  3.2909  2.6316  2.1145  2.1145  1.4772  1.4772  1.4194  1.4194  0.9112  1.0246
  1.0246

 Free energy of the ion-electron system (eV)
  ---------------------------------------------------
  alpha Z        PSCENC =       210.77028614
  Ewald energy   TEWEN  =    -14471.15499842
  -Hartree energ DENC   =     -1001.63447977
  -exchange      EXHF   =         0.00000000
  -V(xc)+E(xc)   XCENC  =     -1155.97779146
  PAW double counting   =      4729.50093354    -2491.18698983
  entropy T*S    EENTRO =        -0.00000000
  eigenvalues    EBANDS =       308.75698447
  atomic energy  EATOM  =     13192.48085998
  Solvation  Ediel_sol  =         0.00000000
  ---------------------------------------------------
  free energy    TOTEN  =      -678.44519534 eV

  energy without entropy =     -678.44519534  energy(sigma->0) =     -678.44519534


--------------------------------------------------------------------------------------------------------




--------------------------------------- Iteration      1(  17)  ---------------------------------------


    POTLOK:  cpu time    0.4910: real time    0.4921
    SETDIJ:  cpu time    0.5080: real time    0.5080
     EDDAV:  cpu time   57.1661: real time   57.1778
       DOS:  cpu time    0.0013: real time    0.0013
    CHARGE:  cpu time    3.1062: real time    3.1066
    MIXING:  cpu time    0.0458: real time    0.0458
    --------------------------------------------
      LOOP:  cpu time   61.3185: real time   61.3317

 eigenvalue-minimisations  :  3816
 total energy-change (2. order) : 0.1583812E-06  (-0.2910460E-08)
 number of electron     511.9999998 magnetization 
 augmentation part      -29.4769639 magnetization 

 Broyden mixing:
  rms(total) = 0.13917E-04    rms(broyden)= 0.13058E-04
  rms(prec ) = 0.16139E-04
  weight for this iteration     100.00

 eigenvalues of (default mixing * dielectric matrix)
  average eigenvalue GAMMA=   1.7102
  3.3047  2.6474  2.3295  1.7132  1.7132  1.7756  1.4580  1.4580  0.9261  0.9636
  1.1168  1.1168

 Free energy of the ion-electron system (eV)
  ---------------------------------------------------
  alpha Z        PSCENC =       210.77028614
  Ewald energy   TEWEN  =    -14471.15499842
  -Hartree energ DENC   =     -1001.63346062
  -exchange      EXHF   =         0.00000000
  -V(xc)+E(xc)   XCENC  =     -1155.97785366
  PAW double counting   =      4729.50078537    -2491.18667776
  entropy T*S    EENTRO =        -0.00000000
  eigenvalues    EBANDS =       308.75586378
  atomic energy  EATOM  =     13192.48085998
  Solvation  Ediel_sol  =         0.00000000
  ---------------------------------------------------
  free energy    TOTEN  =      -678.44519518 eV

  energy without entropy =     -678.44519518  energy(sigma->0) =     -678.44519518


--------------------------------------------------------------------------------------------------------




--------------------------------------- Iteration      1(  18)  ---------------------------------------


    POTLOK:  cpu time    0.4919: real time    0.4931
    SETDIJ:  cpu time    0.5038: real time    0.5039
     EDDAV:  cpu time   52.2653: real time   52.2804
       DOS:  cpu time    0.0011: real time    0.0011
    CHARGE:  cpu time    3.0873: real time    3.0878
    MIXING:  cpu time    0.0496: real time    0.0496
    --------------------------------------------
      LOOP:  cpu time   56.3990: real time   56.4158

 eigenvalue-minimisations  :  3328
 total energy-change (2. order) :-0.1485678E-06  (-0.9019560E-09)
 number of electron     511.9999998 magnetization 
 augmentation part      -29.4769586 magnetization 

 Broyden mixing:
  rms(total) = 0.71092E-05    rms(broyden)= 0.52323E-05
  rms(prec ) = 0.73333E-05
  weight for this iteration     100.00
  WARNING: grid for Broyden might be to small

 eigenvalues of (default mixing * dielectric matrix)
  average eigenvalue GAMMA=   1.7376
  3.2499  2.6837  2.3964  2.3964  1.8034  1.8034  1.4002  1.4002  0.9220  1.0005
  1.0005  1.2661  1.2661

 Free energy of the ion-electron system (eV)
  ---------------------------------------------------
  alpha Z        PSCENC =       210.77028614
  Ewald energy   TEWEN  =    -14471.15499842
  -Hartree energ DENC   =     -1001.63446239
  -exchange      EXHF   =         0.00000000
  -V(xc)+E(xc)   XCENC  =     -1155.97773814
  PAW double counting   =      4729.50569437    -2491.19167497
  entropy T*S    EENTRO =        -0.00000000
  eigenvalues    EBANDS =       308.75683810
  atomic energy  EATOM  =     13192.48085998
  Solvation  Ediel_sol  =         0.00000000
  ---------------------------------------------------
  free energy    TOTEN  =      -678.44519533 eV

  energy without entropy =     -678.44519533  energy(sigma->0) =     -678.44519533


--------------------------------------------------------------------------------------------------------




--------------------------------------- Iteration      1(  19)  ---------------------------------------


    POTLOK:  cpu time    0.4885: real time    0.4925
    SETDIJ:  cpu time    0.5053: real time    0.5053
     EDDAV:  cpu time   51.3606: real time   51.3726
       DOS:  cpu time    0.0010: real time    0.0010
    CHARGE:  cpu time    3.0954: real time    3.0954
    MIXING:  cpu time    0.0481: real time    0.0481
    --------------------------------------------
      LOOP:  cpu time   55.4990: real time   55.5151

 eigenvalue-minimisations  :  3232
 total energy-change (2. order) : 0.4405956E-07  (-0.1831410E-09)
 number of electron     511.9999998 magnetization 
 augmentation part      -29.4769608 magnetization 

 Broyden mixing:
  rms(total) = 0.56053E-05    rms(broyden)= 0.28732E-05
  rms(prec ) = 0.38989E-05
  weight for this iteration     100.00
  WARNING: grid for Broyden might be to small

 eigenvalues of (default mixing * dielectric matrix)
  average eigenvalue GAMMA=   1.6945
  3.3189  2.6922  2.3466  2.3466  1.7997  1.7997  1.4966  1.4966  1.2975  1.2975
  1.0068  1.0068  0.9087  0.9087

 Free energy of the ion-electron system (eV)
  ---------------------------------------------------
  alpha Z        PSCENC =       210.77028614
  Ewald energy   TEWEN  =    -14471.15499842
  -Hartree energ DENC   =     -1001.63403242
  -exchange      EXHF   =         0.00000000
  -V(xc)+E(xc)   XCENC  =     -1155.97778266
  PAW double counting   =      4729.50495261    -2491.19090102
  entropy T*S    EENTRO =        -0.00000000
  eigenvalues    EBANDS =       308.75642050
  atomic energy  EATOM  =     13192.48085998
  Solvation  Ediel_sol  =         0.00000000
  ---------------------------------------------------
  free energy    TOTEN  =      -678.44519529 eV

  energy without entropy =     -678.44519529  energy(sigma->0) =     -678.44519529


--------------------------------------------------------------------------------------------------------




--------------------------------------- Iteration      1(  20)  ---------------------------------------


    POTLOK:  cpu time    0.4924: real time    0.4937
    SETDIJ:  cpu time    0.5049: real time    0.5050
     EDDAV:  cpu time   50.5093: real time   50.5338
       DOS:  cpu time    0.0018: real time    0.0018
    CHARGE:  cpu time    3.1065: real time    3.1074
    MIXING:  cpu time    0.0387: real time    0.0387
    --------------------------------------------
      LOOP:  cpu time   54.6535: real time   54.6803

 eigenvalue-minimisations  :  3152
 total energy-change (2. order) :-0.1033914E-07  (-0.5874466E-10)
 number of electron     511.9999998 magnetization 
 augmentation part      -29.4769602 magnetization 

 Broyden mixing:
  rms(total) = 0.50749E-05    rms(broyden)= 0.16097E-05
  rms(prec ) = 0.23129E-05
  weight for this iteration     100.00
  WARNING: grid for Broyden might be to small

 eigenvalues of (default mixing * dielectric matrix)
  average eigenvalue GAMMA=   1.7028
  3.2703  2.7414  2.3869  2.3869  1.8442  1.8442  1.7570  1.4336  1.4336  1.2315
  1.2315  1.1370  0.9675  0.9675  0.9094

 Free energy of the ion-electron system (eV)
  ---------------------------------------------------
  alpha Z        PSCENC =       210.77028614
  Ewald energy   TEWEN  =    -14471.15499842
  -Hartree energ DENC   =     -1001.63427452
  -exchange      EXHF   =         0.00000000
  -V(xc)+E(xc)   XCENC  =     -1155.97775062
  PAW double counting   =      4729.50536731    -2491.19132272
  entropy T*S    EENTRO =        -0.00000000
  eigenvalues    EBANDS =       308.75663755
  atomic energy  EATOM  =     13192.48085998
  Solvation  Ediel_sol  =         0.00000000
  ---------------------------------------------------
  free energy    TOTEN  =      -678.44519530 eV

  energy without entropy =     -678.44519530  energy(sigma->0) =     -678.44519530


--------------------------------------------------------------------------------------------------------




--------------------------------------- Iteration      1(  21)  ---------------------------------------


    POTLOK:  cpu time    0.4885: real time    0.4924
    SETDIJ:  cpu time    0.5062: real time    0.5062
     EDDAV:  cpu time   50.4543: real time   50.4809
       DOS:  cpu time    0.0016: real time    0.0016
    --------------------------------------------
      LOOP:  cpu time   51.4505: real time   51.4811

 eigenvalue-minimisations  :  3152
 total energy-change (2. order) :-0.2128218E-08  (-0.1729095E-10)
 number of electron     511.9999998 magnetization 
 augmentation part      -29.4769602 magnetization 

 Free energy of the ion-electron system (eV)
  ---------------------------------------------------
  alpha Z        PSCENC =       210.77028614
  Ewald energy   TEWEN  =    -14471.15499842
  -Hartree energ DENC   =     -1001.63423903
  -exchange      EXHF   =         0.00000000
  -V(xc)+E(xc)   XCENC  =     -1155.97775492
  PAW double counting   =      4729.50540615    -2491.19136356
  entropy T*S    EENTRO =        -0.00000000
  eigenvalues    EBANDS =       308.75660835
  atomic energy  EATOM  =     13192.48085998
  Solvation  Ediel_sol  =         0.00000000
  ---------------------------------------------------
  free energy    TOTEN  =      -678.44519530 eV

  energy without entropy =     -678.44519530  energy(sigma->0) =     -678.44519530


--------------------------------------------------------------------------------------------------------




 average (electrostatic) potential at core
  the test charge radii are     0.9892
  (the norm of the test charge is              1.0000)
       1 -83.6434       2 -83.6008       3 -83.6663       4 -83.5661       5 -83.4723
       6 -83.5699       7 -83.4034       8 -83.5139       9 -83.6331      10 -83.4025
      11 -83.6679      12 -83.5679      13 -83.5123      14 -83.4877      15 -83.4993
      16 -83.4857      17 -83.4728      18 -83.5426      19 -83.5327      20 -83.6022
      21 -83.6332      22 -83.3388      23 -83.5836      24 -83.3889      25 -83.5060
      26 -83.6022      27 -83.5100      28 -83.5020      29 -83.5465      30 -83.5158
      31 -83.3853      32 -83.4511      33 -83.6385      34 -83.6676      35 -83.7453
      36 -83.5225      37 -83.5631      38 -83.5686      39 -83.4897      40 -83.3928
      41 -83.6285      42 -83.5456      43 -83.5564      44 -83.4723      45 -83.5254
      46 -83.5217      47 -83.4551      48 -83.6372      49 -83.6291      50 -83.5558
      51 -83.5364      52 -83.4596      53 -83.5314      54 -83.4120      55 -83.4556
      56 -83.4163      57 -83.4288      58 -83.5743      59 -83.5135      60 -83.4470
      61 -83.3987      62 -83.3958      63 -83.4265      64 -83.4092      65 -83.5845
      66 -83.6403      67 -83.5017      68 -83.5786      69 -83.5507      70 -83.4836
      71 -83.5576      72 -83.4431      73 -83.4540      74 -83.6684      75 -83.5508
      76 -83.5997      77 -83.6481      78 -83.4731      79 -83.5062      80 -83.4091
      81 -83.5585      82 -83.4716      83 -83.6462      84 -83.5170      85 -83.4114
      86 -83.5156      87 -83.4217      88 -83.4495      89 -83.6120      90 -83.5585
      91 -83.4455      92 -83.3903      93 -83.5354      94 -83.5236      95 -83.4946
      96 -83.5559      97 -83.5968      98 -83.7252      99 -83.6018     100 -83.4894
     101 -83.6293     102 -83.5133     103 -83.4950     104 -83.4463     105 -83.5827
     106 -83.5024     107 -83.5893     108 -83.5402     109 -83.5544     110 -83.4899
     111 -83.6201     112 -83.4373     113 -83.6345     114 -83.4824     115 -83.5846
     116 -83.4669     117 -83.4371     118 -83.4220     119 -83.3687     120 -83.4668
     121 -83.4871     122 -83.5242     123 -83.5197     124 -83.4053     125 -83.4246
     126 -83.4391     127 -83.4248     128 -83.5188
 
 
 
 E-fermi :   5.8637     XC(G=0):  -9.3338     alpha+bet :-11.7321


 k-point     1 :       0.0000    0.0000    0.0000
  band No.  band energies     occupation 
      1      -6.3080      2.00000
      2      -5.7683      2.00000
      3      -5.7043      2.00000
      4      -5.5874      2.00000
      5      -5.5818      2.00000
      6      -5.4940      2.00000
      7      -5.4843      2.00000
      8      -5.4150      2.00000
      9      -5.3720      2.00000
     10      -5.3509      2.00000
     11      -5.2901      2.00000
     12      -5.2619      2.00000
     13      -5.2208      2.00000
     14      -5.1132      2.00000
     15      -5.0475      2.00000
     16      -4.5553      2.00000
     17      -4.4919      2.00000
     18      -4.4410      2.00000
     19      -4.4115      2.00000
     20      -4.3896      2.00000
     21      -4.3587      2.00000
     22      -4.2617      2.00000
     23      -4.2561      2.00000
     24      -4.2280      2.00000
     25      -4.1934      2.00000
     26      -4.1145      2.00000
     27      -4.0914      2.00000
     28      -4.0789      2.00000
     29      -4.0451      2.00000
     30      -3.9814      2.00000
     31      -3.9112      2.00000
     32      -3.9068      2.00000
     33      -3.8694      2.00000
     34      -3.8339      2.00000
     35      -3.7631      2.00000
     36      -3.7548      2.00000
     37      -3.7164      2.00000
     38      -3.7053      2.00000
     39      -3.6776      2.00000
     40      -3.6684      2.00000
     41      -3.6081      2.00000
     42      -3.6009      2.00000
     43      -3.5798      2.00000
     44      -3.5563      2.00000
     45      -3.5284      2.00000
[...]
   -.632E+01 -.653E+00 0.523E+01   0.543E+01 0.318E+00 -.443E+01   0.675E+00 -.893E+00 -.243E+01   0.364E-06 0.289E-06 0.293E-06
   0.106E+02 -.188E-02 0.937E+01   -.109E+02 0.502E-01 -.885E+01   -.438E+00 0.668E+00 -.228E+01   0.123E-05 0.164E-06 0.139E-05
   0.566E+01 -.493E+01 0.175E+01   -.570E+01 0.451E+01 -.204E+01   -.281E+00 0.581E+00 -.844E+00   0.727E-06 -.139E-05 -.294E-06
   0.135E+01 0.811E+01 -.712E+01   -.135E+01 -.734E+01 0.609E+01   -.232E+00 -.238E+01 0.110E+01   -.119E-05 0.131E-05 -.106E-06
   -.555E+01 0.281E+01 -.174E+02   0.520E+01 -.219E+01 0.162E+02   0.603E+00 -.296E+00 0.396E+01   -.166E-05 -.175E-06 -.137E-05
   0.553E+01 -.708E+01 0.295E+00   -.534E+01 0.687E+01 -.135E+00   -.166E+01 0.109E+01 -.351E+00   0.194E-05 -.119E-05 -.710E-06
   0.381E+01 -.445E+01 0.396E+01   -.402E+01 0.379E+01 -.300E+01   0.178E+00 0.231E+01 -.144E+00   0.127E-05 -.629E-06 0.110E-05
   0.900E+01 0.312E+00 -.484E+01   -.937E+01 -.818E+00 0.479E+01   -.192E+01 -.578E+00 0.169E+01   0.166E-05 0.129E-05 -.166E-07
   0.282E+01 -.535E+01 0.108E+02   -.267E+01 0.459E+01 -.101E+02   -.225E+01 0.308E+01 -.288E+01   0.213E-05 -.172E-05 0.193E-05
   -.187E+01 0.751E+01 0.108E+02   0.165E+01 -.636E+01 -.934E+01   0.859E+00 -.191E+01 -.216E+01   -.879E-07 -.139E-05 0.121E-05
   -.475E+00 -.189E+01 -.176E+02   0.815E+00 0.144E+01 0.162E+02   -.143E+00 -.415E+00 0.313E+01   -.139E-05 -.101E-05 -.155E-05
   -.101E+02 0.563E+01 0.724E+01   0.911E+01 -.532E+01 -.701E+01   0.253E+01 -.453E+00 -.156E+01   -.248E-05 0.312E-05 0.237E-05
   0.105E+02 -.587E+01 -.645E+01   -.918E+01 0.583E+01 0.548E+01   -.333E+01 0.239E+00 0.183E+01   -.259E-06 -.624E-06 -.133E-05
   -.314E+00 -.228E+01 0.350E+01   -.280E+00 0.214E+01 -.276E+01   -.416E+00 0.151E+01 -.692E+00   -.160E-06 -.110E-05 -.142E-05
   0.110E+02 0.141E+01 0.313E+01   -.105E+02 -.135E+01 -.333E+01   -.102E+01 -.108E+01 -.314E-01   0.153E-05 -.607E-06 0.183E-05
   0.251E+01 0.483E+01 0.599E+01   -.224E+01 -.476E+01 -.563E+01   -.161E+00 -.106E+01 -.248E+00   -.642E-06 0.162E-05 0.116E-05
   0.203E+01 -.682E+01 -.652E+01   -.104E+01 0.616E+01 0.593E+01   -.237E+01 0.117E+01 0.669E+00   -.171E-05 -.209E-06 -.129E-05
   -.161E+00 -.296E+01 -.100E+01   0.379E+00 0.271E+01 0.108E+01   -.557E+00 0.381E+00 -.483E-01   -.360E-06 0.325E-07 -.893E-07
   -.902E+01 0.121E+01 0.260E+01   0.860E+01 -.127E+01 -.219E+01   0.113E+01 0.382E+00 -.151E+01   -.143E-05 -.452E-06 -.106E-05
   -.101E+02 -.234E+01 -.712E+01   0.932E+01 0.224E+01 0.668E+01   0.203E+01 0.928E+00 0.848E+00   -.117E-05 0.654E-06 -.112E-05
   -.654E+00 0.799E+01 0.115E+02   0.952E+00 -.728E+01 -.102E+02   0.355E+00 -.139E+01 -.323E+01   0.508E-08 0.946E-06 0.147E-05
   0.975E+01 0.232E+01 0.348E+01   -.831E+01 -.177E+01 -.407E+01   -.529E+00 -.485E+00 0.481E+00   0.643E-06 -.121E-05 -.423E-06
   -.478E+01 -.615E+01 0.140E+01   0.406E+01 0.515E+01 -.162E+01   0.327E+01 0.684E+00 0.477E+00   -.103E-05 0.141E-05 0.884E-06
   0.900E+01 -.197E+01 -.750E+01   -.726E+01 0.190E+01 0.740E+01   -.261E+01 0.705E+00 0.283E+01   -.302E-06 0.255E-06 -.745E-06
   -.753E+01 0.415E+01 -.960E+01   0.659E+01 -.385E+01 0.852E+01   0.267E+01 -.174E+01 0.166E+01   0.986E-06 0.288E-06 -.918E-06
   -.363E+01 0.117E+01 0.180E+01   0.313E+01 -.102E+01 -.187E+01   0.542E+00 0.521E-01 -.754E+00   0.137E-05 -.501E-06 -.509E-06
   0.142E+01 0.592E+01 -.711E+01   -.144E+01 -.487E+01 0.685E+01   -.211E+00 -.116E+01 0.799E+00   0.680E-06 0.143E-05 -.716E-06
   -.772E+01 0.774E+01 0.102E+02   0.669E+01 -.645E+01 -.909E+01   0.298E+01 -.275E+01 -.281E+01   -.792E-06 0.171E-05 0.121E-05
   0.474E+01 -.108E+02 0.766E+01   -.364E+01 0.983E+01 -.738E+01   -.184E+01 0.218E+01 -.254E+01   -.676E-06 -.212E-05 -.336E-06
   -.213E+01 0.312E+01 0.217E+01   0.181E+01 -.276E+01 -.223E+01   0.102E+01 -.468E+00 -.146E-01   0.348E-06 -.113E-05 -.328E-06
   0.617E+01 -.514E+01 -.269E+01   -.571E+01 0.453E+01 0.265E+01   -.383E+00 0.103E+01 0.150E+01   0.711E-06 0.104E-05 -.782E-07
   -.496E+01 -.821E+01 -.768E+00   0.505E+01 0.732E+01 0.965E+00   -.757E+00 0.259E+01 -.125E+01   -.164E-06 0.349E-06 -.886E-06
   -.593E+01 0.119E+02 0.668E+01   0.561E+01 -.108E+02 -.646E+01   0.157E+01 -.261E+01 -.276E+01   -.121E-05 0.133E-05 0.164E-06
   -.473E+01 0.423E+01 -.154E+02   0.449E+01 -.368E+01 0.144E+02   0.992E+00 -.195E+01 0.323E+01   -.235E-06 -.144E-05 -.787E-06
   -.102E+02 0.384E+01 0.215E+01   0.936E+01 -.288E+01 -.208E+01   0.220E+01 -.984E+00 -.161E+01   -.977E-06 0.131E-05 0.311E-06
   0.114E+02 0.288E+00 -.301E+01   -.104E+02 0.515E+00 0.164E+01   -.309E+01 -.140E+01 0.198E+01   0.156E-05 -.535E-06 -.925E-08
   0.209E+01 0.405E+01 0.788E+01   -.172E+01 -.435E+01 -.730E+01   -.132E+01 -.482E+00 -.151E+01   0.625E-06 0.980E-07 0.171E-05
   0.544E+01 0.447E+01 0.148E+02   -.523E+01 -.430E+01 -.133E+02   -.425E+00 -.140E+01 -.226E+01   0.218E-05 0.106E-05 0.103E-05
   0.154E+01 -.183E+01 -.966E+01   -.149E+01 0.169E+01 0.917E+01   -.662E+00 -.800E+00 0.330E+01   0.216E-07 0.271E-06 -.115E-05
   -.361E+01 -.278E+01 0.510E+01   0.369E+01 0.266E+01 -.406E+01   0.236E+00 0.493E+00 0.463E-02   -.165E-05 0.124E-06 0.247E-05
   0.100E+01 -.108E+02 0.553E+01   -.581E+00 0.990E+01 -.508E+01   0.120E+01 0.199E+01 -.121E+01   -.138E-05 -.241E-05 -.199E-05
   -.453E+01 -.581E+01 -.452E+01   0.359E+01 0.539E+01 0.462E+01   0.185E+01 0.184E+01 0.126E+01   -.927E-06 -.102E-06 -.131E-05
   -.181E+01 -.273E+01 -.354E+01   0.117E+01 0.231E+01 0.315E+01   -.130E-01 -.404E-01 0.988E+00   0.263E-06 0.133E-06 0.107E-05
   0.139E+01 -.288E+01 0.590E+01   -.132E+01 0.262E+01 -.542E+01   -.205E+01 0.120E+01 -.300E+01   0.764E-06 -.182E-05 -.904E-07
   0.582E+01 0.799E+00 -.256E+01   -.521E+01 -.119E+01 0.199E+01   -.144E+01 0.507E+00 0.435E-01   0.137E-06 0.643E-06 0.727E-06
   0.579E+01 -.756E+01 -.371E+01   -.512E+01 0.632E+01 0.309E+01   -.190E+01 0.265E+01 0.898E+00   0.511E-06 0.821E-06 -.829E-07
   0.218E+01 -.573E+01 -.307E+01   -.131E+01 0.483E+01 0.338E+01   -.193E+01 0.109E+01 -.174E-02   0.529E-06 0.267E-05 -.193E-05
   -.672E+01 0.512E+01 0.398E+01   0.585E+01 -.486E+01 -.335E+01   0.115E+01 -.104E+01 -.242E+01   -.670E-06 -.326E-06 -.141E-05
   0.354E+01 0.749E+01 0.752E+01   -.343E+01 -.690E+01 -.688E+01   -.155E+01 -.582E+00 -.648E+00   0.274E-06 0.926E-06 -.598E-06
   -.175E+02 0.106E+01 -.611E+01   0.157E+02 -.264E+00 0.597E+01   0.327E+01 -.279E+00 0.402E+00   -.963E-07 0.348E-06 -.132E-05
   0.182E+02 0.493E+01 0.220E+01   -.166E+02 -.435E+01 -.275E+01   -.427E+01 -.101E+01 0.756E+00   0.142E-05 0.110E-05 0.379E-06
   -.497E+01 -.391E+01 0.515E+01   0.418E+01 0.356E+01 -.478E+01   0.642E+00 0.652E+00 -.514E+00   0.324E-06 -.871E-06 0.630E-06
   0.435E+00 0.901E+00 -.151E+01   -.342E+00 -.135E+01 0.112E+01   -.209E+01 0.798E+00 0.492E+00   0.142E-05 -.123E-05 0.832E-06
 -----------------------------------------------------------------------------------------------
   0.142E+00 -.787E+00 -.805E-01   -.777E-14 0.107E-12 -.101E-12   -.142E+00 0.787E+00 0.805E-01   -.583E-06 -.140E-06 -.347E-06
 
 
 POSITION                                       TOTAL-FORCE (eV/Angst)
 -----------------------------------------------------------------------------------
     11.01819     10.96455     21.72195        -1.138278      0.332705      2.014095
     10.86350      2.74597     13.55824         1.450116     -0.185295     -0.494064
      0.05022      5.53329      5.53371        -0.967542     -0.733581     -1.767616
      0.13138      8.18641      8.29567        -2.010866     -0.363818     -0.725163
      2.80719     11.05760     13.55571        -0.828356     -1.560043      0.495280
     13.55630     13.61764      5.40842         1.777140      0.065003     -0.149138
     13.63177     16.42277      8.18654         2.054048     -1.109292      0.286076
     13.63537     19.08846     10.91657         1.481312     -0.294928      1.624070
     16.29917     21.66195     16.44517         0.408272      2.193591      0.417074
      5.50845      2.72514      8.13404        -1.490828     -0.066817     -0.323265
     16.43613     16.31713     10.94735        -0.543866      0.626285      1.077217
      5.46103      8.37481     13.73233         1.187662     -0.522663      0.484765
      8.20252      0.09377      8.18141         0.082276     -0.944575     -0.027884
     19.15466     13.68219     11.08065        -0.106367      1.102358     -1.423453
      8.33129      5.59337     13.53298        -0.228689     -0.689108      2.608609
     19.02791     19.14364     16.49832         0.601931     -0.108926     -0.817156
     13.55198     13.57790     21.74271         2.172445     -0.326125      0.944609
     13.59655      5.55415     13.79104         0.677672     -1.779893     -1.334425
      2.76315      8.13218      5.53007         0.377176      0.266613     -1.356592
     13.57634     10.92886     19.06815         1.191977     -1.056995      1.177630
      5.42785      2.66438      2.80159         1.142541     -0.073472     -0.433904
      5.65460      5.49130      5.38291        -1.549483     -0.123540      0.575366
      5.35514      8.16448      8.20054         0.995819      0.496364     -0.359248
      5.52898     11.00693     10.89297         0.436612     -1.541458      2.086300
      8.08141      2.71569      5.52803         1.793568      0.219608     -1.753780
      8.25692      5.37081      8.09076        -0.160817      0.698285     -0.003596
      8.14459      8.06084     10.97098        -0.155231      0.898738     -0.269038
      8.25756     10.90414     13.59048         0.341356     -0.074719      1.309772
     10.96204      2.83900      8.22574        -0.972167     -0.557286      0.795655
     11.01388      5.40152     10.85510        -0.500565      0.564340      0.686501
     10.90957      8.17609     13.57263        -0.366575      0.742084      0.134717
     10.87475     10.95556     16.37526         1.231294      0.002818     -0.032169
      5.54075     16.38237     10.87706        -1.938964      0.945588      0.416265
      5.61319      8.33098      2.81264        -2.460317     -1.421783     -1.229638
     16.37922     10.92798     16.38621        -0.177510      0.770414     -0.932949
     16.46182     13.74650     19.12332        -0.108048     -2.004269     -0.146262
      8.23808      5.55876      2.78278        -0.327603     -1.175790     -0.534361
      8.17195      8.16231      5.34875        -0.098161      1.815412      0.681974
      8.15889     11.00439      8.09566         0.195187     -1.552988      1.277206
      8.21913     13.44969     10.97359        -0.646613      3.774289      0.333797
     10.96506     16.54934     16.26365        -0.588445     -0.354237      2.090380
     11.02716      8.08454      8.27092        -1.148080      0.386860     -1.361847
     11.00359     10.90022     11.03372        -0.982009      0.032659     -1.491134
     10.88007     13.60093     13.52676         1.623535      0.054172      2.110696
     13.77328     16.30658     19.28512        -0.730787      0.985682     -1.528162
     13.62976      8.27610     10.90654        -0.341565     -0.487115      0.926346
     13.68066     10.97385     13.60483         0.312274     -0.844020      2.435225
     13.69488     13.68215     16.49868        -0.075463      0.148131      0.340247
      8.21078     18.95197     11.07787        -0.550271      1.597445     -0.524326
      8.37747     10.84307      2.77598        -1.257108      0.541315     -0.037678
      8.22856     13.53706      5.62307         0.881951      1.357946     -3.288725
      8.25492     16.25459      8.13109        -0.093987     -0.150371     -0.076030
     10.88064      8.30899      2.79636         0.373977     -0.960838     -1.160569
     10.94693     10.99195      5.59903         0.134289     -0.189747     -1.890476
     10.95176     13.69540      8.26149         0.268307      0.065569      0.469053
     10.93627     16.42207     10.75186        -0.380473     -0.297544      2.269479
     13.72371     19.14190     16.33276        -0.859224     -0.996212     -0.592736
     13.55899     10.83464      8.21332         1.452736      0.560050     -0.989382
     13.56540     13.67086     10.84819         2.373651     -1.804439      1.894302
     13.58743     16.32242     13.53945        -0.077747      0.737846      2.009620
     16.34914      8.18851      8.17138         1.997801     -1.065895     -0.629094
     16.31979     10.94649     10.67652         0.816840     -0.364521      2.545475
     16.31844     13.60905     13.68331         2.614761      0.551639     -0.758984
     16.28358     16.43844     16.36640         1.980542     -0.261417     -0.115814
      1.36800      1.29987      1.27676        -0.457068      0.963179      0.323416
      1.29164      3.98960      4.02768         0.103265      1.326040      0.611141
      1.40469      6.76641      6.85439        -0.036579      1.178071      0.713372
      1.32185      9.48721      9.80771         1.241179      0.013352     -3.172870
      4.12179      1.21779      4.10185        -0.398172      0.982745      0.802096
      4.23973      4.03700      6.67231        -1.345500      0.831563      0.399466
      4.16316      6.80523      9.63667        -1.179360     -0.424385     -0.595533
      4.13934      9.60148     12.32369        -0.483141      0.178652     -1.337321
      6.75875      1.45072      6.78871        -0.080767     -2.348191      0.366107
      6.65790      4.11783      9.43675         2.559650     -0.029272      1.050709
      6.78889      6.81076     12.45042        -0.633793      0.552789     -1.227590
      6.94191      9.74064     15.19988        -0.218342     -1.227514     -1.624171
      9.60354      1.41282      9.71556        -0.785025      0.715893     -1.770306
      9.63188      4.16554     12.30703        -0.329092      0.160760     -1.139259
      9.57927      7.05458     15.07372        -0.227576     -1.612634      0.072818
      9.57192      9.54113     17.58482         0.249808      0.323941      2.737890
      4.18004      3.97274      1.32220        -1.477407      0.877571     -0.191945
      4.19380      6.72891      4.05193        -0.027634      1.656643      0.816537
      4.20872      9.61503      6.72144        -2.294460     -1.083602      1.648049
      4.20055     12.12898      9.60171        -2.106090      2.318573     -2.175820
      6.86328      4.12734      4.08950         0.635683     -0.757903     -0.656687
      6.83604      6.93885      6.71268         0.196999     -0.870890      1.710951
      6.69292      9.50776      9.64196         1.561078     -0.143796     -1.327940
      6.94744     12.23138     12.30418        -1.980894      0.200451      0.859343
      9.70751      3.98027      6.68479        -1.009561      1.358745      0.050425
      9.59868      6.82945      9.58337        -0.578967     -1.016931     -0.234181
      9.52903      9.56280     12.21807         0.108104     -0.988259      0.112886
      9.63585     12.27807     14.97704        -1.383706      0.510999      0.082198
     12.35983      4.08205      9.54494        -0.338744      0.129577      0.033960
     12.24612      6.76990     12.34444         0.709950      0.315969     -1.103098
     12.21121      9.48015     14.98984         1.216007      0.824537      0.402700
     12.20200     12.36881     17.93851         0.653661     -0.675623     -1.956463
      6.71576      6.79253      1.45305         0.908973      0.063707     -0.105456
      6.74836      9.69638      4.10214         2.548401     -0.317998      0.256912
      6.84718     12.20043      6.62685        -0.864499      0.638003      2.732837
      6.77997     15.10690      9.50830         1.729756     -1.439243      0.585374
      9.56021      6.89410      4.10397         0.039136      0.200395     -0.823945
      9.58729      9.51191      6.80420        -0.231871     -0.121066      0.533860
      9.49723     12.32000      9.64673         1.954673     -1.462104     -1.740642
      9.57455     14.98196     12.40792        -0.742023      1.182557     -2.254535
     12.34833      6.77542      6.84925         0.703822     -0.105432     -0.076676
     12.22833      9.53396      9.50803         0.073082      0.422908      1.460813
     12.36471     12.20231     12.33294        -0.671634      1.701641     -1.058043
     12.23456     15.09311     15.20666         1.247611     -1.575306     -2.533577
     14.89362      7.03169      9.39947         0.754325     -1.397749      2.203881
     14.97079      9.57841     12.38113         1.363863     -0.025800     -1.540894
     15.12260     12.33295     15.03233        -2.048405     -0.594047      0.602894
     15.14151     15.12293     17.87518        -0.944777     -0.778182     -0.935903
      9.66145      9.65770      1.32472        -0.214248     -1.233582     -0.757002
      9.63578     12.37644      3.92916        -0.608930     -0.940499      2.812863
      9.64077     14.95431      6.73738         0.307254      0.372730      1.038049
      9.37361     17.63581      9.57493         1.626399      1.078606     -0.763206
     12.29245      9.57568      4.01186         0.917211      1.427511      1.361807
     12.34526     12.34730      6.87577        -0.655871     -0.462109      0.597351
     12.43650     15.06506      9.68151        -1.973850      0.941005     -2.517598
     12.26462     17.77965     12.32404        -0.836765      0.120462     -0.528788
     15.03778      9.37453      6.82947        -1.226572      1.409878      0.270525
     15.02309     12.32107      9.40106        -1.057949      0.196160      0.309523
     14.98610     15.00151     12.38593         0.275587     -0.786721     -1.784151
     15.11122     17.77324     14.90787        -1.451048      0.013759     -0.003053
     17.68008      9.46167      9.53413         1.488663      0.519825      0.261861
     18.00807     12.20265     12.30407        -2.692350     -0.433704      0.200989
     17.82128     14.99347     15.06306        -0.149840      0.302711     -0.144280
     17.88230     17.63545     17.77169        -1.998697      0.350542      0.098191
 -----------------------------------------------------------------------------------
    total drift:                               -0.000008      0.000003      0.000004


--------------------------------------------------------------------------------------------------------



  FREE ENERGIE OF THE ION-ELECTRON SYSTEM (eV)
  ---------------------------------------------------
  free  energy   TOTEN  =      -678.44519530 eV

  energy  without entropy=     -678.44519530  energy(sigma->0) =     -678.44519530
 


--------------------------------------------------------------------------------------------------------


    POTLOK:  cpu time    0.9936: real time    0.9943


--------------------------------------------------------------------------------------------------------


     LOOP+:  cpu time 1709.2865: real time 1709.8869
    4ORBIT:  cpu time    0.0000: real time    0.0000

 total amount of memory used by VASP MPI-rank0   221701. kBytes
=======================================================================

   base      :      30000. kBytes
   nonl-proj :      10690. kBytes
   fftplans  :      66746. kBytes
   grid      :      26864. kBytes
   one-center:         24. kBytes
   wavefun   :      87377. kBytes
 
  
  
 General timing and accounting informations for this job:
 ========================================================
  
                  Total CPU time used (sec):     1733.238
                            User time (sec):     1731.838
                          System time (sec):        1.400
                         Elapsed time (sec):     1734.853
  
                   Maximum memory used (kb):      338572.
                   Average memory used (kb):           0.
  
                          Minor page faults:       227212
                          Major page faults:            0
                 Voluntary context switches:         1309
