<?xml version="1.0" encoding="ISO-8859-1"?>
<modeling>
 <generator>
  <i name="program" type="string">vasp </i>
  <i name="version" type="string">5.4.4.18Apr17-6-g9f103f2a35  </i>
  <i name="subversion" type="string">(build Nov 08 2017 09:05:29) complex            parallel </i>
  <i name="platform" type="string">Intel_17.33 </i>
  <i name="date" type="string">2020 07 18 </i>
  <i name="time" type="string">19:45:26 </i>
 </generator>
 <incar>
  <i type="string" name="SYSTEM">potpaw_PBE@./ARUN.APL1ZEROSTATE</i>
  <i type="string" name="PREC">accurate</i>
  <i type="string" name="ALGO">Normal</i>
  <i type="int" name="NSIM">     4</i>
  <i type="logical" name="ADDGRID"> T  </i>
  <i type="int" name="NELM">   120</i>
  <i type="int" name="NELMIN">     4</i>
  <i name="EDIFF">      0.00000001</i>
  <i type="int" name="NSW">     0</i>
  <i type="int" name="ISYM">     2</i>
  <i name="ENMAX">    500.00000000</i>
  <i type="logical" name="LREAL"> F  </i>
  <i type="logical" name="LPLANE"> T  </i>
  <i type="int" name="ISMEAR">     0</i>
  <i name="SIGMA">      0.01000000</i>
  <i type="logical" name="LWAVE"> F  </i>
  <i type="logical" name="LCHARG"> F  </i>
  <i type="logical" name="LELF"> F  </i>
  <i type="logical" name="LAECHG"> F  </i>
  <v type="int" name="KPOINT_BSE">    -1     0     0     0</v>
  <i type="int" name="NELM">   120</i>
 </incar>
 <structure name="primitive_cell" >
  <crystal>
   <varray name="basis" >
    <v>       0.00000000      10.93733369      10.93733369 </v>
    <v>      10.93733369       0.00000000      10.93733369 </v>
    <v>      10.93733369      10.93733369       0.00000000 </v>
   </varray>
   <i name="volume">   2616.76295363 </i>
   <varray name="rec_basis" >
    <v>      -0.04571498       0.04571498       0.04571498 </v>
    <v>       0.04571498      -0.04571498       0.04571498 </v>
    <v>       0.04571498       0.04571498      -0.04571498 </v>
   </varray>
  </crystal>
  <varray name="positions" >
   <v>      -0.00943367      -0.00452957       0.01192237 </v>
   <v>      -0.17836144       0.07507971       0.04577673 </v>
   <v>       0.06970819      -0.18141470       0.05946626 </v>
   <v>       0.05525250       0.06148192       0.06359411 </v>
   <v>       0.06038818       0.06073136      -0.17738537 </v>
   <v>      -0.00484769      -0.00721739       0.24627468 </v>
   <v>      -0.24932927      -0.00727038       0.24855441 </v>
   <v>      -0.25252838       0.01100117       0.00101133 </v>
   <v>       0.00469510      -0.25261587       0.25487482 </v>
   <v>       0.00332148      -0.25529531       0.00525153 </v>
   <v>      -0.25166156       0.24976289      -0.00308163 </v>
   <v>       0.24872191      -0.00909247       0.00234209 </v>
   <v>      -0.00313401       0.24253183       0.01412982 </v>
   <v>       0.25637792      -0.24327453      -0.00541577 </v>
   <v>       0.23961877       0.01418931      -0.24823730 </v>
   <v>       0.01027301       0.24539842      -0.25058203 </v>
   <v>      -0.00254162       0.01539115      -0.26468004 </v>
   <v>      -0.17231520      -0.18756719       0.30319543 </v>
   <v>       0.29708566      -0.17212494      -0.18139773 </v>
   <v>      -0.19861028       0.07649389       0.30756204 </v>
   <v>       0.05792816      -0.18523504       0.31529395 </v>
   <v>       0.30491075       0.05433230      -0.17333368 </v>
   <v>      -0.18692113       0.31367524       0.06478406 </v>
   <v>       0.05920513       0.30759921      -0.18370089 </v>
   <v>      -0.18448739       0.31127424      -0.18992014 </v>
   <v>      -0.19751773      -0.19470258       0.06986315 </v>
   <v>       0.31272153      -0.18749070       0.06813350 </v>
   <v>       0.06014838      -0.18844310      -0.19506787 </v>
   <v>      -0.18457586       0.06001129      -0.20298287 </v>
   <v>      -0.24771096      -0.25509949       0.24937730 </v>
   <v>       0.23967194      -0.24719027       0.25418912 </v>
   <v>      -0.25160395       0.24754758       0.25796669 </v>
   <v>      -0.25769524       0.24073765      -0.24083520 </v>
   <v>       0.24243675      -0.26628312      -0.24159952 </v>
   <v>       0.25801803       0.25390113      -0.25302408 </v>
   <v>       0.04377406      -0.43258411       0.32014160 </v>
   <v>       0.05096750       0.06992119       0.31225968 </v>
   <v>       0.30746261       0.06078837       0.05730654 </v>
   <v>      -0.44154038       0.06823723       0.06019313 </v>
   <v>      -0.43867770       0.31975767       0.06087990 </v>
   <v>      -0.44558007       0.06012140       0.32468216 </v>
   <v>       0.05475965       0.32027266       0.05658287 </v>
   <v>       0.06768908      -0.44699772       0.06495017 </v>
   <v>       0.06573198       0.30949415      -0.43540478 </v>
   <v>       0.31528177      -0.45248013       0.06121134 </v>
   <v>       0.32229802       0.05276063      -0.43575814 </v>
   <v>       0.06993569       0.06291685      -0.44889523 </v>
   <v>      -0.24634545      -0.24518099       0.49730361 </v>
   <v>      -0.00257118      -0.23419077       0.49348152 </v>
   <v>      -0.49668348       0.24645897       0.24316117 </v>
   <v>       0.49825231       0.00736216       0.24527221 </v>
   <v>       0.23793046      -0.49819298       0.25312242 </v>
   <v>      -0.24048837      -0.25107042      -0.00920894 </v>
   <v>       0.00742012       0.49800762       0.24087531 </v>
   <v>      -0.49816196       0.24665734      -0.00030480 </v>
   <v>      -0.24990868      -0.00164701      -0.49324951 </v>
   <v>       0.00174286       0.25440661       0.24186167 </v>
   <v>      -0.23902364       0.49456988       0.00473227 </v>
   <v>       0.25004980       0.24444214      -0.00498976 </v>
   <v>       0.24460826       0.49908651       0.00455106 </v>
   <v>       0.25282339       0.00433615      -0.49112200 </v>
   <v>      -0.25601436       0.49392559      -0.25162770 </v>
   <v>       0.00472981       0.24969969      -0.49649263 </v>
   <v>      -0.00565570       0.49895909      -0.24420112 </v>
   <v>       0.49349633      -0.25617617       0.01790539 </v>
   <v>       0.00049171      -0.25338259      -0.25181637 </v>
   <v>       0.24407747       0.24495891      -0.49779807 </v>
   <v>       0.26279916      -0.00188455       0.24501632 </v>
   <v>      -0.26258272       0.00600833      -0.25126102 </v>
   <v>      -0.43053786       0.31210156       0.29983156 </v>
   <v>      -0.49832731      -0.25060788      -0.25739791 </v>
   <v>       0.49973640       0.01438037      -0.26204371 </v>
   <v>      -0.43958988      -0.18988962       0.30635983 </v>
   <v>      -0.18368558      -0.18198717      -0.43362545 </v>
   <v>      -0.19453580      -0.43611369       0.31711951 </v>
   <v>       0.31398051      -0.18532875       0.30499125 </v>
   <v>       0.31150859      -0.43530106       0.31290819 </v>
   <v>      -0.43724552       0.32242579      -0.18535686 </v>
   <v>      -0.19885203      -0.17628280      -0.18873932 </v>
   <v>      -0.19679256      -0.44018151      -0.17820034 </v>
   <v>      -0.19595957       0.32093031       0.31427421 </v>
   <v>      -0.44066541      -0.18211934      -0.18848180 </v>
   <v>       0.30624672      -0.44670827      -0.17973138 </v>
   <v>       0.30760774       0.31449961      -0.43793379 </v>
   <v>      -0.18557247       0.32002804      -0.44462770 </v>
   <v>       0.31441873       0.31423223      -0.18550551 </v>
   <v>       0.31949071      -0.18748437      -0.44373677 </v>
   <v>      -0.49636774       0.00231495       0.00227637 </v>
   <v>       0.49989213      -0.00170129       0.49925280 </v>
   <v>      -0.00122230       0.48820726      -0.48567244 </v>
   <v>       0.49501778      -0.49410209      -0.00314317 </v>
   <v>      -0.00713060       0.00162015      -0.49502967 </v>
   <v>      -0.00305019      -0.49336865      -0.01639844 </v>
   <v>      -0.17719382      -0.43308137       0.06777972 </v>
   <v>      -0.17414908      -0.43550683      -0.44588802 </v>
   <v>      -0.42632098      -0.19548929       0.07132126 </v>
   <v>       0.05834772      -0.43212141      -0.43887166 </v>
   <v>      -0.44032656      -0.18526850      -0.43207235 </v>
   <v>      -0.18466244       0.05400640      -0.43411429 </v>
   <v>      -0.45232967       0.05822225      -0.43218523 </v>
   <v>      -0.42982959      -0.43182855       0.05253675 </v>
   <v>      -0.44909218       0.06509062      -0.18363545 </v>
   <v>      -0.43307292      -0.43448180      -0.19533981 </v>
   <v>       0.07028865      -0.21089506      -0.42738187 </v>
   <v>       0.05331343      -0.42889562      -0.19620081 </v>
   <v>       0.24358305      -0.48737290       0.49558608 </v>
   <v>      -0.25922729       0.26254245       0.48893200 </v>
   <v>      -0.49982505       0.24001110      -0.49404394 </v>
   <v>       0.49770921      -0.49463316       0.23929310 </v>
   <v>       0.49820264      -0.25431398      -0.49486376 </v>
   <v>      -0.49690071       0.25224887      -0.25092956 </v>
   <v>      -0.25772316      -0.49969979       0.25468864 </v>
   <v>      -0.25724033       0.49399172      -0.49922760 </v>
   <v>       0.49551195      -0.25456648       0.25202797 </v>
   <v>      -0.49925410       0.49110363      -0.25081973 </v>
   <v>       0.25385004      -0.25666557      -0.49716634 </v>
   <v>       0.25092816      -0.49998450      -0.26031749 </v>
   <v>       0.31157006       0.30216990       0.32284918 </v>
   <v>       0.06187799       0.31202481       0.31548491 </v>
   <v>       0.29575707       0.31429221       0.07334612 </v>
   <v>       0.30112624       0.06934133       0.31409752 </v>
   <v>      -0.24473097      -0.25888981      -0.25230281 </v>
   <v>       0.23861456       0.25354512       0.26345519 </v>
   <v>      -0.44362382      -0.42877564      -0.44071916 </v>
   <v>      -0.42995670       0.31195691      -0.44362585 </v>
   <v>      -0.43990746      -0.44299523       0.31423435 </v>
   <v>       0.31148659      -0.44216742      -0.43979689 </v>
   <v>       0.49968067      -0.49086795       0.49692583 </v>
  </varray>
 </structure>
 <varray name="primitive_index" >
  <v type="int" >        1 </v>
  <v type="int" >       68 </v>
  <v type="int" >       77 </v>
  <v type="int" >       65 </v>
  <v type="int" >      113 </v>
  <v type="int" >       17 </v>
  <v type="int" >       20 </v>
  <v type="int" >        4 </v>
  <v type="int" >       29 </v>
  <v type="int" >       13 </v>
  <v type="int" >        8 </v>
  <v type="int" >        2 </v>
  <v type="int" >        5 </v>
  <v type="int" >       14 </v>
  <v type="int" >       50 </v>
  <v type="int" >       53 </v>
  <v type="int" >       49 </v>
  <v type="int" >       96 </v>
  <v type="int" >      126 </v>
  <v type="int" >       84 </v>
  <v type="int" >       93 </v>
  <v type="int" >      114 </v>
  <v type="int" >       72 </v>
  <v type="int" >      117 </v>
  <v type="int" >      120 </v>
  <v type="int" >       80 </v>
  <v type="int" >       78 </v>
  <v type="int" >      125 </v>
  <v type="int" >      116 </v>
  <v type="int" >       32 </v>
  <v type="int" >       30 </v>
  <v type="int" >       24 </v>
  <v type="int" >       56 </v>
  <v type="int" >       62 </v>
  <v type="int" >       54 </v>
  <v type="int" >       89 </v>
  <v type="int" >       81 </v>
  <v type="int" >       66 </v>
  <v type="int" >       67 </v>
  <v type="int" >       71 </v>
  <v type="int" >       83 </v>
  <v type="int" >       69 </v>
  <v type="int" >       73 </v>
  <v type="int" >      101 </v>
  <v type="int" >       74 </v>
  <v type="int" >       98 </v>
  <v type="int" >       97 </v>
  <v type="int" >       48 </v>
  <v type="int" >       45 </v>
  <v type="int" >       23 </v>
  <v type="int" >       19 </v>
  <v type="int" >       26 </v>
  <v type="int" >       16 </v>
  <v type="int" >       25 </v>
  <v type="int" >        7 </v>
  <v type="int" >       36 </v>
  <v type="int" >       21 </v>
  <v type="int" >       12 </v>
  <v type="int" >        6 </v>
  <v type="int" >       10 </v>
  <v type="int" >       34 </v>
  <v type="int" >       60 </v>
  <v type="int" >       37 </v>
  <v type="int" >       57 </v>
  <v type="int" >       15 </v>
  <v type="int" >       61 </v>
  <v type="int" >       38 </v>
  <v type="int" >       18 </v>
  <v type="int" >       52 </v>
  <v type="int" >       87 </v>
  <v type="int" >       63 </v>
  <v type="int" >       51 </v>
  <v type="int" >       95 </v>
  <v type="int" >      112 </v>
  <v type="int" >       92 </v>
  <v type="int" >       94 </v>
  <v type="int" >       90 </v>
  <v type="int" >      119 </v>
  <v type="int" >      128 </v>
  <v type="int" >      124 </v>
  <v type="int" >       88 </v>
  <v type="int" >      127 </v>
  <v type="int" >      122 </v>
  <v type="int" >      102 </v>
  <v type="int" >      104 </v>
  <v type="int" >      118 </v>
  <v type="int" >      110 </v>
  <v type="int" >        3 </v>
  <v type="int" >       35 </v>
  <v type="int" >       41 </v>
  <v type="int" >       11 </v>
  <v type="int" >       33 </v>
  <v type="int" >        9 </v>
  <v type="int" >       76 </v>
  <v type="int" >      108 </v>
  <v type="int" >       79 </v>
  <v type="int" >      105 </v>
  <v type="int" >      111 </v>
  <v type="int" >      100 </v>
  <v type="int" >       99 </v>
  <v type="int" >       75 </v>
  <v type="int" >      115 </v>
  <v type="int" >      123 </v>
  <v type="int" >      109 </v>
  <v type="int" >      121 </v>
  <v type="int" >       42 </v>
  <v type="int" >       40 </v>
  <v type="int" >       39 </v>
  <v type="int" >       27 </v>
  <v type="int" >       47 </v>
  <v type="int" >       55 </v>
  <v type="int" >       28 </v>
  <v type="int" >       44 </v>
  <v type="int" >       31 </v>
  <v type="int" >       59 </v>
  <v type="int" >       46 </v>
  <v type="int" >       58 </v>
  <v type="int" >       86 </v>
  <v type="int" >       85 </v>
  <v type="int" >       70 </v>
  <v type="int" >       82 </v>
  <v type="int" >       64 </v>
  <v type="int" >       22 </v>
  <v type="int" >      107 </v>
  <v type="int" >      103 </v>
  <v type="int" >       91 </v>
  <v type="int" >      106 </v>
  <v type="int" >       43 </v>
 </varray>
 <kpoints>
  <generation param="Gamma">
   <v type="int" name="divisions">       2        2        2 </v>
   <v name="usershift">      0.00000000       0.00000000       0.00000000 </v>
   <v name="genvec1">      0.50000000       0.00000000       0.00000000 </v>
   <v name="genvec2">      0.00000000       0.50000000       0.00000000 </v>
   <v name="genvec3">      0.00000000       0.00000000       0.50000000 </v>
   <v name="shift">      0.00000000       0.00000000       0.00000000 </v>
  </generation>
  <varray name="kpointlist" >
   <v>       0.00000000       0.00000000       0.00000000 </v>
   <v>       0.50000000       0.00000000       0.00000000 </v>
   <v>       0.00000000       0.50000000       0.00000000 </v>
   <v>       0.50000000       0.50000000       0.00000000 </v>
   <v>       0.00000000       0.00000000       0.50000000 </v>
   <v>       0.50000000       0.00000000       0.50000000 </v>
   <v>       0.00000000       0.50000000       0.50000000 </v>
   <v>       0.50000000       0.50000000       0.50000000 </v>
  </varray>
  <varray name="weights" >
   <v>       0.12500000 </v>
   <v>       0.12500000 </v>
   <v>       0.12500000 </v>
   <v>       0.12500000 </v>
   <v>       0.12500000 </v>
   <v>       0.12500000 </v>
   <v>       0.12500000 </v>
   <v>       0.12500000 </v>
  </varray>
 </kpoints>
 <parameters>
  <separator name="general" >
   <i type="string" name="SYSTEM">potpaw_PBE@./ARUN.APL1ZEROSTATE</i>
   <i type="logical" name="LCOMPAT"> F  </i>
  </separator>
  <separator name="electronic" >
   <i type="string" name="PREC">accura</i>
   <i name="ENMAX">    500.00000000</i>
   <i name="ENAUG">    322.06900000</i>
   <i name="EDIFF">      0.00000001</i>
   <i type="int" name="IALGO">    38</i>
   <i type="int" name="IWAVPR">    10</i>
   <i type="int" name="NBANDS">   322</i>
   <i name="NELECT">    512.00000000</i>
   <i type="int" name="TURBO">     0</i>
   <i type="int" name="IRESTART">     0</i>
   <i type="int" name="NREBOOT">     0</i>
   <i type="int" name="NMIN">     0</i>
   <i name="EREF">      0.00000000</i>
   <separator name="electronic smearing" >
    <i type="int" name="ISMEAR">     0</i>
    <i name="SIGMA">      0.01000000</i>
    <i name="KSPACING">      0.50000000</i>
    <i type="logical" name="KGAMMA"> T  </i>
   </separator>
   <separator name="electronic projectors" >
    <i type="logical" name="LREAL"> F  </i>
    <v name="ROPT">      0.00000000</v>
    <i type="int" name="LMAXPAW">  -100</i>
    <i type="int" name="LMAXMIX">     2</i>
    <i type="logical" name="NLSPLINE"> F  </i>
   </separator>
   <separator name="electronic startup" >
    <i type="int" name="ISTART">     0</i>
    <i type="int" name="ICHARG">     2</i>
    <i type="int" name="INIWAV">     1</i>
   </separator>
   <separator name="electronic spin" >
    <i type="int" name="ISPIN">     1</i>
    <i type="logical" name="LNONCOLLINEAR"> F  </i>
    <v name="MAGMOM">      1.00000000      1.00000000      1.00000000      1.00000000      1.00000000      1.00000000      1.00000000      1.00000000      1.00000000      1.00000000      1.00000000      1.00000000      1.00000000      1.00000000      1.00000000      1.00000000      1.00000000      1.00000000      1.00000000      1.00000000
      1.00000000      1.00000000      1.00000000      1.00000000      1.00000000      1.00000000      1.00000000      1.00000000      1.00000000      1.00000000      1.00000000      1.00000000      1.00000000      1.00000000      1.00000000      1.00000000      1.00000000      1.00000000      1.00000000      1.00000000
      1.00000000      1.00000000      1.00000000      1.00000000      1.00000000      1.00000000      1.00000000      1.00000000      1.00000000      1.00000000      1.00000000      1.00000000      1.00000000      1.00000000      1.00000000      1.00000000      1.00000000      1.00000000      1.00000000      1.00000000
      1.00000000      1.00000000      1.00000000      1.00000000      1.00000000      1.00000000      1.00000000      1.00000000      1.00000000      1.00000000      1.00000000      1.00000000      1.00000000      1.00000000      1.00000000      1.00000000      1.00000000      1.00000000      1.00000000      1.00000000
      1.00000000      1.00000000      1.00000000      1.00000000      1.00000000      1.00000000      1.00000000      1.00000000      1.00000000      1.00000000      1.00000000      1.00000000      1.00000000      1.00000000      1.00000000      1.00000000      1.00000000      1.00000000      1.00000000      1.00000000
      1.00000000      1.00000000      1.00000000      1.00000000      1.00000000      1.00000000      1.00000000      1.00000000      1.00000000      1.00000000      1.00000000      1.00000000      1.00000000      1.00000000      1.00000000      1.00000000      1.00000000      1.00000000      1.00000000      1.00000000
      1.00000000      1.00000000      1.00000000      1.00000000      1.00000000      1.00000000      1.00000000      1.00000000</v>
    <i name="NUPDOWN">     -1.00000000</i>
    <i type="logical" name="LSORBIT"> F  </i>
    <v name="SAXIS">      0.00000000      0.00000000      1.00000000</v>
    <i type="logical" name="LSPIRAL"> F  </i>
    <v name="QSPIRAL">      0.00000000      0.00000000      0.00000000</v>
    <i type="logical" name="LZEROZ"> F  </i>
   </separator>
   <separator name="electronic exchange-correlation" >
    <i type="logical" name="LASPH"> F  </i>
    <i type="logical" name="LMETAGGA"> F  </i>
   </separator>
   <separator name="electronic convergence" >
    <i type="int" name="NELM">   120</i>
    <i type="int" name="NELMDL">    -5</i>
    <i type="int" name="NELMIN">     4</i>
    <i name="ENINI">    500.00000000</i>
    <separator name="electronic convergence detail" >
     <i type="logical" name="LDIAG"> T  </i>
     <i type="logical" name="LSUBROT"> F  </i>
     <i name="WEIMIN">      0.00000000</i>
     <i name="EBREAK">      0.00000000</i>
     <i name="DEPER">      0.30000000</i>
     <i type="int" name="NRMM">     4</i>
     <i name="TIME">      0.40000000</i>
    </separator>
   </separator>
   <separator name="electronic mixer" >
    <i name="AMIX">      0.40000000</i>
    <i name="BMIX">      1.00000000</i>
    <i name="AMIN">      0.10000000</i>
    <i name="AMIX_MAG">      1.60000000</i>
    <i name="BMIX_MAG">      1.00000000</i>
    <separator name="electronic mixer details" >
     <i type="int" name="IMIX">     4</i>
     <i type="logical" name="MIXFIRST"> F  </i>
     <i type="int" name="MAXMIX">   -45</i>
     <i name="WC">    100.00000000</i>
     <i type="int" name="INIMIX">     1</i>
     <i type="int" name="MIXPRE">     1</i>
     <i type="int" name="MREMOVE">     5</i>
    </separator>
   </separator>
   <separator name="electronic dipolcorrection" >
    <i type="logical" name="LDIPOL"> F  </i>
    <i type="logical" name="LMONO"> F  </i>
    <i type="int" name="IDIPOL">     0</i>
    <i name="EPSILON">      1.00000000</i>
    <v name="DIPOL">   -100.00000000   -100.00000000   -100.00000000</v>
    <i name="EFIELD">      0.00000000</i>
   </separator>
  </separator>
  <separator name="grids" >
   <i type="int" name="NGX">   120</i>
   <i type="int" name="NGY">   120</i>
   <i type="int" name="NGZ">   120</i>
   <i type="int" name="NGXF">   240</i>
   <i type="int" name="NGYF">   240</i>
   <i type="int" name="NGZF">   240</i>
   <i type="logical" name="ADDGRID"> T  </i>
  </separator>
  <separator name="ionic" >
   <i type="int" name="NSW">     0</i>
   <i type="int" name="IBRION">    -1</i>
   <i type="int" name="MDALGO">     0</i>
   <i type="int" name="ISIF">     2</i>
   <i name="PSTRESS">      0.00000000</i>
   <i name="EDIFFG">      0.00000010</i>
   <i type="int" name="NFREE">     0</i>
   <i name="POTIM">      0.50000000</i>
   <i name="SMASS">     -3.00000000</i>
   <i name="SCALEE">      1.00000000</i>
  </separator>
  <separator name="ionic md" >
   <i name="TEBEG">      0.00010000</i>
   <i name="TEEND">      0.00010000</i>
   <i type="int" name="NBLOCK">     1</i>
   <i type="int" name="KBLOCK">     1</i>
   <i type="int" name="NPACO">   256</i>
   <i name="APACO">     16.00000000</i>
  </separator>
  <separator name="symmetry" >
   <i type="int" name="ISYM">     2</i>
   <i name="SYMPREC">      0.00001000</i>
  </separator>
  <separator name="dos" >
   <i type="int" name="LORBIT">     0</i>
   <v name="RWIGS">     -1.00000000</v>
   <i type="int" name="NEDOS">   301</i>
   <i name="EMIN">     10.00000000</i>
   <i name="EMAX">    -10.00000000</i>
   <i name="EFERMI">      0.00000000</i>
  </separator>
  <separator name="writing" >
   <i type="int" name="NWRITE">     2</i>
   <i type="logical" name="LWAVE"> F  </i>
   <i type="logical" name="LDOWNSAMPLE"> F  </i>
   <i type="logical" name="LCHARG"> F  </i>
   <i type="logical" name="LPARD"> F  </i>
   <i type="logical" name="LVTOT"> F  </i>
   <i type="logical" name="LVHAR"> F  </i>
   <i type="logical" name="LELF"> F  </i>
   <i type="logical" name="LOPTICS"> F  </i>
   <v name="STM">      0.00000000      0.00000000      0.00000000      0.00000000      0.00000000      0.00000000      0.00000000</v>
  </separator>
  <separator name="performance" >
   <i type="int" name="NPAR">     2</i>
   <i type="int" name="NSIM">     4</i>
   <i type="int" name="NBLK">    -1</i>
   <i type="logical" name="LPLANE"> T  </i>
   <i type="logical" name="LSCALAPACK"> T  </i>
   <i type="logical" name="LSCAAWARE"> F  </i>
   <i type="logical" name="LSCALU"> F  </i>
   <i type="logical" name="LASYNC"> F  </i>
   <i type="logical" name="LORBITALREAL"> F  </i>
  </separator>
  <separator name="miscellaneous" >
   <i type="int" name="IDIOT">     3</i>
   <i type="int" name="ISPECIAL">     0</i>
   <i type="logical" name="LMUSIC"> F  </i>
   <v name="POMASS">     28.08500000</v>
   <v name="DARWINR">      0.00000000</v>
   <v name="DARWINV">      1.00000000</v>
   <i type="logical" name="LCORR"> T  </i>
  </separator>
  <i type="logical" name="GGA_COMPAT"> T  </i>
  <i type="logical" name="LBERRY"> F  </i>
  <i type="int" name="ICORELEVEL">     0</i>
  <i type="logical" name="LDAU"> F  </i>
  <i type="int" name="I_CONSTRAINED_M">     0</i>
  <separator name="electronic exchange-correlation" >
   <i type="string" name="GGA">--</i>
   <i type="int" name="VOSKOWN">     0</i>
   <i type="logical" name="LHFCALC"> F  </i>
   <i type="string" name="PRECFOCK"></i>
   <i type="logical" name="LSYMGRAD"> F  </i>
   <i type="logical" name="LHFONE"> F  </i>
   <i type="logical" name="LRHFCALC"> F  </i>
   <i type="logical" name="LTHOMAS"> F  </i>
   <i type="logical" name="LMODELHF"> F  </i>
   <i name="ENCUT4O">     -1.00000000</i>
   <i type="int" name="EXXOEP">     0</i>
   <i type="int" name="FOURORBIT">     0</i>
   <i name="AEXX">      0.00000000</i>
   <i name="HFALPHA">      0.00000000</i>
   <i name="MCALPHA">      0.00000000</i>
   <i name="ALDAX">      1.00000000</i>
   <i name="AGGAX">      1.00000000</i>
   <i name="ALDAC">      1.00000000</i>
   <i name="AGGAC">      1.00000000</i>
   <i type="int" name="NKREDX">     1</i>
   <i type="int" name="NKREDY">     1</i>
   <i type="int" name="NKREDZ">     1</i>
   <i type="logical" name="SHIFTRED"> F  </i>
   <i type="logical" name="ODDONLY"> F  </i>
   <i type="logical" name="EVENONLY"> F  </i>
   <i type="int" name="LMAXFOCK">     0</i>
   <i type="int" name="NMAXFOCKAE">     0</i>
   <i type="logical" name="LFOCKAEDFT"> F  </i>
   <i name="HFSCREEN">      0.00000000</i>
   <i name="HFSCREENC">      0.00000000</i>
   <i type="int" name="NBANDSGWLOW">     0</i>
  </separator>
  <separator name="vdW DFT" >
   <i type="logical" name="LUSE_VDW"> F  </i>
   <i name="Zab_VDW">     -0.84910000</i>
   <i name="PARAM1">      0.12340000</i>
   <i name="PARAM2">      1.00000000</i>
   <i name="PARAM3">      0.00000000</i>
  </separator>
  <separator name="model GW" >
   <i type="int" name="MODEL_GW">     0</i>
   <i name="MODEL_EPS0">     12.26607635</i>
   <i name="MODEL_ALPHA">      1.00000000</i>
  </separator>
  <separator name="linear response parameters" >
   <i type="logical" name="LEPSILON"> F  </i>
   <i type="logical" name="LRPA"> F  </i>
   <i type="logical" name="LNABLA"> F  </i>
   <i type="logical" name="LVEL"> F  </i>
   <i type="int" name="KINTER">     0</i>
   <i name="CSHIFT">      0.10000000</i>
   <i name="OMEGAMAX">     -1.00000000</i>
   <i name="DEG_THRESHOLD">      0.00200000</i>
   <i name="RTIME">     -0.10000000</i>
   <i name="WPLASMAI">      0.00000000</i>
   <v name="DFIELD">      0.00000000      0.00000000      0.00000000</v>
   <v name="WPLASMA">      0.00000000      0.00000000      0.00000000      0.00000000      0.00000000      0.00000000      0.00000000      0.00000000      0.00000000</v>
  </separator>
  <separator name="orbital magnetization" >
   <i type="logical" name="NUCIND"> F  </i>
   <v name="MAGPOS">      0.00000000      0.00000000      0.00000000</v>
   <i type="logical" name="LNICSALL"> T  </i>
   <i type="logical" name="ORBITALMAG"> F  </i>
   <i type="logical" name="LMAGBLOCH"> F  </i>
   <i type="logical" name="LCHIMAG"> F  </i>
   <i type="logical" name="LGAUGE"> T  </i>
   <i type="int" name="MAGATOM">     0</i>
   <v name="MAGDIPOL">      0.00000000      0.00000000      0.00000000</v>
   <v name="AVECCONST">      0.00000000      0.00000000      0.00000000</v>
  </separator>
  <separator name="response functions" >
   <i type="logical" name="LADDER"> F  </i>
   <i type="logical" name="LRPAFORCE"> F  </i>
   <i type="logical" name="LFXC"> F  </i>
   <i type="logical" name="LHARTREE"> T  </i>
   <i type="int" name="IBSE">     0</i>
   <v type="int" name="KPOINT">    -1     0     0     0</v>
   <i type="logical" name="LTCTE"> F  </i>
   <i type="logical" name="LTETE"> F  </i>
   <i type="logical" name="LTRIPLET"> F  </i>
   <i type="logical" name="LFXCEPS"> F  </i>
   <i type="logical" name="LFXHEG"> F  </i>
   <i type="int" name="NATURALO">     2</i>
   <i type="logical" name="L2ORDER"> F  </i>
   <i type="logical" name="LMP2LT"> F  </i>
   <i type="logical" name="LUSEW"> F  </i>
   <i name="ENCUTGW">     -2.00000000</i>
   <i name="ENCUTGWSOFT">     -2.00000000</i>
   <i name="ENCUTLF">     -1.00000000</i>
   <i type="int" name="LMAXMP2">    -1</i>
   <i name="SCISSOR">      0.00000000</i>
   <i type="int" name="NOMEGA">     0</i>
   <i type="int" name="NOMEGAR">     0</i>
   <i type="int" name="NBANDSGW">    -1</i>
   <i type="int" name="NBANDSO">    -1</i>
   <i type="int" name="NBANDSV">    -1</i>
   <i type="int" name="NELM">   120</i>
   <i type="int" name="NELMHF">     1</i>
   <i type="int" name="DIM">     3</i>
   <i type="int" name="ANTIRES">     0</i>
   <i name="OMEGAMAX">    -30.00000000</i>
   <i name="OMEGAMIN">    -30.00000000</i>
   <i name="OMEGATL">   -200.00000000</i>
   <i type="int" name="OMEGAGRID">   140</i>
   <i name="CSHIFT">     -0.10000000</i>
   <i type="logical" name="SELFENERGY"> F  </i>
   <i type="logical" name="LSPECTRAL"> F  </i>
   <i type="logical" name="LSPECTRALGW"> F  </i>
   <i type="logical" name="LSINGLES"> F  </i>
   <i type="logical" name="LFERMIGW"> F  </i>
   <i type="logical" name="ODDONLYGW"> F  </i>
   <i type="logical" name="EVENONLYGW"> F  </i>
   <i type="int" name="NKREDLFX">     1</i>
   <i type="int" name="NKREDLFY">     1</i>
   <i type="int" name="NKREDLFZ">     1</i>
   <i type="int" name="MAXMEM">  2800</i>
   <i type="int" name="TELESCOPE">     0</i>
   <i type="int" name="TAUPAR">     1</i>
   <i type="int" name="OMEGAPAR">    -1</i>
   <i name="LAMBDA">      1.00000000</i>
  </separator>
  <separator name="External order field" >
   <i name="OFIELD_KAPPA">      0.00000000</i>
   <v name="OFIELD_K">      0.00000000      0.00000000      0.00000000</v>
   <i name="OFIELD_Q6_NEAR">      0.00000000</i>
   <i name="OFIELD_Q6_FAR">      0.00000000</i>
   <i name="OFIELD_A">      0.00000000</i>
  </separator>
 </parameters>
 <atominfo>
  <atoms>     128 </atoms>
  <types>       1 </types>
  <array name="atoms" >
   <dimension dim="1">ion</dimension>
   <field type="string">element</field>
   <field type="int">atomtype</field>
   <set>
    <rc><c>Si</c><c>   1</c></rc>
    <rc><c>Si</c><c>   1</c></rc>
    <rc><c>Si</c><c>   1</c></rc>
    <rc><c>Si</c><c>   1</c></rc>
    <rc><c>Si</c><c>   1</c></rc>
    <rc><c>Si</c><c>   1</c></rc>
    <rc><c>Si</c><c>   1</c></rc>
    <rc><c>Si</c><c>   1</c></rc>
    <rc><c>Si</c><c>   1</c></rc>
    <rc><c>Si</c><c>   1</c></rc>
    <rc><c>Si</c><c>   1</c></rc>
    <rc><c>Si</c><c>   1</c></rc>
    <rc><c>Si</c><c>   1</c></rc>
    <rc><c>Si</c><c>   1</c></rc>
    <rc><c>Si</c><c>   1</c></rc>
    <rc><c>Si</c><c>   1</c></rc>
    <rc><c>Si</c><c>   1</c></rc>
    <rc><c>Si</c><c>   1</c></rc>
    <rc><c>Si</c><c>   1</c></rc>
    <rc><c>Si</c><c>   1</c></rc>
    <rc><c>Si</c><c>   1</c></rc>
    <rc><c>Si</c><c>   1</c></rc>
    <rc><c>Si</c><c>   1</c></rc>
    <rc><c>Si</c><c>   1</c></rc>
    <rc><c>Si</c><c>   1</c></rc>
    <rc><c>Si</c><c>   1</c></rc>
    <rc><c>Si</c><c>   1</c></rc>
    <rc><c>Si</c><c>   1</c></rc>
    <rc><c>Si</c><c>   1</c></rc>
    <rc><c>Si</c><c>   1</c></rc>
    <rc><c>Si</c><c>   1</c></rc>
    <rc><c>Si</c><c>   1</c></rc>
    <rc><c>Si</c><c>   1</c></rc>
    <rc><c>Si</c><c>   1</c></rc>
    <rc><c>Si</c><c>   1</c></rc>
    <rc><c>Si</c><c>   1</c></rc>
    <rc><c>Si</c><c>   1</c></rc>
    <rc><c>Si</c><c>   1</c></rc>
    <rc><c>Si</c><c>   1</c></rc>
    <rc><c>Si</c><c>   1</c></rc>
    <rc><c>Si</c><c>   1</c></rc>
    <rc><c>Si</c><c>   1</c></rc>
    <rc><c>Si</c><c>   1</c></rc>
    <rc><c>Si</c><c>   1</c></rc>
    <rc><c>Si</c><c>   1</c></rc>
    <rc><c>Si</c><c>   1</c></rc>
    <rc><c>Si</c><c>   1</c></rc>
    <rc><c>Si</c><c>   1</c></rc>
    <rc><c>Si</c><c>   1</c></rc>
    <rc><c>Si</c><c>   1</c></rc>
    <rc><c>Si</c><c>   1</c></rc>
    <rc><c>Si</c><c>   1</c></rc>
    <rc><c>Si</c><c>   1</c></rc>
    <rc><c>Si</c><c>   1</c></rc>
    <rc><c>Si</c><c>   1</c></rc>
    <rc><c>Si</c><c>   1</c></rc>
    <rc><c>Si</c><c>   1</c></rc>
    <rc><c>Si</c><c>   1</c></rc>
    <rc><c>Si</c><c>   1</c></rc>
    <rc><c>Si</c><c>   1</c></rc>
    <rc><c>Si</c><c>   1</c></rc>
    <rc><c>Si</c><c>   1</c></rc>
    <rc><c>Si</c><c>   1</c></rc>
    <rc><c>Si</c><c>   1</c></rc>
    <rc><c>Si</c><c>   1</c></rc>
    <rc><c>Si</c><c>   1</c></rc>
    <rc><c>Si</c><c>   1</c></rc>
    <rc><c>Si</c><c>   1</c></rc>
    <rc><c>Si</c><c>   1</c></rc>
    <rc><c>Si</c><c>   1</c></rc>
    <rc><c>Si</c><c>   1</c></rc>
    <rc><c>Si</c><c>   1</c></rc>
    <rc><c>Si</c><c>   1</c></rc>
    <rc><c>Si</c><c>   1</c></rc>
    <rc><c>Si</c><c>   1</c></rc>
    <rc><c>Si</c><c>   1</c></rc>
    <rc><c>Si</c><c>   1</c></rc>
    <rc><c>Si</c><c>   1</c></rc>
    <rc><c>Si</c><c>   1</c></rc>
    <rc><c>Si</c><c>   1</c></rc>
    <rc><c>Si</c><c>   1</c></rc>
    <rc><c>Si</c><c>   1</c></rc>
    <rc><c>Si</c><c>   1</c></rc>
    <rc><c>Si</c><c>   1</c></rc>
    <rc><c>Si</c><c>   1</c></rc>
    <rc><c>Si</c><c>   1</c></rc>
    <rc><c>Si</c><c>   1</c></rc>
    <rc><c>Si</c><c>   1</c></rc>
    <rc><c>Si</c><c>   1</c></rc>
    <rc><c>Si</c><c>   1</c></rc>
    <rc><c>Si</c><c>   1</c></rc>
    <rc><c>Si</c><c>   1</c></rc>
    <rc><c>Si</c><c>   1</c></rc>
    <rc><c>Si</c><c>   1</c></rc>
    <rc><c>Si</c><c>   1</c></rc>
    <rc><c>Si</c><c>   1</c></rc>
    <rc><c>Si</c><c>   1</c></rc>
    <rc><c>Si</c><c>   1</c></rc>
    <rc><c>Si</c><c>   1</c></rc>
    <rc><c>Si</c><c>   1</c></rc>
    <rc><c>Si</c><c>   1</c></rc>
    <rc><c>Si</c><c>   1</c></rc>
    <rc><c>Si</c><c>   1</c></rc>
    <rc><c>Si</c><c>   1</c></rc>
    <rc><c>Si</c><c>   1</c></rc>
    <rc><c>Si</c><c>   1</c></rc>
    <rc><c>Si</c><c>   1</c></rc>
    <rc><c>Si</c><c>   1</c></rc>
    <rc><c>Si</c><c>   1</c></rc>
    <rc><c>Si</c><c>   1</c></rc>
    <rc><c>Si</c><c>   1</c></rc>
    <rc><c>Si</c><c>   1</c></rc>
    <rc><c>Si</c><c>   1</c></rc>
    <rc><c>Si</c><c>   1</c></rc>
    <rc><c>Si</c><c>   1</c></rc>
    <rc><c>Si</c><c>   1</c></rc>
    <rc><c>Si</c><c>   1</c></rc>
    <rc><c>Si</c><c>   1</c></rc>
    <rc><c>Si</c><c>   1</c></rc>
    <rc><c>Si</c><c>   1</c></rc>
    <rc><c>Si</c><c>   1</c></rc>
    <rc><c>Si</c><c>   1</c></rc>
    <rc><c>Si</c><c>   1</c></rc>
    <rc><c>Si</c><c>   1</c></rc>
    <rc><c>Si</c><c>   1</c></rc>
    <rc><c>Si</c><c>   1</c></rc>
    <rc><c>Si</c><c>   1</c></rc>
    <rc><c>Si</c><c>   1</c></rc>
   </set>
  </array>
  <array name="atomtypes" >
   <dimension dim="1">type</dimension>
   <field type="int">atomspertype</field>
   <field type="string">element</field>
   <field>mass</field>
   <field>valence</field>
   <field type="string">pseudopotential</field>
   <set>
    <rc><c> 128</c><c>Si</c><c>     28.08500000</c><c>      4.00000000</c><c> PAW_PBE Si 05Jan2001                   </c></rc>
   </set>
  </array>
 </atominfo>
 <structure name="initialpos" >
  <crystal>
   <varray name="basis" >
    <v>       0.00000000      10.93733369      10.93733369 </v>
    <v>      10.93733369       0.00000000      10.93733369 </v>
    <v>      10.93733369      10.93733369       0.00000000 </v>
   </varray>
   <i name="volume">   2616.76295363 </i>
   <varray name="rec_basis" >
    <v>      -0.04571498       0.04571498       0.04571498 </v>
    <v>       0.04571498      -0.04571498       0.04571498 </v>
    <v>       0.04571498       0.04571498      -0.04571498 </v>
   </varray>
  </crystal>
  <varray name="positions" >
   <v>       0.99056633       0.99547043       0.01192237 </v>
   <v>       0.24872191       0.99090753       0.00234209 </v>
   <v>       0.50363226       0.00231495       0.00227637 </v>
   <v>       0.74747162       0.01100117       0.00101133 </v>
   <v>       0.99686599       0.24253183       0.01412982 </v>
   <v>       0.25004980       0.24444214       0.99501024 </v>
   <v>       0.50183804       0.24665734       0.99969520 </v>
   <v>       0.74833844       0.24976289       0.99691837 </v>
   <v>       0.99694981       0.50663135       0.98360156 </v>
   <v>       0.24460826       0.49908651       0.00455106 </v>
   <v>       0.49501778       0.50589791       0.99685683 </v>
   <v>       0.76097636       0.49456988       0.00473227 </v>
   <v>       0.00332148       0.74470469       0.00525153 </v>
   <v>       0.25637792       0.75672547       0.99458423 </v>
   <v>       0.49349633       0.74382383       0.01790539 </v>
   <v>       0.75951163       0.74892958       0.99079106 </v>
   <v>       0.99515231       0.99278261       0.24627468 </v>
   <v>       0.26279916       0.99811545       0.24501632 </v>
   <v>       0.49825231       0.00736216       0.24527221 </v>
   <v>       0.75067073       0.99272962       0.24855441 </v>
   <v>       0.00174286       0.25440661       0.24186167 </v>
   <v>       0.23861456       0.25354512       0.26345519 </v>
   <v>       0.50331652       0.24645897       0.24316117 </v>
   <v>       0.74839605       0.24754758       0.25796669 </v>
   <v>       0.00742012       0.49800762       0.24087531 </v>
   <v>       0.23793046       0.50180702       0.25312242 </v>
   <v>       0.49770921       0.50536684       0.23929310 </v>
   <v>       0.74227684       0.50030021       0.25468864 </v>
   <v>       0.00469510       0.74738413       0.25487482 </v>
   <v>       0.23967194       0.75280973       0.25418912 </v>
   <v>       0.49551195       0.74543352       0.25202797 </v>
   <v>       0.75228904       0.74490051       0.24937730 </v>
   <v>       0.99286940       0.00162015       0.50497033 </v>
   <v>       0.25282339       0.00433615       0.50887800 </v>
   <v>       0.49989213       0.99829871       0.49925280 </v>
   <v>       0.75009132       0.99835299       0.50675049 </v>
   <v>       0.00472981       0.24969969       0.50350737 </v>
   <v>       0.24407747       0.24495891       0.50220193 </v>
   <v>       0.50017495       0.24001110       0.50595606 </v>
   <v>       0.74077271       0.26254245       0.48893200 </v>
   <v>       0.99877770       0.48820726       0.51432756 </v>
   <v>       0.24358305       0.51262710       0.49558608 </v>
   <v>       0.49968067       0.50913205       0.49692583 </v>
   <v>       0.74275967       0.49399172       0.50077240 </v>
   <v>       0.99742882       0.76580923       0.49348152 </v>
   <v>       0.25385004       0.74333443       0.50283366 </v>
   <v>       0.49820264       0.74568602       0.50513624 </v>
   <v>       0.75365455       0.75481901       0.49730361 </v>
   <v>       0.99745838       0.01539115       0.73531996 </v>
   <v>       0.23961877       0.01418931       0.75176270 </v>
   <v>       0.49973640       0.01438037       0.73795629 </v>
   <v>       0.73741728       0.00600833       0.74873898 </v>
   <v>       0.01027301       0.24539842       0.74941797 </v>
   <v>       0.25801803       0.25390113       0.74697592 </v>
   <v>       0.50309929       0.25224887       0.74907044 </v>
   <v>       0.74230476       0.24073765       0.75916480 </v>
   <v>       0.99434430       0.49895909       0.75579888 </v>
   <v>       0.25092816       0.50001550       0.73968251 </v>
   <v>       0.50074590       0.49110363       0.74918027 </v>
   <v>       0.74398564       0.49392559       0.74837230 </v>
   <v>       0.00049171       0.74661741       0.74818363 </v>
   <v>       0.24243675       0.73371688       0.75840048 </v>
   <v>       0.50167269       0.74939212       0.74260209 </v>
   <v>       0.75526903       0.74111019       0.74769719 </v>
   <v>       0.05525250       0.06148192       0.06359411 </v>
   <v>       0.30746261       0.06078837       0.05730654 </v>
   <v>       0.55845962       0.06823723       0.06019313 </v>
   <v>       0.82163856       0.07507971       0.04577673 </v>
   <v>       0.05475965       0.32027266       0.05658287 </v>
   <v>       0.29575707       0.31429221       0.07334612 </v>
   <v>       0.56132230       0.31975767       0.06087990 </v>
   <v>       0.81307887       0.31367524       0.06478406 </v>
   <v>       0.06768908       0.55300228       0.06495017 </v>
   <v>       0.31528177       0.54751987       0.06121134 </v>
   <v>       0.57017041       0.56817145       0.05253675 </v>
   <v>       0.82280618       0.56691863       0.06777972 </v>
   <v>       0.06970819       0.81858530       0.05946626 </v>
   <v>       0.31272153       0.81250930       0.06813350 </v>
   <v>       0.57367902       0.80451071       0.07132126 </v>
   <v>       0.80248227       0.80529742       0.06986315 </v>
   <v>       0.05096750       0.06992119       0.31225968 </v>
   <v>       0.30112624       0.06934133       0.31409752 </v>
   <v>       0.55441993       0.06012140       0.32468216 </v>
   <v>       0.80138972       0.07649389       0.30756204 </v>
   <v>       0.06187799       0.31202481       0.31548491 </v>
   <v>       0.31157006       0.30216990       0.32284918 </v>
   <v>       0.56946214       0.31210156       0.29983156 </v>
   <v>       0.80404043       0.32093031       0.31427421 </v>
   <v>       0.04377406       0.56741589       0.32014160 </v>
   <v>       0.31150859       0.56469894       0.31290819 </v>
   <v>       0.56009254       0.55700477       0.31423435 </v>
   <v>       0.80546420       0.56388631       0.31711951 </v>
   <v>       0.05792816       0.81476496       0.31529395 </v>
   <v>       0.31398051       0.81467125       0.30499125 </v>
   <v>       0.56041012       0.81011038       0.30635983 </v>
   <v>       0.82768480       0.81243281       0.30319543 </v>
   <v>       0.06993569       0.06291685       0.55110477 </v>
   <v>       0.32229802       0.05276063       0.56424186 </v>
   <v>       0.54767033       0.05822225       0.56781477 </v>
   <v>       0.81533756       0.05400640       0.56588571 </v>
   <v>       0.06573198       0.30949415       0.56459522 </v>
   <v>       0.30760774       0.31449961       0.56206621 </v>
   <v>       0.57004330       0.31195691       0.55637415 </v>
   <v>       0.81442753       0.32002804       0.55537230 </v>
   <v>       0.05834772       0.56787859       0.56112834 </v>
   <v>       0.31148659       0.55783258       0.56020311 </v>
   <v>       0.55637618       0.57122436       0.55928084 </v>
   <v>       0.82585092       0.56449317       0.55411198 </v>
   <v>       0.07028865       0.78910494       0.57261813 </v>
   <v>       0.31949071       0.81251563       0.55626323 </v>
   <v>       0.55967344       0.81473150       0.56792765 </v>
   <v>       0.81631442       0.81801283       0.56637455 </v>
   <v>       0.06038818       0.06073136       0.82261463 </v>
   <v>       0.30491075       0.05433230       0.82666632 </v>
   <v>       0.55090782       0.06509062       0.81636455 </v>
   <v>       0.81542414       0.06001129       0.79701713 </v>
   <v>       0.05920513       0.30759921       0.81629911 </v>
   <v>       0.31441873       0.31423223       0.81449449 </v>
   <v>       0.56275448       0.32242579       0.81464314 </v>
   <v>       0.81551261       0.31127424       0.81007986 </v>
   <v>       0.05331343       0.57110438       0.80379919 </v>
   <v>       0.30624672       0.55329173       0.82026862 </v>
   <v>       0.56692708       0.56551820       0.80466019 </v>
   <v>       0.80320744       0.55981849       0.82179966 </v>
   <v>       0.06014838       0.81155690       0.80493213 </v>
   <v>       0.29708566       0.82787506       0.81860227 </v>
   <v>       0.55933459       0.81788066       0.81151820 </v>
   <v>       0.80114797       0.82371720       0.81126068 </v>
  </varray>
 </structure>
 <calculation>
  <scstep>
   <time name="dav">   70.44   70.46</time>
   <time name="total">   71.44   71.47</time>
   <energy>
    <i name="alphaZ">    210.77028614 </i>
    <i name="ewald"> -14471.15499842 </i>
    <i name="hartreedc">   -757.22752324 </i>
    <i name="XCdc">  -1195.36601411 </i>
    <i name="pawpsdc">   4221.13331941 </i>
    <i name="pawaedc">  -1969.18571412 </i>
    <i name="eentropy">     -0.00140771 </i>
    <i name="bandstr">   2151.77495027 </i>
    <i name="atom">  13192.48085998 </i>
    <i name="e_fr_energy">   1383.22375820 </i>
    <i name="e_wo_entrp">   1383.22516591 </i>
    <i name="e_0_energy">   1383.22446206 </i>
   </energy>
  </scstep>
  <scstep>
   <time name="dav">   80.35   80.38</time>
   <time name="total">   80.35   80.38</time>
   <energy>
    <i name="e_fr_energy">   -536.58785770 </i>
    <i name="e_wo_entrp">   -536.58785770 </i>
    <i name="e_0_energy">   -536.58785770 </i>
   </energy>
  </scstep>
  <scstep>
   <time name="dav">   81.83   81.85</time>
   <time name="total">   81.83   81.86</time>
   <energy>
    <i name="e_fr_energy">   -685.91527974 </i>
    <i name="e_wo_entrp">   -685.91527974 </i>
    <i name="e_0_energy">   -685.91527974 </i>
   </energy>
  </scstep>
  <scstep>
   <time name="dav">   81.25   81.28</time>
   <time name="total">   81.25   81.28</time>
   <energy>
    <i name="e_fr_energy">   -690.20768897 </i>
    <i name="e_wo_entrp">   -690.20768897 </i>
    <i name="e_0_energy">   -690.20768897 </i>
   </energy>
  </scstep>
  <scstep>
   <time name="dav">   82.32   82.35</time>
   <time name="total">   85.58   85.61</time>
   <energy>
    <i name="e_fr_energy">   -690.35781813 </i>
    <i name="e_wo_entrp">   -690.35781813 </i>
    <i name="e_0_energy">   -690.35781813 </i>
   </energy>
  </scstep>
  <scstep>
   <time name="dav">   78.20   78.22</time>
   <time name="total">   82.46   82.49</time>
   <energy>
    <i name="e_fr_energy">   -681.89533840 </i>
    <i name="e_wo_entrp">   -681.89533840 </i>
    <i name="e_0_energy">   -681.89533840 </i>
   </energy>
  </scstep>
  <scstep>
   <time name="dav">   77.11   77.13</time>
   <time name="total">   81.34   81.37</time>
   <energy>
    <i name="e_fr_energy">   -678.36434712 </i>
    <i name="e_wo_entrp">   -678.36434712 </i>
    <i name="e_0_energy">   -678.36434712 </i>
   </energy>
  </scstep>
  <scstep>
   <time name="dav">   77.58   77.60</time>
   <time name="total">   81.82   81.84</time>
   <energy>
    <i name="e_fr_energy">   -678.41971345 </i>
    <i name="e_wo_entrp">   -678.41971345 </i>
    <i name="e_0_energy">   -678.41971345 </i>
   </energy>
  </scstep>
  <scstep>
   <time name="dav">   79.43   79.45</time>
   <time name="total">   83.66   83.69</time>
   <energy>
    <i name="e_fr_energy">   -678.44135059 </i>
    <i name="e_wo_entrp">   -678.44135059 </i>
    <i name="e_0_energy">   -678.44135059 </i>
   </energy>
  </scstep>
  <scstep>
   <time name="dav">   79.44   79.46</time>
   <time name="total">   83.68   83.71</time>
   <energy>
    <i name="e_fr_energy">   -678.44373109 </i>
    <i name="e_wo_entrp">   -678.44373109 </i>
    <i name="e_0_energy">   -678.44373109 </i>
   </energy>
  </scstep>
  <scstep>
   <time name="dav">   76.88   76.92</time>
   <time name="total">   81.14   81.17</time>
   <energy>
    <i name="e_fr_energy">   -678.44510860 </i>
    <i name="e_wo_entrp">   -678.44510860 </i>
    <i name="e_0_energy">   -678.44510860 </i>
   </energy>
  </scstep>
  <scstep>
   <time name="dav">   80.44   80.46</time>
   <time name="total">   84.69   84.72</time>
   <energy>
    <i name="e_fr_energy">   -678.44516166 </i>
    <i name="e_wo_entrp">   -678.44516166 </i>
    <i name="e_0_energy">   -678.44516166 </i>
   </energy>
  </scstep>
  <scstep>
   <time name="dav">   76.44   76.48</time>
   <time name="total">   80.70   80.74</time>
   <energy>
    <i name="e_fr_energy">   -678.44518988 </i>
    <i name="e_wo_entrp">   -678.44518988 </i>
    <i name="e_0_energy">   -678.44518988 </i>
   </energy>
  </scstep>
  <scstep>
   <time name="dav">   80.14   80.17</time>
   <time name="total">   84.39   84.42</time>
   <energy>
    <i name="e_fr_energy">   -678.44519194 </i>
    <i name="e_wo_entrp">   -678.44519194 </i>
    <i name="e_0_energy">   -678.44519194 </i>
   </energy>
  </scstep>
  <scstep>
   <time name="dav">   79.26   79.28</time>
   <time name="total">   83.51   83.53</time>
   <energy>
    <i name="e_fr_energy">   -678.44519579 </i>
    <i name="e_wo_entrp">   -678.44519579 </i>
    <i name="e_0_energy">   -678.44519579 </i>
   </energy>
  </scstep>
  <scstep>
   <time name="dav">   80.31   80.34</time>
   <time name="total">   84.44   84.47</time>
   <energy>
    <i name="e_fr_energy">   -678.44519534 </i>
    <i name="e_wo_entrp">   -678.44519534 </i>
    <i name="e_0_energy">   -678.44519534 </i>
   </energy>
  </scstep>
  <scstep>
   <time name="dav">   57.17   57.18</time>
   <time name="total">   61.32   61.33</time>
   <energy>
    <i name="e_fr_energy">   -678.44519518 </i>
    <i name="e_wo_entrp">   -678.44519518 </i>
    <i name="e_0_energy">   -678.44519518 </i>
   </energy>
  </scstep>
  <scstep>
   <time name="dav">   52.27   52.28</time>
   <time name="total">   56.40   56.42</time>
   <energy>
    <i name="e_fr_energy">   -678.44519533 </i>
    <i name="e_wo_entrp">   -678.44519533 </i>
    <i name="e_0_energy">   -678.44519533 </i>
   </energy>
  </scstep>
  <scstep>
   <time name="dav">   51.36   51.37</time>
   <time name="total">   55.50   55.52</time>
   <energy>
    <i name="e_fr_energy">   -678.44519529 </i>
    <i name="e_wo_entrp">   -678.44519529 </i>
    <i name="e_0_energy">   -678.44519529 </i>
   </energy>
  </scstep>
  <scstep>
   <time name="dav">   50.51   50.53</time>
   <time name="total">   54.65   54.68</time>
   <energy>
    <i name="e_fr_energy">   -678.44519530 </i>
    <i name="e_wo_entrp">   -678.44519530 </i>
    <i name="e_0_energy">   -678.44519530 </i>
   </energy>
  </scstep>
  <scstep>
   <time name="dav">   50.45   50.48</time>
   <time name="total">   51.45   51.48</time>
   <energy>
    <i name="alphaZ">    210.77028614 </i>
    <i name="ewald"> -14471.15499842 </i>
    <i name="hartreedc">  -1001.63423903 </i>
    <i name="XCdc">  -1155.97775492 </i>
    <i name="pawpsdc">   4729.50540615 </i>
    <i name="pawaedc">  -2491.19136356 </i>
    <i name="eentropy">     -0.00000000 </i>
    <i name="bandstr">    308.75660835 </i>
    <i name="atom">  13192.48085998 </i>
    <i name="e_fr_energy">   -678.44519530 </i>
    <i name="e_wo_entrp">   -678.44519530 </i>
    <i name="e_0_energy">   -678.44519530 </i>
   </energy>
  </scstep>
  <structure>
   <crystal>
    <varray name="basis" >
     <v>       0.00000000      10.93733369      10.93733369 </v>
     <v>      10.93733369       0.00000000      10.93733369 </v>
     <v>      10.93733369      10.93733369       0.00000000 </v>
    </varray>
    <i name="volume">   2616.76295363 </i>
    <varray name="rec_basis" >
     <v>      -0.04571498       0.04571498       0.04571498 </v>
     <v>       0.04571498      -0.04571498       0.04571498 </v>
     <v>       0.04571498       0.04571498      -0.04571498 </v>
    </varray>
   </crystal>
   <varray name="positions" >
    <v>       0.99056633       0.99547043       0.01192237 </v>
    <v>       0.24872191       0.99090753       0.00234209 </v>
    <v>       0.50363226       0.00231495       0.00227637 </v>
    <v>       0.74747162       0.01100117       0.00101133 </v>
    <v>       0.99686599       0.24253183       0.01412982 </v>
    <v>       0.25004980       0.24444214       0.99501024 </v>
    <v>       0.50183804       0.24665734       0.99969520 </v>
    <v>       0.74833844       0.24976289       0.99691837 </v>
    <v>       0.99694981       0.50663135       0.98360156 </v>
    <v>       0.24460826       0.49908651       0.00455106 </v>
    <v>       0.49501778       0.50589791       0.99685683 </v>
    <v>       0.76097636       0.49456988       0.00473227 </v>
    <v>       0.00332148       0.74470469       0.00525153 </v>
    <v>       0.25637792       0.75672547       0.99458423 </v>
    <v>       0.49349633       0.74382383       0.01790539 </v>
    <v>       0.75951163       0.74892958       0.99079106 </v>
    <v>       0.99515231       0.99278261       0.24627468 </v>
    <v>       0.26279916       0.99811545       0.24501632 </v>
    <v>       0.49825231       0.00736216       0.24527221 </v>
    <v>       0.75067073       0.99272962       0.24855441 </v>
    <v>       0.00174286       0.25440661       0.24186167 </v>
    <v>       0.23861456       0.25354512       0.26345519 </v>
    <v>       0.50331652       0.24645897       0.24316117 </v>
    <v>       0.74839605       0.24754758       0.25796669 </v>
    <v>       0.00742012       0.49800762       0.24087531 </v>
    <v>       0.23793046       0.50180702       0.25312242 </v>
    <v>       0.49770921       0.50536684       0.23929310 </v>
    <v>       0.74227684       0.50030021       0.25468864 </v>
    <v>       0.00469510       0.74738413       0.25487482 </v>
    <v>       0.23967194       0.75280973       0.25418912 </v>
    <v>       0.49551195       0.74543352       0.25202797 </v>
    <v>       0.75228904       0.74490051       0.24937730 </v>
    <v>       0.99286940       0.00162015       0.50497033 </v>
    <v>       0.25282339       0.00433615       0.50887800 </v>
    <v>       0.49989213       0.99829871       0.49925280 </v>
    <v>       0.75009132       0.99835299       0.50675049 </v>
    <v>       0.00472981       0.24969969       0.50350737 </v>
    <v>       0.24407747       0.24495891       0.50220193 </v>
    <v>       0.50017495       0.24001110       0.50595606 </v>
    <v>       0.74077271       0.26254245       0.48893200 </v>
    <v>       0.99877770       0.48820726       0.51432756 </v>
    <v>       0.24358305       0.51262710       0.49558608 </v>
    <v>       0.49968067       0.50913205       0.49692583 </v>
    <v>       0.74275967       0.49399172       0.50077240 </v>
    <v>       0.99742882       0.76580923       0.49348152 </v>
    <v>       0.25385004       0.74333443       0.50283366 </v>
    <v>       0.49820264       0.74568602       0.50513624 </v>
    <v>       0.75365455       0.75481901       0.49730361 </v>
    <v>       0.99745838       0.01539115       0.73531996 </v>
    <v>       0.23961877       0.01418931       0.75176270 </v>
    <v>       0.49973640       0.01438037       0.73795629 </v>
    <v>       0.73741728       0.00600833       0.74873898 </v>
    <v>       0.01027301       0.24539842       0.74941797 </v>
    <v>       0.25801803       0.25390113       0.74697592 </v>
    <v>       0.50309929       0.25224887       0.74907044 </v>
    <v>       0.74230476       0.24073765       0.75916480 </v>
    <v>       0.99434430       0.49895909       0.75579888 </v>
    <v>       0.25092816       0.50001550       0.73968251 </v>
    <v>       0.50074590       0.49110363       0.74918027 </v>
    <v>       0.74398564       0.49392559       0.74837230 </v>
    <v>       0.00049171       0.74661741       0.74818363 </v>
    <v>       0.24243675       0.73371688       0.75840048 </v>
    <v>       0.50167269       0.74939212       0.74260209 </v>
    <v>       0.75526903       0.74111019       0.74769719 </v>
    <v>       0.05525250       0.06148192       0.06359411 </v>
    <v>       0.30746261       0.06078837       0.05730654 </v>
    <v>       0.55845962       0.06823723       0.06019313 </v>
    <v>       0.82163856       0.07507971       0.04577673 </v>
    <v>       0.05475965       0.32027266       0.05658287 </v>
    <v>       0.29575707       0.31429221       0.07334612 </v>
    <v>       0.56132230       0.31975767       0.06087990 </v>
    <v>       0.81307887       0.31367524       0.06478406 </v>
    <v>       0.06768908       0.55300228       0.06495017 </v>
    <v>       0.31528177       0.54751987       0.06121134 </v>
    <v>       0.57017041       0.56817145       0.05253675 </v>
    <v>       0.82280618       0.56691863       0.06777972 </v>
    <v>       0.06970819       0.81858530       0.05946626 </v>
    <v>       0.31272153       0.81250930       0.06813350 </v>
    <v>       0.57367902       0.80451071       0.07132126 </v>
    <v>       0.80248227       0.80529742       0.06986315 </v>
    <v>       0.05096750       0.06992119       0.31225968 </v>
    <v>       0.30112624       0.06934133       0.31409752 </v>
    <v>       0.55441993       0.06012140       0.32468216 </v>
    <v>       0.80138972       0.07649389       0.30756204 </v>
    <v>       0.06187799       0.31202481       0.31548491 </v>
    <v>       0.31157006       0.30216990       0.32284918 </v>
    <v>       0.56946214       0.31210156       0.29983156 </v>
    <v>       0.80404043       0.32093031       0.31427421 </v>
    <v>       0.04377406       0.56741589       0.32014160 </v>
    <v>       0.31150859       0.56469894       0.31290819 </v>
    <v>       0.56009254       0.55700477       0.31423435 </v>
    <v>       0.80546420       0.56388631       0.31711951 </v>
    <v>       0.05792816       0.81476496       0.31529395 </v>
    <v>       0.31398051       0.81467125       0.30499125 </v>
    <v>       0.56041012       0.81011038       0.30635983 </v>
    <v>       0.82768480       0.81243281       0.30319543 </v>
    <v>       0.06993569       0.06291685       0.55110477 </v>
    <v>       0.32229802       0.05276063       0.56424186 </v>
    <v>       0.54767033       0.05822225       0.56781477 </v>
    <v>       0.81533756       0.05400640       0.56588571 </v>
    <v>       0.06573198       0.30949415       0.56459522 </v>
    <v>       0.30760774       0.31449961       0.56206621 </v>
    <v>       0.57004330       0.31195691       0.55637415 </v>
    <v>       0.81442753       0.32002804       0.55537230 </v>
    <v>       0.05834772       0.56787859       0.56112834 </v>
    <v>       0.31148659       0.55783258       0.56020311 </v>
    <v>       0.55637618       0.57122436       0.55928084 </v>
    <v>       0.82585092       0.56449317       0.55411198 </v>
    <v>       0.07028865       0.78910494       0.57261813 </v>
    <v>       0.31949071       0.81251563       0.55626323 </v>
    <v>       0.55967344       0.81473150       0.56792765 </v>
    <v>       0.81631442       0.81801283       0.56637455 </v>
    <v>       0.06038818       0.06073136       0.82261463 </v>
    <v>       0.30491075       0.05433230       0.82666632 </v>
    <v>       0.55090782       0.06509062       0.81636455 </v>
    <v>       0.81542414       0.06001129       0.79701713 </v>
    <v>       0.05920513       0.30759921       0.81629911 </v>
    <v>       0.31441873       0.31423223       0.81449449 </v>
    <v>       0.56275448       0.32242579       0.81464314 </v>
    <v>       0.81551261       0.31127424       0.81007986 </v>
    <v>       0.05331343       0.57110438       0.80379919 </v>
    <v>       0.30624672       0.55329173       0.82026862 </v>
    <v>       0.56692708       0.56551820       0.80466019 </v>
    <v>       0.80320744       0.55981849       0.82179966 </v>
    <v>       0.06014838       0.81155690       0.80493213 </v>
    <v>       0.29708566       0.82787506       0.81860227 </v>
    <v>       0.55933459       0.81788066       0.81151820 </v>
    <v>       0.80114797       0.82371720       0.81126068 </v>
   </varray>
  </structure>
  <varray name="forces" >
   <v>      -1.13827828       0.33270500       2.01409528 </v>
   <v>       1.45011613      -0.18529543      -0.49406426 </v>
   <v>      -0.96754238      -0.73358077      -1.76761593 </v>
   <v>      -2.01086625      -0.36381842      -0.72516281 </v>
   <v>      -0.82835560      -1.56004314       0.49527953 </v>
   <v>       1.77714041       0.06500305      -0.14913815 </v>
   <v>       2.05404805      -1.10929240       0.28607615 </v>
   <v>       1.48131199      -0.29492817       1.62407005 </v>
   <v>       0.40827236       2.19359068       0.41707416 </v>
   <v>      -1.49082801      -0.06681680      -0.32326494 </v>
   <v>      -0.54386574       0.62628509       1.07721670 </v>
   <v>       1.18766245      -0.52266290       0.48476504 </v>
   <v>       0.08227643      -0.94457513      -0.02788433 </v>
   <v>      -0.10636699       1.10235834      -1.42345314 </v>
   <v>      -0.22868895      -0.68910754       2.60860940 </v>
   <v>       0.60193090      -0.10892572      -0.81715574 </v>
   <v>       2.17244494      -0.32612460       0.94460867 </v>
   <v>       0.67767232      -1.77989340      -1.33442544 </v>
   <v>       0.37717569       0.26661307      -1.35659215 </v>
   <v>       1.19197707      -1.05699506       1.17762967 </v>
   <v>       1.14254142      -0.07347229      -0.43390353 </v>
   <v>      -1.54948301      -0.12354020       0.57536552 </v>
   <v>       0.99581932       0.49636438      -0.35924781 </v>
   <v>       0.43661228      -1.54145820       2.08629995 </v>
   <v>       1.79356780       0.21960776      -1.75377956 </v>
   <v>      -0.16081728       0.69828532      -0.00359642 </v>
   <v>      -0.15523093       0.89873811      -0.26903760 </v>
   <v>       0.34135632      -0.07471917       1.30977172 </v>
   <v>      -0.97216696      -0.55728643       0.79565484 </v>
   <v>      -0.50056488       0.56434004       0.68650064 </v>
   <v>      -0.36657505       0.74208425       0.13471727 </v>
   <v>       1.23129365       0.00281803      -0.03216912 </v>
   <v>      -1.93896419       0.94558765       0.41626475 </v>
   <v>      -2.46031664      -1.42178292      -1.22963836 </v>
   <v>      -0.17750998       0.77041362      -0.93294907 </v>
   <v>      -0.10804802      -2.00426894      -0.14626154 </v>
   <v>      -0.32760320      -1.17578957      -0.53436140 </v>
   <v>      -0.09816086       1.81541219       0.68197440 </v>
   <v>       0.19518704      -1.55298802       1.27720581 </v>
   <v>      -0.64661306       3.77428860       0.33379690 </v>
   <v>      -0.58844487      -0.35423750       2.09037984 </v>
   <v>      -1.14808004       0.38685968      -1.36184670 </v>
   <v>      -0.98200914       0.03265895      -1.49113394 </v>
   <v>       1.62353456       0.05417185       2.11069551 </v>
   <v>      -0.73078701       0.98568216      -1.52816233 </v>
   <v>      -0.34156511      -0.48711464       0.92634603 </v>
   <v>       0.31227436      -0.84402028       2.43522496 </v>
   <v>      -0.07546275       0.14813101       0.34024706 </v>
   <v>      -0.55027084       1.59744491      -0.52432632 </v>
   <v>      -1.25710813       0.54131458      -0.03767844 </v>
   <v>       0.88195085       1.35794622      -3.28872468 </v>
   <v>      -0.09398702      -0.15037078      -0.07602973 </v>
   <v>       0.37397702      -0.96083810      -1.16056911 </v>
   <v>       0.13428935      -0.18974680      -1.89047619 </v>
   <v>       0.26830705       0.06556896       0.46905261 </v>
   <v>      -0.38047287      -0.29754353       2.26947933 </v>
   <v>      -0.85922358      -0.99621205      -0.59273559 </v>
   <v>       1.45273636       0.56005016      -0.98938179 </v>
   <v>       2.37365102      -1.80443929       1.89430209 </v>
   <v>      -0.07774739       0.73784581       2.00961959 </v>
   <v>       1.99780091      -1.06589537      -0.62909388 </v>
   <v>       0.81684000      -0.36452124       2.54547493 </v>
   <v>       2.61476137       0.55163903      -0.75898437 </v>
   <v>       1.98054237      -0.26141709      -0.11581360 </v>
   <v>      -0.45706811       0.96317943       0.32341555 </v>
   <v>       0.10326517       1.32603969       0.61114094 </v>
   <v>      -0.03657877       1.17807069       0.71337224 </v>
   <v>       1.24117862       0.01335245      -3.17286970 </v>
   <v>      -0.39817231       0.98274548       0.80209634 </v>
   <v>      -1.34550031       0.83156263       0.39946575 </v>
   <v>      -1.17936038      -0.42438512      -0.59553266 </v>
   <v>      -0.48314129       0.17865244      -1.33732112 </v>
   <v>      -0.08076655      -2.34819056       0.36610734 </v>
   <v>       2.55964966      -0.02927186       1.05070925 </v>
   <v>      -0.63379299       0.55278872      -1.22758957 </v>
   <v>      -0.21834203      -1.22751372      -1.62417071 </v>
   <v>      -0.78502537       0.71589284      -1.77030645 </v>
   <v>      -0.32909191       0.16075951      -1.13925888 </v>
   <v>      -0.22757627      -1.61263370       0.07281849 </v>
   <v>       0.24980840       0.32394143       2.73788985 </v>
   <v>      -1.47740718       0.87757134      -0.19194538 </v>
   <v>      -0.02763429       1.65664267       0.81653705 </v>
   <v>      -2.29445975      -1.08360218       1.64804910 </v>
   <v>      -2.10609027       2.31857304      -2.17582013 </v>
   <v>       0.63568328      -0.75790283      -0.65668667 </v>
   <v>       0.19699893      -0.87088989       1.71095053 </v>
   <v>       1.56107764      -0.14379605      -1.32794046 </v>
   <v>      -1.98089397       0.20045075       0.85934336 </v>
   <v>      -1.00956091       1.35874516       0.05042461 </v>
   <v>      -0.57896683      -1.01693108      -0.23418098 </v>
   <v>       0.10810439      -0.98825876       0.11288568 </v>
   <v>      -1.38370588       0.51099941       0.08219818 </v>
   <v>      -0.33874362       0.12957722       0.03395981 </v>
   <v>       0.70995007       0.31596893      -1.10309811 </v>
   <v>       1.21600711       0.82453657       0.40270038 </v>
   <v>       0.65366107      -0.67562278      -1.95646346 </v>
   <v>       0.90897350       0.06370715      -0.10545602 </v>
   <v>       2.54840124      -0.31799829       0.25691211 </v>
   <v>      -0.86449926       0.63800331       2.73283667 </v>
   <v>       1.72975634      -1.43924296       0.58537358 </v>
   <v>       0.03913619       0.20039546      -0.82394509 </v>
   <v>      -0.23187122      -0.12106551       0.53386041 </v>
   <v>       1.95467344      -1.46210411      -1.74064167 </v>
   <v>      -0.74202285       1.18255680      -2.25453528 </v>
   <v>       0.70382193      -0.10543230      -0.07667616 </v>
   <v>       0.07308167       0.42290815       1.46081293 </v>
   <v>      -0.67163397       1.70164148      -1.05804284 </v>
   <v>       1.24761148      -1.57530607      -2.53357711 </v>
   <v>       0.75432478      -1.39774888       2.20388052 </v>
   <v>       1.36386298      -0.02580010      -1.54089434 </v>
   <v>      -2.04840534      -0.59404670       0.60289396 </v>
   <v>      -0.94477677      -0.77818207      -0.93590303 </v>
   <v>      -0.21424810      -1.23358165      -0.75700186 </v>
   <v>      -0.60892954      -0.94049872       2.81286290 </v>
   <v>       0.30725388       0.37273013       1.03804875 </v>
   <v>       1.62639882       1.07860650      -0.76320609 </v>
   <v>       0.91721143       1.42751084       1.36180674 </v>
   <v>      -0.65587110      -0.46210873       0.59735082 </v>
   <v>      -1.97385021       0.94100466      -2.51759764 </v>
   <v>      -0.83676535       0.12046175      -0.52878803 </v>
   <v>      -1.22657201       1.40987824       0.27052528 </v>
   <v>      -1.05794877       0.19616037       0.30952286 </v>
   <v>       0.27558665      -0.78672125      -1.78415067 </v>
   <v>      -1.45104757       0.01375948      -0.00305306 </v>
   <v>       1.48866273       0.51982518       0.26186088 </v>
   <v>      -2.69234987      -0.43370412       0.20098877 </v>
   <v>      -0.14983986       0.30271126      -0.14428014 </v>
   <v>      -1.99869740       0.35054226       0.09819128 </v>
  </varray>
  <varray name="stress" >
   <v>      12.79925176      -4.44526169       0.81460111 </v>
   <v>      -4.44526169      14.22908849      -4.47781879 </v>
   <v>       0.81460110      -4.47781880      10.31642436 </v>
  </varray>
  <energy>
   <i name="e_fr_energy">   -678.44519530 </i>
   <i name="e_wo_entrp">   -678.44519530 </i>
   <i name="e_0_energy">     -0.00000000 </i>
  </energy>
  <time name="totalsc"> 1709.29 1709.89</time>
  <eigenvalues>
   <array>
    <dimension dim="1">band</dimension>
    <dimension dim="2">kpoint</dimension>
    <dimension dim="3">spin</dimension>
    <field>eigene</field>
    <field>occ</field>
    <set>
     <set comment="spin 1">
      <set comment="kpoint 1">
       <r>   -6.3080    1.0000 </r>
       <r>   -5.7683    1.0000 </r>
       <r>   -5.7043    1.0000 </r>
       <r>   -5.5874    1.0000 </r>
       <r>   -5.5818    1.0000 </r>
       <r>   -5.4940    1.0000 </r>
       <r>   -5.4843    1.0000 </r>
       <r>   -5.4150    1.0000 </r>
       <r>   -5.3720    1.0000 </r>
       <r>   -5.3509    1.0000 </r>
       <r>   -5.2901    1.0000 </r>
       <r>   -5.2619    1.0000 </r>
       <r>   -5.2208    1.0000 </r>
       <r>   -5.1132    1.0000 </r>
       <r>   -5.0475    1.0000 </r>
       <r>   -4.5553    1.0000 </r>
       <r>   -4.4919    1.0000 </r>
       <r>   -4.4410    1.0000 </r>
       <r>   -4.4115    1.0000 </r>
       <r>   -4.3896    1.0000 </r>
       <r>   -4.3587    1.0000 </r>
       <r>   -4.2617    1.0000 </r>
       <r>   -4.2561    1.0000 </r>
       <r>   -4.2280    1.0000 </r>
       <r>   -4.1934    1.0000 </r>
       <r>   -4.1145    1.0000 </r>
       <r>   -4.0914    1.0000 </r>
       <r>   -4.0789    1.0000 </r>
       <r>   -4.0451    1.0000 </r>
       <r>   -3.9814    1.0000 </r>
       <r>   -3.9112    1.0000 </r>
       <r>   -3.9068    1.0000 </r>
       <r>   -3.8694    1.0000 </r>
       <r>   -3.8339    1.0000 </r>
       <r>   -3.7631    1.0000 </r>
       <r>   -3.7548    1.0000 </r>
       <r>   -3.7164    1.0000 </r>
       <r>   -3.7053    1.0000 </r>
       <r>   -3.6776    1.0000 </r>
       <r>   -3.6684    1.0000 </r>
       <r>   -3.6081    1.0000 </r>
       <r>   -3.6009    1.0000 </r>
       <r>   -3.5798    1.0000 </r>
       <r>   -3.5563    1.0000 </r>
       <r>   -3.5284    1.0000 </r>
       <r>   -3.4749    1.0000 </r>
       <r>   -3.4441    1.0000 </r>
       <r>   -3.4172    1.0000 </r>
       <r>   -3.4023    1.0000 </r>
       <r>   -3.3829    1.0000 </r>
       <r>   -3.3306    1.0000 </r>
       <r>   -3.2676    1.0000 </r>
       <r>   -3.2511    1.0000 </r>
       <r>   -3.2167    1.0000 </r>
       <r>   -3.1512    1.0000 </r>
       <r>   -2.4528    1.0000 </r>
       <r>   -2.2981    1.0000 </r>
       <r>   -2.2863    1.0000 </r>
       <r>   -2.2465    1.0000 </r>
       <r>   -2.1911    1.0000 </r>
       <r>   -2.1628    1.0000 </r>
       <r>   -2.1348    1.0000 </r>
       <r>   -2.1169    1.0000 </r>
       <r>   -2.0606    1.0000 </r>
       <r>   -2.0376    1.0000 </r>
       <r>   -2.0261    1.0000 </r>
       <r>   -1.9618    1.0000 </r>
       <r>   -1.9353    1.0000 </r>
       <r>   -1.9026    1.0000 </r>
       <r>   -1.8722    1.0000 </r>
       <r>   -1.8240    1.0000 </r>
       <r>   -1.8051    1.0000 </r>
       <r>   -1.7512    1.0000 </r>
       <r>   -1.3766    1.0000 </r>
       <r>   -1.3120    1.0000 </r>
       <r>   -1.2418    1.0000 </r>
       <r>   -1.2228    1.0000 </r>
       <r>   -1.0646    1.0000 </r>
       <r>   -1.0528    1.0000 </r>
       <r>   -1.0147    1.0000 </r>
       <r>   -0.9567    1.0000 </r>
       <r>   -0.9349    1.0000 </r>
       <r>   -0.9070    1.0000 </r>
       <r>   -0.8719    1.0000 </r>
       <r>   -0.8399    1.0000 </r>
       <r>   -0.7978    1.0000 </r>
       <r>   -0.7904    1.0000 </r>
       <r>   -0.7667    1.0000 </r>
       <r>   -0.7151    1.0000 </r>
       <r>   -0.6950    1.0000 </r>
       <r>   -0.6786    1.0000 </r>
       <r>   -0.6481    1.0000 </r>
       <r>   -0.6366    1.0000 </r>
       <r>   -0.5854    1.0000 </r>
       <r>   -0.5607    1.0000 </r>
       <r>   -0.5543    1.0000 </r>
       <r>   -0.4837    1.0000 </r>
       <r>   -0.4699    1.0000 </r>
       <r>   -0.4276    1.0000 </r>
       <r>   -0.3965    1.0000 </r>
       <r>   -0.3210    1.0000 </r>
       <r>   -0.0326    1.0000 </r>
       <r>    0.0035    1.0000 </r>
       <r>    0.0522    1.0000 </r>
       <r>    0.0783    1.0000 </r>
       <r>    0.1141    1.0000 </r>
       <r>    0.1866    1.0000 </r>
       <r>    0.2076    1.0000 </r>
       <r>    0.2198    1.0000 </r>
       <r>    0.2414    1.0000 </r>
       <r>    0.2886    1.0000 </r>
       <r>    0.3456    1.0000 </r>
       <r>    0.3890    1.0000 </r>
       <r>    1.3816    1.0000 </r>
       <r>    1.4094    1.0000 </r>
       <r>    1.4516    1.0000 </r>
       <r>    1.4979    1.0000 </r>
       <r>    1.5119    1.0000 </r>
       <r>    1.5657    1.0000 </r>
       <r>    1.5671    1.0000 </r>
       <r>    1.5938    1.0000 </r>
       <r>    1.5949    1.0000 </r>
       <r>    1.6333    1.0000 </r>
       <r>    1.6456    1.0000 </r>
       <r>    1.6858    1.0000 </r>
       <r>    1.7058    1.0000 </r>
       <r>    1.7146    1.0000 </r>
       <r>    1.7441    1.0000 </r>
       <r>    1.7608    1.0000 </r>
       <r>    1.7647    1.0000 </r>
       <r>    1.7715    1.0000 </r>
       <r>    1.7807    1.0000 </r>
       <r>    1.8075    1.0000 </r>
       <r>    1.8201    1.0000 </r>
       <r>    1.8432    1.0000 </r>
       <r>    1.8501    1.0000 </r>
       <r>    1.8746    1.0000 </r>
       <r>    1.8765    1.0000 </r>
       <r>    1.8902    1.0000 </r>
       <r>    1.9083    1.0000 </r>
       <r>    1.9089    1.0000 </r>
       <r>    1.9306    1.0000 </r>
       <r>    1.9602    1.0000 </r>
       <r>    1.9701    1.0000 </r>
       <r>    1.9909    1.0000 </r>
       <r>    1.9985    1.0000 </r>
       <r>    2.0032    1.0000 </r>
       <r>    2.0128    1.0000 </r>
       <r>    2.0304    1.0000 </r>
       <r>    2.0463    1.0000 </r>
       <r>    2.0660    1.0000 </r>
       <r>    2.0749    1.0000 </r>
       <r>    2.0915    1.0000 </r>
       <r>    2.1175    1.0000 </r>
       <r>    2.1300    1.0000 </r>
       <r>    2.1470    1.0000 </r>
       <r>    2.1512    1.0000 </r>
       <r>    2.1750    1.0000 </r>
       <r>    2.1899    1.0000 </r>
       <r>    2.2073    1.0000 </r>
       <r>    2.2101    1.0000 </r>
       <r>    2.2362    1.0000 </r>
       <r>    2.2394    1.0000 </r>
       <r>    2.2670    1.0000 </r>
       <r>    2.2840    1.0000 </r>
       <r>    2.3024    1.0000 </r>
       <r>    2.3394    1.0000 </r>
       <r>    2.3430    1.0000 </r>
       <r>    2.3663    1.0000 </r>
       <r>    2.3947    1.0000 </r>
       <r>    2.4011    1.0000 </r>
       <r>    2.4250    1.0000 </r>
       <r>    2.4627    1.0000 </r>
       <r>    2.4761    1.0000 </r>
       <r>    2.5513    1.0000 </r>
       <r>    2.7665    1.0000 </r>
       <r>    2.7831    1.0000 </r>
       <r>    2.8081    1.0000 </r>
       <r>    2.8390    1.0000 </r>
       <r>    2.8557    1.0000 </r>
       <r>    2.9144    1.0000 </r>
       <r>    3.1729    1.0000 </r>
       <r>    3.1968    1.0000 </r>
       <r>    3.2273    1.0000 </r>
       <r>    3.2574    1.0000 </r>
       <r>    3.2729    1.0000 </r>
       <r>    3.2807    1.0000 </r>
       <r>    3.3079    1.0000 </r>
       <r>    3.3276    1.0000 </r>
       <r>    3.3554    1.0000 </r>
       <r>    3.3667    1.0000 </r>
       <r>    3.4036    1.0000 </r>
       <r>    3.4175    1.0000 </r>
       <r>    3.4517    1.0000 </r>
       <r>    3.4757    1.0000 </r>
       <r>    3.4937    1.0000 </r>
       <r>    3.5014    1.0000 </r>
       <r>    3.5131    1.0000 </r>
       <r>    3.5328    1.0000 </r>
       <r>    3.5696    1.0000 </r>
       <r>    3.5884    1.0000 </r>
       <r>    3.6147    1.0000 </r>
       <r>    3.6411    1.0000 </r>
       <r>    3.6475    1.0000 </r>
       <r>    3.6708    1.0000 </r>
       <r>    3.6817    1.0000 </r>
       <r>    3.7087    1.0000 </r>
       <r>    3.7168    1.0000 </r>
       <r>    3.7542    1.0000 </r>
       <r>    3.7767    1.0000 </r>
       <r>    3.7926    1.0000 </r>
       <r>    3.8039    1.0000 </r>
       <r>    3.8436    1.0000 </r>
       <r>    3.8564    1.0000 </r>
       <r>    3.9004    1.0000 </r>
       <r>    3.9136    1.0000 </r>
       <r>    3.9453    1.0000 </r>
       <r>    4.1405    1.0000 </r>
       <r>    4.1603    1.0000 </r>
       <r>    4.1828    1.0000 </r>
       <r>    4.2268    1.0000 </r>
       <r>    4.2576    1.0000 </r>
       <r>    4.2915    1.0000 </r>
       <r>    4.3018    1.0000 </r>
       <r>    4.3146    1.0000 </r>
       <r>    4.3630    1.0000 </r>
       <r>    4.3824    1.0000 </r>
       <r>    4.4077    1.0000 </r>
       <r>    4.4547    1.0000 </r>
       <r>    4.4619    1.0000 </r>
       <r>    4.4930    1.0000 </r>
       <r>    4.5301    1.0000 </r>
       <r>    4.5448    1.0000 </r>
       <r>    4.5687    1.0000 </r>
       <r>    4.6397    1.0000 </r>
       <r>    4.6551    1.0000 </r>
       <r>    4.6777    1.0000 </r>
       <r>    4.6914    1.0000 </r>
       <r>    4.7454    1.0000 </r>
       <r>    4.8293    1.0000 </r>
       <r>    4.8519    1.0000 </r>
       <r>    4.8876    1.0000 </r>
       <r>    4.9072    1.0000 </r>
       <r>    4.9595    1.0000 </r>
       <r>    4.9746    1.0000 </r>
       <r>    4.9938    1.0000 </r>
       <r>    5.0231    1.0000 </r>
       <r>    5.0973    1.0000 </r>
       <r>    5.1245    1.0000 </r>
       <r>    5.1880    1.0000 </r>
       <r>    5.2266    1.0000 </r>
       <r>    5.2421    1.0000 </r>
       <r>    5.3315    1.0000 </r>
       <r>    5.6737    1.0000 </r>
       <r>    5.7908    1.0000 </r>
       <r>    5.8129    1.0000 </r>
       <r>    6.1479    0.0000 </r>
       <r>    6.1583    0.0000 </r>
       <r>    6.1990    0.0000 </r>
       <r>    6.2650    0.0000 </r>
       <r>    6.2935    0.0000 </r>
       <r>    6.3081    0.0000 </r>
       <r>    6.5456    0.0000 </r>
       <r>    6.5994    0.0000 </r>
       <r>    6.6067    0.0000 </r>
       <r>    6.6493    0.0000 </r>
       <r>    6.6660    0.0000 </r>
       <r>    6.7232    0.0000 </r>
       <r>    6.7624    0.0000 </r>
       <r>    6.7794    0.0000 </r>
       <r>    6.8175    0.0000 </r>
       <r>    6.8448    0.0000 </r>
       <r>    6.8716    0.0000 </r>
       <r>    6.8874    0.0000 </r>
       <r>    6.9263    0.0000 </r>
       <r>    6.9412    0.0000 </r>
       <r>    6.9528    0.0000 </r>
       <r>    6.9659    0.0000 </r>
       <r>    6.9798    0.0000 </r>
       <r>    7.0090    0.0000 </r>
       <r>    7.0232    0.0000 </r>
       <r>    7.0298    0.0000 </r>
       <r>    7.0652    0.0000 </r>
       <r>    7.0718    0.0000 </r>
       <r>    7.1103    0.0000 </r>
       <r>    7.1403    0.0000 </r>
       <r>    7.1456    0.0000 </r>
       <r>    7.1661    0.0000 </r>
       <r>    7.1815    0.0000 </r>
       <r>    7.2065    0.0000 </r>
       <r>    7.2296    0.0000 </r>
       <r>    7.2391    0.0000 </r>
       <r>    7.2664    0.0000 </r>
       <r>    7.2904    0.0000 </r>
       <r>    7.3258    0.0000 </r>
       <r>    7.3628    0.0000 </r>
       <r>    7.4316    0.0000 </r>
       <r>    7.4681    0.0000 </r>
       <r>    7.4979    0.0000 </r>
       <r>    7.5227    0.0000 </r>
       <r>    7.5460    0.0000 </r>
       <r>    7.5844    0.0000 </r>
       <r>    7.6346    0.0000 </r>
       <r>    7.6738    0.0000 </r>
       <r>    7.8271    0.0000 </r>
       <r>    7.8507    0.0000 </r>
       <r>    7.8677    0.0000 </r>
       <r>    7.8951    0.0000 </r>
       <r>    7.9271    0.0000 </r>
       <r>    7.9592    0.0000 </r>
       <r>    7.9902    0.0000 </r>
       <r>    7.9926    0.0000 </r>
       <r>    8.0551    0.0000 </r>
       <r>    8.0667    0.0000 </r>
       <r>    8.0886    0.0000 </r>
       <r>    8.1255    0.0000 </r>
       <r>    8.1412    0.0000 </r>
       <r>    8.1709    0.0000 </r>
       <r>    8.2160    0.0000 </r>
       <r>    8.4692    0.0000 </r>
       <r>    8.5124    0.0000 </r>
       <r>    8.6037    0.0000 </r>
      </set>
      <set comment="kpoint 2">
       <r>   -6.1492    1.0000 </r>
       <r>   -6.0828    1.0000 </r>
       <r>   -5.7762    1.0000 </r>
       <r>   -5.7132    1.0000 </r>
       <r>   -5.6096    1.0000 </r>
       <r>   -5.5740    1.0000 </r>
       <r>   -5.4532    1.0000 </r>
[...]
       <r>    -3.1169    51.5433   100.2791 </r>
       <r>    -3.0622    34.6500   102.1737 </r>
       <r>    -3.0075    57.4531   105.3150 </r>
       <r>    -2.9529    27.8456   106.8375 </r>
       <r>    -2.8982    45.8259   109.3431 </r>
       <r>    -2.8435    36.5405   111.3411 </r>
       <r>    -2.7888    26.4016   112.7847 </r>
       <r>    -2.7342    34.0037   114.6438 </r>
       <r>    -2.6795    33.7572   116.4896 </r>
       <r>    -2.6248    26.5665   117.9421 </r>
       <r>    -2.5701    34.6307   119.8356 </r>
       <r>    -2.5155    34.8439   121.7408 </r>
       <r>    -2.4608    13.8786   122.4996 </r>
       <r>    -2.4061     9.1521   123.0000 </r>
       <r>    -2.3514     0.0000   123.0000 </r>
       <r>    -2.2968     5.9511   123.3254 </r>
       <r>    -2.2421    15.8576   124.1924 </r>
       <r>    -2.1874    18.2169   125.1884 </r>
       <r>    -2.1327    24.4430   126.5249 </r>
       <r>    -2.0780    22.1599   127.7365 </r>
       <r>    -2.0234    34.8808   129.6437 </r>
       <r>    -1.9687    11.8394   130.2910 </r>
       <r>    -1.9140    26.1206   131.7192 </r>
       <r>    -1.8593    11.6851   132.3581 </r>
       <r>    -1.8047     9.5534   132.8804 </r>
       <r>    -1.7500     4.7955   133.1426 </r>
       <r>    -1.6953     6.5434   133.5004 </r>
       <r>    -1.6406     9.2719   134.0073 </r>
       <r>    -1.5860    24.5872   135.3517 </r>
       <r>    -1.5313    38.8996   137.4786 </r>
       <r>    -1.4766    27.4657   138.9803 </r>
       <r>    -1.4219    39.7074   141.1513 </r>
       <r>    -1.3673    42.3122   143.4648 </r>
       <r>    -1.3126    56.0885   146.5315 </r>
       <r>    -1.2579    55.6230   149.5728 </r>
       <r>    -1.2032    60.9549   152.9056 </r>
       <r>    -1.1486    76.8753   157.1088 </r>
       <r>    -1.0939    62.3742   160.5192 </r>
       <r>    -1.0392    73.9148   164.5606 </r>
       <r>    -0.9845    61.8371   167.9417 </r>
       <r>    -0.9298    71.3984   171.8455 </r>
       <r>    -0.8752    51.7058   174.6726 </r>
       <r>    -0.8205    57.1321   177.7964 </r>
       <r>    -0.7658    58.9117   181.0175 </r>
       <r>    -0.7111    48.5887   183.6742 </r>
       <r>    -0.6565    42.1265   185.9775 </r>
       <r>    -0.6018    24.6809   187.3270 </r>
       <r>    -0.5471    37.8436   189.3962 </r>
       <r>    -0.4924     7.3295   189.7969 </r>
       <r>    -0.4378    25.4031   191.1859 </r>
       <r>    -0.3831    40.4414   193.3970 </r>
       <r>    -0.3284    41.6247   195.6729 </r>
       <r>    -0.2737    53.7252   198.6105 </r>
       <r>    -0.2191    51.4157   201.4217 </r>
       <r>    -0.1644    54.0459   204.3767 </r>
       <r>    -0.1097    28.3680   205.9278 </r>
       <r>    -0.0550    45.0769   208.3924 </r>
       <r>    -0.0004    49.9017   211.1209 </r>
       <r>     0.0543    30.1179   212.7676 </r>
       <r>     0.1090    15.8835   213.6361 </r>
       <r>     0.1637     6.6646   214.0005 </r>
       <r>     0.2184    15.4135   214.8432 </r>
       <r>     0.2730    16.8778   215.7660 </r>
       <r>     0.3277    24.2820   217.0937 </r>
       <r>     0.3824    21.1380   218.2494 </r>
       <r>     0.4371    35.2606   220.1774 </r>
       <r>     0.4917    14.2187   220.9548 </r>
       <r>     0.5464    17.0781   221.8886 </r>
       <r>     0.6011    24.7067   223.2395 </r>
       <r>     0.6558    19.5278   224.3072 </r>
       <r>     0.7104    26.8680   225.7762 </r>
       <r>     0.7651    22.7362   227.0194 </r>
       <r>     0.8198    11.7383   227.6612 </r>
       <r>     0.8745     8.9788   228.1521 </r>
       <r>     0.9291    15.2272   228.9847 </r>
       <r>     0.9838    25.4941   230.3786 </r>
       <r>     1.0385    19.1645   231.4265 </r>
       <r>     1.0932    38.1328   233.5115 </r>
       <r>     1.1479    32.1463   235.2691 </r>
       <r>     1.2025    13.7958   236.0234 </r>
       <r>     1.2572    28.7216   237.5938 </r>
       <r>     1.3119    23.5683   238.8825 </r>
       <r>     1.3666    32.6445   240.6674 </r>
       <r>     1.4212    56.7851   243.7722 </r>
       <r>     1.4759    63.3799   247.2376 </r>
       <r>     1.5306    70.0254   251.0663 </r>
       <r>     1.5853    88.4036   255.8999 </r>
       <r>     1.6399    82.1255   260.3902 </r>
       <r>     1.6946    62.8860   263.8286 </r>
       <r>     1.7493    55.3037   266.8525 </r>
       <r>     1.8040    63.5054   270.3247 </r>
       <r>     1.8586    34.6249   272.2179 </r>
       <r>     1.9133    25.2090   273.5962 </r>
       <r>     1.9680    17.5892   274.5579 </r>
       <r>     2.0227    35.5150   276.4997 </r>
       <r>     2.0773    72.7390   280.4769 </r>
       <r>     2.1320    90.3337   285.4160 </r>
       <r>     2.1867   102.9283   291.0437 </r>
       <r>     2.2414   125.6053   297.9114 </r>
       <r>     2.2961   110.7980   303.9694 </r>
       <r>     2.3507   116.1909   310.3223 </r>
       <r>     2.4054    89.2509   315.2023 </r>
       <r>     2.4601    68.9990   318.9749 </r>
       <r>     2.5148    61.6262   322.3444 </r>
       <r>     2.5694    34.2514   324.2171 </r>
       <r>     2.6241    54.1926   327.1802 </r>
       <r>     2.6788    62.6298   330.6046 </r>
       <r>     2.7335    77.1192   334.8213 </r>
       <r>     2.7881    78.4553   339.1109 </r>
       <r>     2.8428    89.5470   344.0071 </r>
       <r>     2.8975    93.1229   349.0987 </r>
       <r>     2.9522   105.2900   354.8556 </r>
       <r>     3.0068   105.9319   360.6476 </r>
       <r>     3.0615    78.8438   364.9586 </r>
       <r>     3.1162    83.5489   369.5267 </r>
       <r>     3.1709    75.1974   373.6382 </r>
       <r>     3.2255    84.2275   378.2435 </r>
       <r>     3.2802   101.3737   383.7862 </r>
       <r>     3.3349    88.2886   388.6135 </r>
       <r>     3.3896    76.5120   392.7969 </r>
       <r>     3.4443    83.8722   397.3827 </r>
       <r>     3.4989    98.7537   402.7823 </r>
       <r>     3.5536    74.3555   406.8478 </r>
       <r>     3.6083    88.9731   411.7125 </r>
       <r>     3.6630    80.4419   416.1108 </r>
       <r>     3.7176    74.8497   420.2033 </r>
       <r>     3.7723    76.8122   424.4031 </r>
       <r>     3.8270    82.8861   428.9351 </r>
       <r>     3.8817    83.8188   433.5180 </r>
       <r>     3.9363    76.3256   437.6912 </r>
       <r>     3.9910    64.7923   441.2338 </r>
       <r>     4.0457    56.0292   444.2973 </r>
       <r>     4.1004    66.3298   447.9240 </r>
       <r>     4.1550    83.0524   452.4650 </r>
       <r>     4.2097    70.8666   456.3397 </r>
       <r>     4.2644    75.5687   460.4716 </r>
       <r>     4.3191    79.6020   464.8239 </r>
       <r>     4.3738    68.0313   468.5437 </r>
       <r>     4.4284    58.4853   471.7414 </r>
       <r>     4.4831    59.1361   474.9748 </r>
       <r>     4.5378    74.7781   479.0634 </r>
       <r>     4.5925    69.8756   482.8839 </r>
       <r>     4.6471    52.6076   485.7603 </r>
       <r>     4.7018    49.8407   488.4854 </r>
       <r>     4.7565    39.5845   490.6497 </r>
       <r>     4.8112    22.2974   491.8689 </r>
       <r>     4.8658    22.5562   493.1022 </r>
       <r>     4.9205    38.5918   495.2122 </r>
       <r>     4.9752    30.9798   496.9061 </r>
       <r>     5.0299    44.3504   499.3310 </r>
       <r>     5.0845    25.6210   500.7319 </r>
       <r>     5.1392    33.7869   502.5792 </r>
       <r>     5.1939    11.3637   503.2006 </r>
       <r>     5.2486    13.7932   503.9547 </r>
       <r>     5.3032     4.9082   504.2231 </r>
       <r>     5.3579     7.2724   504.6207 </r>
       <r>     5.4126    25.5109   506.0156 </r>
       <r>     5.4673    30.5060   507.6835 </r>
       <r>     5.5220    15.6505   508.5392 </r>
       <r>     5.5766    26.4798   509.9871 </r>
       <r>     5.6313    21.0998   511.1407 </r>
       <r>     5.6860     6.3821   511.4897 </r>
       <r>     5.7407     0.1890   511.5000 </r>
       <r>     5.7953     3.4070   511.6863 </r>
       <r>     5.8500     5.7377   512.0000 </r>
       <r>     5.9047     0.0000   512.0000 </r>
       <r>     5.9594     0.0000   512.0000 </r>
       <r>     6.0140     0.0000   512.0000 </r>
       <r>     6.0687     0.0003   512.0000 </r>
       <r>     6.1234     4.5735   512.2501 </r>
       <r>     6.1781    20.3178   513.3610 </r>
       <r>     6.2327    13.8531   514.1185 </r>
       <r>     6.2874     8.4164   514.5787 </r>
       <r>     6.3421    28.8189   516.1544 </r>
       <r>     6.3968    24.3616   517.4864 </r>
       <r>     6.4514    29.3951   519.0936 </r>
       <r>     6.5061    28.6070   520.6577 </r>
       <r>     6.5608    10.8198   521.2493 </r>
       <r>     6.6155    15.6735   522.1063 </r>
       <r>     6.6702    27.4612   523.6078 </r>
       <r>     6.7248    10.9578   524.2069 </r>
       <r>     6.7795    42.7300   526.5432 </r>
       <r>     6.8342    36.8319   528.5571 </r>
       <r>     6.8889    35.4975   530.4980 </r>
       <r>     6.9435    29.5445   532.1133 </r>
       <r>     6.9982    47.7841   534.7260 </r>
       <r>     7.0529    31.6379   536.4559 </r>
       <r>     7.1076    36.3740   538.4447 </r>
       <r>     7.1622    27.9011   539.9702 </r>
       <r>     7.2169    36.2624   541.9529 </r>
       <r>     7.2716    59.5544   545.2091 </r>
       <r>     7.3263    83.1539   549.7557 </r>
       <r>     7.3809    75.5929   553.8889 </r>
       <r>     7.4356    59.9227   557.1652 </r>
       <r>     7.4903    94.1838   562.3149 </r>
       <r>     7.5450    81.2010   566.7547 </r>
       <r>     7.5996    79.1183   571.0806 </r>
       <r>     7.6543    79.0207   575.4012 </r>
       <r>     7.7090   106.1289   581.2039 </r>
       <r>     7.7637    82.5656   585.7184 </r>
       <r>     7.8184    98.6194   591.1105 </r>
       <r>     7.8730   101.9946   596.6872 </r>
       <r>     7.9277    86.0671   601.3931 </r>
       <r>     7.9824    85.2240   606.0529 </r>
       <r>     8.0371    98.0863   611.4159 </r>
       <r>     8.0917    77.8384   615.6719 </r>
       <r>     8.1464    83.8351   620.2557 </r>
       <r>     8.2011    98.8712   625.6616 </r>
       <r>     8.2558    77.3015   629.8882 </r>
       <r>     8.3104    86.5855   634.6223 </r>
       <r>     8.3651    69.7900   638.4382 </r>
       <r>     8.4198    64.9368   641.9887 </r>
       <r>     8.4745    26.4954   643.4375 </r>
       <r>     8.5291     5.6758   643.7478 </r>
       <r>     8.5838     0.0518   643.7506 </r>
       <r>     8.6385     4.5611   644.0000 </r>
       <r>     8.6932     0.0000   644.0000 </r>
       <r>     8.7479     0.0000   644.0000 </r>
       <r>     8.8025     0.0000   644.0000 </r>
       <r>     8.8572     0.0000   644.0000 </r>
       <r>     8.9119     0.0000   644.0000 </r>
       <r>     8.9666     0.0000   644.0000 </r>
       <r>     9.0212     0.0000   644.0000 </r>
       <r>     9.0759     0.0000   644.0000 </r>
       <r>     9.1306     0.0000   644.0000 </r>
       <r>     9.1853     0.0000   644.0000 </r>
       <r>     9.2399     0.0000   644.0000 </r>
       <r>     9.2946     0.0000   644.0000 </r>
       <r>     9.3493     0.0000   644.0000 </r>
      </set>
     </set>
    </array>
   </total>
  </dos>
 </calculation>
 <structure name="finalpos" >
  <crystal>
   <varray name="basis" >
    <v>       0.00000000      10.93733369      10.93733369 </v>
    <v>      10.93733369       0.00000000      10.93733369 </v>
    <v>      10.93733369      10.93733369       0.00000000 </v>
   </varray>
   <i name="volume">   2616.76295363 </i>
   <varray name="rec_basis" >
    <v>      -0.04571498       0.04571498       0.04571498 </v>
    <v>       0.04571498      -0.04571498       0.04571498 </v>
    <v>       0.04571498       0.04571498      -0.04571498 </v>
   </varray>
  </crystal>
  <varray name="positions" >
   <v>       0.99056633       0.99547043       0.01192237 </v>
   <v>       0.24872191       0.99090753       0.00234209 </v>
   <v>       0.50363226       0.00231495       0.00227637 </v>
   <v>       0.74747162       0.01100117       0.00101133 </v>
   <v>       0.99686599       0.24253183       0.01412982 </v>
   <v>       0.25004980       0.24444214       0.99501024 </v>
   <v>       0.50183804       0.24665734       0.99969520 </v>
   <v>       0.74833844       0.24976289       0.99691837 </v>
   <v>       0.99694981       0.50663135       0.98360156 </v>
   <v>       0.24460826       0.49908651       0.00455106 </v>
   <v>       0.49501778       0.50589791       0.99685683 </v>
   <v>       0.76097636       0.49456988       0.00473227 </v>
   <v>       0.00332148       0.74470469       0.00525153 </v>
   <v>       0.25637792       0.75672547       0.99458423 </v>
   <v>       0.49349633       0.74382383       0.01790539 </v>
   <v>       0.75951163       0.74892958       0.99079106 </v>
   <v>       0.99515231       0.99278261       0.24627468 </v>
   <v>       0.26279916       0.99811545       0.24501632 </v>
   <v>       0.49825231       0.00736216       0.24527221 </v>
   <v>       0.75067073       0.99272962       0.24855441 </v>
   <v>       0.00174286       0.25440661       0.24186167 </v>
   <v>       0.23861456       0.25354512       0.26345519 </v>
   <v>       0.50331652       0.24645897       0.24316117 </v>
   <v>       0.74839605       0.24754758       0.25796669 </v>
   <v>       0.00742012       0.49800762       0.24087531 </v>
   <v>       0.23793046       0.50180702       0.25312242 </v>
   <v>       0.49770921       0.50536684       0.23929310 </v>
   <v>       0.74227684       0.50030021       0.25468864 </v>
   <v>       0.00469510       0.74738413       0.25487482 </v>
   <v>       0.23967194       0.75280973       0.25418912 </v>
   <v>       0.49551195       0.74543352       0.25202797 </v>
   <v>       0.75228904       0.74490051       0.24937730 </v>
   <v>       0.99286940       0.00162015       0.50497033 </v>
   <v>       0.25282339       0.00433615       0.50887800 </v>
   <v>       0.49989213       0.99829871       0.49925280 </v>
   <v>       0.75009132       0.99835299       0.50675049 </v>
   <v>       0.00472981       0.24969969       0.50350737 </v>
   <v>       0.24407747       0.24495891       0.50220193 </v>
   <v>       0.50017495       0.24001110       0.50595606 </v>
   <v>       0.74077271       0.26254245       0.48893200 </v>
   <v>       0.99877770       0.48820726       0.51432756 </v>
   <v>       0.24358305       0.51262710       0.49558608 </v>
   <v>       0.49968067       0.50913205       0.49692583 </v>
   <v>       0.74275967       0.49399172       0.50077240 </v>
   <v>       0.99742882       0.76580923       0.49348152 </v>
   <v>       0.25385004       0.74333443       0.50283366 </v>
   <v>       0.49820264       0.74568602       0.50513624 </v>
   <v>       0.75365455       0.75481901       0.49730361 </v>
   <v>       0.99745838       0.01539115       0.73531996 </v>
   <v>       0.23961877       0.01418931       0.75176270 </v>
   <v>       0.49973640       0.01438037       0.73795629 </v>
   <v>       0.73741728       0.00600833       0.74873898 </v>
   <v>       0.01027301       0.24539842       0.74941797 </v>
   <v>       0.25801803       0.25390113       0.74697592 </v>
   <v>       0.50309929       0.25224887       0.74907044 </v>
   <v>       0.74230476       0.24073765       0.75916480 </v>
   <v>       0.99434430       0.49895909       0.75579888 </v>
   <v>       0.25092816       0.50001550       0.73968251 </v>
   <v>       0.50074590       0.49110363       0.74918027 </v>
   <v>       0.74398564       0.49392559       0.74837230 </v>
   <v>       0.00049171       0.74661741       0.74818363 </v>
   <v>       0.24243675       0.73371688       0.75840048 </v>
   <v>       0.50167269       0.74939212       0.74260209 </v>
   <v>       0.75526903       0.74111019       0.74769719 </v>
   <v>       0.05525250       0.06148192       0.06359411 </v>
   <v>       0.30746261       0.06078837       0.05730654 </v>
   <v>       0.55845962       0.06823723       0.06019313 </v>
   <v>       0.82163856       0.07507971       0.04577673 </v>
   <v>       0.05475965       0.32027266       0.05658287 </v>
   <v>       0.29575707       0.31429221       0.07334612 </v>
   <v>       0.56132230       0.31975767       0.06087990 </v>
   <v>       0.81307887       0.31367524       0.06478406 </v>
   <v>       0.06768908       0.55300228       0.06495017 </v>
   <v>       0.31528177       0.54751987       0.06121134 </v>
   <v>       0.57017041       0.56817145       0.05253675 </v>
   <v>       0.82280618       0.56691863       0.06777972 </v>
   <v>       0.06970819       0.81858530       0.05946626 </v>
   <v>       0.31272153       0.81250930       0.06813350 </v>
   <v>       0.57367902       0.80451071       0.07132126 </v>
   <v>       0.80248227       0.80529742       0.06986315 </v>
   <v>       0.05096750       0.06992119       0.31225968 </v>
   <v>       0.30112624       0.06934133       0.31409752 </v>
   <v>       0.55441993       0.06012140       0.32468216 </v>
   <v>       0.80138972       0.07649389       0.30756204 </v>
   <v>       0.06187799       0.31202481       0.31548491 </v>
   <v>       0.31157006       0.30216990       0.32284918 </v>
   <v>       0.56946214       0.31210156       0.29983156 </v>
   <v>       0.80404043       0.32093031       0.31427421 </v>
   <v>       0.04377406       0.56741589       0.32014160 </v>
   <v>       0.31150859       0.56469894       0.31290819 </v>
   <v>       0.56009254       0.55700477       0.31423435 </v>
   <v>       0.80546420       0.56388631       0.31711951 </v>
   <v>       0.05792816       0.81476496       0.31529395 </v>
   <v>       0.31398051       0.81467125       0.30499125 </v>
   <v>       0.56041012       0.81011038       0.30635983 </v>
   <v>       0.82768480       0.81243281       0.30319543 </v>
   <v>       0.06993569       0.06291685       0.55110477 </v>
   <v>       0.32229802       0.05276063       0.56424186 </v>
   <v>       0.54767033       0.05822225       0.56781477 </v>
   <v>       0.81533756       0.05400640       0.56588571 </v>
   <v>       0.06573198       0.30949415       0.56459522 </v>
   <v>       0.30760774       0.31449961       0.56206621 </v>
   <v>       0.57004330       0.31195691       0.55637415 </v>
   <v>       0.81442753       0.32002804       0.55537230 </v>
   <v>       0.05834772       0.56787859       0.56112834 </v>
   <v>       0.31148659       0.55783258       0.56020311 </v>
   <v>       0.55637618       0.57122436       0.55928084 </v>
   <v>       0.82585092       0.56449317       0.55411198 </v>
   <v>       0.07028865       0.78910494       0.57261813 </v>
   <v>       0.31949071       0.81251563       0.55626323 </v>
   <v>       0.55967344       0.81473150       0.56792765 </v>
   <v>       0.81631442       0.81801283       0.56637455 </v>
   <v>       0.06038818       0.06073136       0.82261463 </v>
   <v>       0.30491075       0.05433230       0.82666632 </v>
   <v>       0.55090782       0.06509062       0.81636455 </v>
   <v>       0.81542414       0.06001129       0.79701713 </v>
   <v>       0.05920513       0.30759921       0.81629911 </v>
   <v>       0.31441873       0.31423223       0.81449449 </v>
   <v>       0.56275448       0.32242579       0.81464314 </v>
   <v>       0.81551261       0.31127424       0.81007986 </v>
   <v>       0.05331343       0.57110438       0.80379919 </v>
   <v>       0.30624672       0.55329173       0.82026862 </v>
   <v>       0.56692708       0.56551820       0.80466019 </v>
   <v>       0.80320744       0.55981849       0.82179966 </v>
   <v>       0.06014838       0.81155690       0.80493213 </v>
   <v>       0.29708566       0.82787506       0.81860227 </v>
   <v>       0.55933459       0.81788066       0.81151820 </v>
   <v>       0.80114797       0.82371720       0.81126068 </v>
  </varray>
 </structure>
</modeling>
