potpaw_PBE@./ARUN.APL1ZEROSTATE         
           1
     0.000000   10.937334   10.937334
    10.937334    0.000000   10.937334
    10.937334   10.937334    0.000000
   Si
 128
Direct configuration=     1
   0.99056633  0.99547043  0.01192237
   0.24872191  0.99090753  0.00234209
   0.50363226  0.00231495  0.00227637
   0.74747162  0.01100117  0.00101133
   0.99686599  0.24253183  0.01412982
   0.25004980  0.24444214  0.99501024
   0.50183804  0.24665734  0.99969520
   0.74833844  0.24976289  0.99691837
   0.99694981  0.50663135  0.98360156
   0.24460826  0.49908651  0.00455106
   0.49501778  0.50589791  0.99685683
   0.76097636  0.49456988  0.00473227
   0.00332148  0.74470469  0.00525153
   0.25637792  0.75672547  0.99458423
   0.49349633  0.74382383  0.01790539
   0.75951163  0.74892958  0.99079106
   0.99515231  0.99278261  0.24627468
   0.26279916  0.99811545  0.24501632
   0.49825231  0.00736216  0.24527221
   0.75067073  0.99272962  0.24855441
   0.00174286  0.25440661  0.24186167
   0.23861456  0.25354512  0.26345519
   0.50331652  0.24645897  0.24316117
   0.74839605  0.24754758  0.25796669
   0.00742012  0.49800762  0.24087531
   0.23793046  0.50180702  0.25312242
   0.49770921  0.50536684  0.23929310
   0.74227684  0.50030021  0.25468864
   0.00469510  0.74738413  0.25487482
   0.23967194  0.75280973  0.25418912
   0.49551195  0.74543352  0.25202797
   0.75228904  0.74490051  0.24937730
   0.99286940  0.00162015  0.50497033
   0.25282339  0.00433615  0.50887800
   0.49989213  0.99829871  0.49925280
   0.75009132  0.99835299  0.50675049
   0.00472981  0.24969969  0.50350737
   0.24407747  0.24495891  0.50220193
   0.50017495  0.24001110  0.50595606
   0.74077271  0.26254245  0.48893200
   0.99877770  0.48820726  0.51432756
   0.24358305  0.51262710  0.49558608
   0.49968067  0.50913205  0.49692583
   0.74275967  0.49399172  0.50077240
   0.99742882  0.76580923  0.49348152
   0.25385004  0.74333443  0.50283366
   0.49820264  0.74568602  0.50513624
   0.75365455  0.75481901  0.49730361
   0.99745838  0.01539115  0.73531996
   0.23961877  0.01418931  0.75176270
   0.49973640  0.01438037  0.73795629
   0.73741728  0.00600833  0.74873898
   0.01027301  0.24539842  0.74941797
   0.25801803  0.25390113  0.74697592
   0.50309929  0.25224887  0.74907044
   0.74230476  0.24073765  0.75916480
   0.99434430  0.49895909  0.75579888
   0.25092816  0.50001550  0.73968251
   0.50074590  0.49110363  0.74918027
   0.74398564  0.49392559  0.74837230
   0.00049171  0.74661741  0.74818363
   0.24243675  0.73371688  0.75840048
   0.50167269  0.74939212  0.74260209
   0.75526903  0.74111019  0.74769719
   0.05525250  0.06148192  0.06359411
   0.30746261  0.06078837  0.05730654
   0.55845962  0.06823723  0.06019313
   0.82163856  0.07507971  0.04577673
   0.05475965  0.32027266  0.05658287
   0.29575707  0.31429221  0.07334612
   0.56132230  0.31975767  0.06087990
   0.81307887  0.31367524  0.06478406
   0.06768908  0.55300228  0.06495017
   0.31528177  0.54751987  0.06121134
   0.57017041  0.56817145  0.05253675
   0.82280618  0.56691863  0.06777972
   0.06970819  0.81858530  0.05946626
   0.31272153  0.81250930  0.06813350
   0.57367902  0.80451071  0.07132126
   0.80248227  0.80529742  0.06986315
   0.05096750  0.06992119  0.31225968
   0.30112624  0.06934133  0.31409752
   0.55441993  0.06012140  0.32468216
   0.80138972  0.07649389  0.30756204
   0.06187799  0.31202481  0.31548491
   0.31157006  0.30216990  0.32284918
   0.56946214  0.31210156  0.29983156
   0.80404043  0.32093031  0.31427421
   0.04377406  0.56741589  0.32014160
   0.31150859  0.56469894  0.31290819
   0.56009254  0.55700477  0.31423435
   0.80546420  0.56388631  0.31711951
   0.05792816  0.81476496  0.31529395
   0.31398051  0.81467125  0.30499125
   0.56041012  0.81011038  0.30635983
   0.82768480  0.81243281  0.30319543
   0.06993569  0.06291685  0.55110477
   0.32229802  0.05276063  0.56424186
   0.54767033  0.05822225  0.56781477
   0.81533756  0.05400640  0.56588571
   0.06573198  0.30949415  0.56459522
   0.30760774  0.31449961  0.56206621
   0.57004330  0.31195691  0.55637415
   0.81442753  0.32002804  0.55537230
   0.05834772  0.56787859  0.56112834
   0.31148659  0.55783258  0.56020311
   0.55637618  0.57122436  0.55928084
   0.82585092  0.56449317  0.55411198
   0.07028865  0.78910494  0.57261813
   0.31949071  0.81251563  0.55626323
   0.55967344  0.81473150  0.56792765
   0.81631442  0.81801283  0.56637455
   0.06038818  0.06073136  0.82261463
   0.30491075  0.05433230  0.82666632
   0.55090782  0.06509062  0.81636455
   0.81542414  0.06001129  0.79701713
   0.05920513  0.30759921  0.81629911
   0.31441873  0.31423223  0.81449449
   0.56275448  0.32242579  0.81464314
   0.81551261  0.31127424  0.81007986
   0.05331343  0.57110438  0.80379919
   0.30624672  0.55329173  0.82026862
   0.56692708  0.56551820  0.80466019
   0.80320744  0.55981849  0.82179966
   0.06014838  0.81155690  0.80493213
   0.29708566  0.82787506  0.81860227
   0.55933459  0.81788066  0.81151820
   0.80114797  0.82371720  0.81126068
